Title
82323
    1SAPS     N    1   6.510   6.676  11.126  0.1752  0.0328 -0.1162
    1SAPS   HN1    2   6.409   6.690  11.106 -0.0991  3.5851  2.7121
    1SAPS   HN2    3   6.552   6.583  11.145 -2.2756 -1.1542 -0.0699
    1SAPS   HN3    4   6.519   6.735  11.211 -0.5156  1.9754 -1.3195
    1SAPS   C12    5   6.597   6.754  11.032  0.5000  0.4650  0.1611
    1SAPS  H12A    6   6.550   6.844  10.996 -1.6992 -0.1334  1.3464
    1SAPS   C13    7   6.732   6.805  11.082 -0.6912  0.5017  0.5223
    1SAPS  O13A    8   6.773   6.790  11.199 -0.2051  0.4328 -0.2211
    1SAPS  O13B    9   6.811   6.859  10.999  0.3892 -0.2560  0.4115
    1SAPS   C11   10   6.610   6.675  10.899  0.4245  0.1933 -0.0395
    1SAPS  H11A   11   6.676   6.725  10.825  1.2582 -2.4917 -1.2097
    1SAPS  H11B   12   6.511   6.645  10.859  0.5256 -0.0063 -0.1372
    1SAPS     P   13   6.634   6.413  10.919  0.0394 -0.3678  0.2687
    1SAPS   O13   14   6.745   6.316  10.920 -0.4898 -0.0141 -0.2408
    1SAPS   O14   15   6.531   6.386  11.022 -0.0287 -0.4143  0.1936
    1SAPS   O12   16   6.692   6.560  10.924  0.2529  0.4137  0.2355
    1SAPS   O11   17   6.564   6.416  10.780 -0.0094 -0.1617 -0.1771
    1SAPS    C1   18   6.646   6.416  10.659  0.6289 -0.3588 -0.2297
    1SAPS    HA   19   6.745   6.465  10.668  0.1619  0.4066  0.9119
    1SAPS    HB   20   6.675   6.312  10.630 -0.7148 -0.9376  0.4063
    1SAPS    C2   21   6.583   6.491  10.539  0.1207 -0.2637 -0.4112
    1SAPS    HS   22   6.579   6.594  10.580  0.0948 -1.0121  1.5481
    1SAPS   O21   23   6.450   6.433  10.514 -0.1392  0.2093 -0.3434
    1SAPS   C21   24   6.353   6.514  10.467 -0.2855 -0.0818 -0.0689
    1SAPS   O22   25   6.372   6.632  10.447 -0.1476 -0.2228 -0.0805
    1SAPS   C22   26   6.211   6.447  10.457  0.3685  0.5256 -0.1498
    1SAPS   H2R   27   6.216   6.360  10.526  2.4611 -0.2178 -1.1569
    1SAPS   H2S   28   6.125   6.505  10.498 -2.6271 -3.6269  0.0746
    1SAPS    C3   29   6.682   6.487  10.415 -0.3222  0.3767 -0.2237
    1SAPS    HX   30   6.687   6.378  10.392 -3.4143 -0.1138  0.8023
    1SAPS    HY   31   6.784   6.522  10.441  0.4183 -2.2040  0.6958
    1SAPS   O31   32   6.634   6.561  10.300 -0.1835  0.3231 -0.3052
    1SAPS   C31   33   6.651   6.689  10.307  0.0583 -0.5174  0.0822
    1SAPS   O32   34   6.714   6.750  10.392 -0.2746  0.2726 -0.0398
    1SAPS   C32   35   6.555   6.750  10.196  0.2766  0.2279  0.2934
    1SAPS   H2X   36   6.464   6.794  10.242 -0.2611 -1.4397  0.9047
    1SAPS   H2Y   37   6.525   6.668  10.127  2.5295 -0.1666 -0.2734
    1SAPS   C23   38   6.172   6.398  10.313  0.6560  0.2685  0.2697
    1SAPS   H3R   39   6.230   6.438  10.227 -1.1311 -0.0613 -1.1485
    1SAPS   H3S   40   6.068   6.437  10.303  0.3911 -0.2262  1.0514
    1SAPS   C24   41   6.166   6.242  10.303 -0.0628 -0.4693 -0.1852
    1SAPS   H4R   42   6.122   6.224  10.203 -1.5445 -1.6305  0.6252
    1SAPS   H4S   43   6.087   6.203  10.370  1.2801 -2.8658  0.0799
    1SAPS   C25   44   6.296   6.175  10.338 -0.3962 -0.3122 -0.0228
    1SAPS   H5R   45   6.306   6.171  10.448 -0.8673  0.2188  0.0456
    1SAPS   C26   46   6.391   6.138  10.252 -0.7124 -0.3245  0.3364
    1SAPS   H6R   47   6.485   6.098  10.293  0.3109  1.8881  0.3111
    1SAPS   C27   48   6.382   6.155  10.103  0.1354 -0.3979 -0.1277
    1SAPS   H7R   49   6.400   6.260  10.075 -1.8865 -0.3034 -1.2599
    1SAPS   H7S   50   6.278   6.133  10.071  0.3731 -1.1077 -0.4313
    1SAPS   C28   51   6.499   6.075  10.048 -0.2999 -0.4113  0.0516
    1SAPS   H8R   52   6.560   6.022  10.123 -0.9846  0.5829  1.3660
    1SAPS   C29   53   6.537   6.082   9.918  0.4412 -0.1958 -0.5357
    1SAPS   H9R   54   6.617   6.012   9.893 -0.0497 -0.4781 -1.3331
    1SAPS  C210   55   6.490   6.167   9.805  0.3210  0.5345  0.4774
    1SAPS  H10R   56   6.389   6.124   9.786 -0.1835  0.4530  2.9507
    1SAPS  H10S   57   6.557   6.145   9.719 -1.3771 -1.5919 -0.4129
    1SAPS  C211   58   6.484   6.318   9.817 -0.1728 -0.7261 -1.7405
    1SAPS  H11R   59   6.584   6.364   9.810 -0.5816  2.1206  4.3446
    1SAPS  C212   60   6.380   6.398   9.819 -0.5225 -0.3845  0.1367
    1SAPS  H12R   61   6.395   6.505   9.835  0.9787 -0.5996  0.2466
    1SAPS  C213   62   6.233   6.364   9.810 -0.1552  0.6277 -0.3123
    1SAPS  H13R   63   6.232   6.253   9.812 -0.1579  0.6354  0.6346
    1SAPS  H13S   64   6.181   6.391   9.716 -2.8428 -0.2845  0.8045
    1SAPS  C214   65   6.139   6.409   9.925 -0.5213 -0.1071  0.0043
    1SAPS  H14R   66   6.172   6.455  10.019 -3.6197  0.1304  1.1085
    1SAPS  C215   67   6.008   6.382   9.930 -0.2909 -0.2098 -0.5265
    1SAPS  H15R   68   5.946   6.415  10.015  0.9821 -1.3495  0.8938
    1SAPS  C216   69   5.924   6.310   9.828 -0.3581 -0.3745  0.0570
    1SAPS  H16R   70   5.985   6.252   9.756 -0.3379  0.6515 -0.7730
    1SAPS  H16S   71   5.871   6.383   9.763 -0.4321 -0.8418 -0.4179
    1SAPS  C217   72   5.836   6.205   9.901  0.3403 -0.1236 -0.2297
    1SAPS  H17R   73   5.786   6.253   9.989 -0.5513 -0.5409 -0.4922
    1SAPS  H17S   74   5.889   6.116   9.941 -1.3124 -0.8184  0.5083
    1SAPS  C218   75   5.731   6.147   9.802  0.0338  0.0296  0.6623
    1SAPS  H18R   76   5.787   6.097   9.720 -0.6162  0.4773 -0.0656
    1SAPS  H18S   77   5.664   6.225   9.762 -1.6786 -1.3794  0.6588
    1SAPS  C219   78   5.643   6.045   9.874  0.5657  0.1909 -0.5986
    1SAPS  H19R   79   5.705   5.986   9.944 -0.4897 -1.4562 -0.9769
    1SAPS  H19S   80   5.602   5.978   9.795 -0.3704  0.0613 -0.0104
    1SAPS  C220   81   5.520   6.110   9.955  0.5158  0.4169  1.0591
    1SAPS  H20R   82   5.451   6.029   9.986  1.2170 -0.2479  0.9084
    1SAPS  H20S   83   5.463   6.168   9.879 -0.6528 -3.2000 -1.0456
    1SAPS  H20T   84   5.538   6.168  10.048 -1.9950  1.6091  0.8848
    1SAPS   C33   85   6.622   6.859  10.110  0.1317 -0.6542  0.3098
    1SAPS   H3X   86   6.718   6.813  10.080  1.4081  2.3847 -0.6023
    1SAPS   H3Y   87   6.647   6.945  10.174  1.1962 -0.0961 -0.8146
    1SAPS   C34   88   6.536   6.908   9.991 -0.7057  0.6375 -0.2783
    1SAPS   H4X   89   6.584   6.996   9.945  0.1174  0.0332 -0.6035
    1SAPS   H4Y   90   6.436   6.934  10.031 -0.8366 -0.4511  0.1390
    1SAPS   C35   91   6.517   6.801   9.881  0.0029  0.4431  0.3473
    1SAPS   H5X   92   6.444   6.720   9.900 -1.3187  1.3893 -0.5655
    1SAPS   H5Y   93   6.614   6.748   9.866  0.4764  0.3157  3.2648
    1SAPS   C36   94   6.471   6.860   9.742  0.5034 -0.2207 -0.9103
    1SAPS   H6X   95   6.545   6.941   9.728 -1.1023  2.0588  2.3961
    1SAPS   H6Y   96   6.377   6.919   9.747  1.3602  1.2069 -1.1758
    1SAPS   C37   97   6.476   6.760   9.621  0.4578 -0.4603 -0.6042
    1SAPS   H7X   98   6.385   6.697   9.633  0.4759 -0.1705  1.4038
    1SAPS   H7Y   99   6.570   6.700   9.621  1.2269  0.6054  1.9206
    1SAPS   C38  100   6.457   6.854   9.498 -0.5963  0.3641  0.4685
    1SAPS   H8X  101   6.545   6.919   9.479 -1.2351  0.5166 -2.4273
    1SAPS   H8Y  102   6.375   6.929   9.504 -0.8885 -0.0714  2.6837
    1SAPS   C39  103   6.442   6.766   9.362 -0.3732 -0.1718  0.4906
    1SAPS   H9X  104   6.340   6.723   9.358 -0.8248  0.7719  1.2365
    1SAPS   H9Y  105   6.524   6.691   9.356  0.8558  1.2326 -1.7894
    1SAPS  C310  106   6.467   6.845   9.237 -0.2108  0.3921  0.6434
    1SAPS  H10X  107   6.562   6.900   9.251  1.1257 -1.3662 -1.0306
    1SAPS  H10Y  108   6.381   6.915   9.237 -1.6420 -1.2741  0.4581
    1SAPS  C311  109   6.474   6.765   9.106  0.3764  0.2968 -0.6367
    1SAPS  H11X  110   6.377   6.716   9.084  0.7643 -1.0212  0.4603
    1SAPS  H11Y  111   6.560   6.695   9.111  1.7566  1.9262 -0.7388
    1SAPS  C312  112   6.507   6.862   8.994 -0.0229 -0.0731  0.6441
    1SAPS  H12X  113   6.593   6.923   9.030 -1.1751  1.2643  1.1887
    1SAPS  H12Y  114   6.424   6.935   8.986 -0.0987 -0.1932  0.3322
    1SAPS  C313  115   6.549   6.789   8.860 -0.2821 -0.3780  0.3205
    1SAPS  H13X  116   6.620   6.707   8.886 -0.7359 -0.8443  0.1015
    1SAPS  H13Y  117   6.601   6.859   8.791 -3.2237  0.0848 -1.6123
    1SAPS  C314  118   6.422   6.746   8.778 -0.3870 -0.7453  0.2054
    1SAPS  H14X  119   6.361   6.835   8.751  0.8123  0.3423  0.9181
    1SAPS  H14Y  120   6.357   6.684   8.843 -1.4629 -0.6076 -0.7194
    1SAPS  C315  121   6.461   6.654   8.652  0.1678  0.1623  0.0247
    1SAPS  H15X  122   6.514   6.698   8.565 -0.3609 -1.3658 -1.1162
    1SAPS  H15Y  123   6.367   6.614   8.609 -0.5765  1.1246  0.6948
    1SAPS  C316  124   6.548   6.525   8.686 -0.0854  0.1007 -0.6912
    1SAPS  H16X  125   6.635   6.542   8.753  0.4938  0.8772 -1.6197
    1SAPS  H16Y  126   6.599   6.488   8.595  1.7188 -1.0243  0.7024
    1SAPS  C317  127   6.465   6.402   8.731  0.5049  0.7523  0.0252
    1SAPS  H17X  128   6.378   6.390   8.663 -0.2196  1.6168  0.7622
    1SAPS  H17Y  129   6.418   6.428   8.829 -3.4161  1.8049 -1.9125
    1SAPS  C318  130   6.542   6.270   8.733  0.0954 -0.2225  0.5581
    1SAPS  H18X  131   6.618   6.277   8.815  1.3243  1.5089 -0.6599
    1SAPS  H18Y  132   6.598   6.250   8.639  1.1707  1.2469  0.8338
    1SAPS  H18Z  133   6.475   6.184   8.755 -0.4703  0.5134  1.8397
    2SAPS     N  134   4.761   1.640  11.075 -0.4068  0.1981  0.1952
    2SAPS   HN1  135   4.779   1.580  10.992  2.1219 -2.4287  2.4209
    2SAPS   HN2  136   4.733   1.578  11.154  1.6730 -2.7025 -1.1542
    2SAPS   HN3  137   4.693   1.717  11.062  0.1721  0.4992 -1.2533
    2SAPS   C12  138   4.886   1.715  11.109  0.1367  0.3486 -0.0677
    2SAPS  H12A  139   4.852   1.784  11.185 -0.1253 -0.6784  0.7757
    2SAPS   C13  140   4.998   1.624  11.160 -0.6288 -0.2043  0.7587
    2SAPS  O13A  141   4.986   1.498  11.167  0.2420  0.3515 -0.1162
    2SAPS  O13B  142   5.105   1.678  11.211  0.1881 -0.3425  0.3509
    2SAPS   C11  143   4.939   1.794  10.983 -0.2684  0.0046 -0.1903
    2SAPS  H11A  144   4.968   1.716  10.909 -0.9325 -0.2005 -0.2381
    2SAPS  H11B  145   5.029   1.856  11.003 -0.6462  0.5902 -0.2693
    2SAPS     P  146   4.845   2.026  10.883  0.2211  0.5090 -0.3533
    2SAPS   O13  147   4.725   2.063  10.808  0.3579 -0.1682 -0.2249
    2SAPS   O14  148   4.885   2.114  10.995 -0.1031 -0.4364 -0.1858
    2SAPS   O12  149   4.833   1.878  10.929 -0.0628  0.5548  0.2960
    2SAPS   O11  150   4.959   2.024  10.774 -0.0500  0.0646  0.4908
    2SAPS    C1  151   4.976   1.923  10.676 -0.2045 -0.8207 -0.1410
    2SAPS    HA  152   5.070   1.871  10.704 -0.7180 -1.3197  0.7192
    2SAPS    HB  153   4.897   1.845  10.675 -0.9443 -0.0764 -0.7087
    2SAPS    C2  154   4.982   1.974  10.536  0.4812  0.2181  0.2571
    2SAPS    HS  155   4.896   1.931  10.480 -1.4741  3.1487  0.7531
    2SAPS   O21  156   5.097   1.922  10.463  0.2108 -0.8373 -0.4099
    2SAPS   C21  157   5.222   1.967  10.500  0.1780 -0.0252 -0.2352
    2SAPS   O22  158   5.245   2.039  10.596  0.1376 -0.1349 -0.3740
    2SAPS   C22  159   5.314   1.914  10.389  0.0280  0.2177  0.1840
    2SAPS   H2R  160   5.302   1.806  10.365  2.4020  0.1872 -1.1128
    2SAPS   H2S  161   5.292   1.970  10.295 -0.2428 -1.7908 -1.0034
    2SAPS    C3  162   4.962   2.132  10.524  0.5121 -0.2156 -0.0403
    2SAPS    HX  163   5.044   2.201  10.553 -0.4608  0.5605  0.9671
    2SAPS    HY  164   4.885   2.148  10.602 -0.7766 -3.4786 -0.4555
    2SAPS   O31  165   4.906   2.171  10.396 -0.4699 -0.3599 -0.0462
    2SAPS   C31  166   4.989   2.197  10.295  0.3461 -0.0311  0.7268
    2SAPS   O32  167   5.108   2.189  10.293 -0.0301 -0.0384  0.2681
    2SAPS   C32  168   4.906   2.242  10.177 -0.1937  0.1237  0.0228
    2SAPS   H2X  169   4.865   2.345  10.191  1.3169  0.6766  0.6231
    2SAPS   H2Y  170   4.821   2.172  10.166 -2.1067  1.9474  2.1825
    2SAPS   C23  171   5.460   1.960  10.403 -0.4322 -0.1840 -0.4091
    2SAPS   H3R  172   5.492   1.947  10.509  0.3683 -1.1584 -0.7522
    2SAPS   H3S  173   5.464   2.069  10.382 -1.5956  0.1081  0.7826
    2SAPS   C24  174   5.566   1.902  10.310  0.6379  0.0892 -0.0072
    2SAPS   H4R  175   5.541   1.937  10.207 -0.8076 -2.6515 -0.6770
    2SAPS   H4S  176   5.546   1.793  10.303 -0.7764  0.2637  0.8469
    2SAPS   C25  177   5.712   1.911  10.352 -0.4166 -1.2901  0.0358
    2SAPS   H5R  178   5.726   1.910  10.461 -1.2842 -0.8136  0.1641
    2SAPS   C26  179   5.816   1.929  10.269 -0.0457  0.6289  0.1449
    2SAPS   H6R  180   5.916   1.949  10.309  0.4034  0.4649 -0.8758
    2SAPS   C27  181   5.801   1.911  10.118 -0.1918 -0.2593  0.1645
    2SAPS   H7R  182   5.720   1.837  10.099  1.5472 -1.8865 -1.4411
    2SAPS   H7S  183   5.886   1.862  10.065  0.0830  1.4386 -1.0658
    2SAPS   C28  184   5.761   2.035  10.041 -0.1997 -0.1817 -0.1189
    2SAPS   H8R  185   5.779   2.134  10.084  1.6151 -0.3659 -0.3666
    2SAPS   C29  186   5.691   2.035   9.931 -0.4725 -0.4866  0.3074
    2SAPS   H9R  187   5.663   2.132   9.887 -0.2179 -0.7887 -0.5249
    2SAPS  C210  188   5.646   1.918   9.857  0.0043 -0.5345  0.3747
    2SAPS  H10R  189   5.696   1.822   9.883 -0.9150 -1.7011 -1.8576
    2SAPS  H10S  190   5.673   1.936   9.751  0.2547  2.5066  0.8711
    2SAPS  C211  191   5.491   1.904   9.873 -0.9316 -0.3263 -0.3312
    2SAPS  H11R  192   5.455   1.927   9.974  1.3728 -0.3604  0.5666
    2SAPS  C212  193   5.406   1.860   9.782 -0.7484  0.3248 -0.2314
    2SAPS  H12R  194   5.301   1.862   9.814 -0.0594  1.5066  2.2047
    2SAPS  C213  195   5.443   1.814   9.640  0.0379  0.1546  0.6750
    2SAPS  H13R  196   5.441   1.703   9.643  1.1586  0.1333  2.2555
    2SAPS  H13S  197   5.548   1.839   9.614  0.2763  0.0381  1.4904
    2SAPS  C214  198   5.352   1.865   9.534 -0.3303 -0.2668  0.1289
    2SAPS  H14R  199   5.328   1.973   9.527 -0.7651 -0.3627  0.0909
    2SAPS  C215  200   5.303   1.790   9.432  0.3297  1.1041  0.4572
    2SAPS  H15R  201   5.231   1.835   9.363 -0.7693 -1.3814 -0.1256
    2SAPS  C216  202   5.323   1.645   9.405  0.4629 -0.2332  0.0413
    2SAPS  H16R  203   5.222   1.600   9.413  0.1762  0.5656  1.0938
    2SAPS  H16S  204   5.384   1.606   9.490 -2.5260 -1.8087  1.6089
    2SAPS  C217  205   5.380   1.630   9.270  0.0589  0.2780  0.4683
    2SAPS  H17R  206   5.314   1.666   9.188  1.2792  0.4963 -0.4480
    2SAPS  H17S  207   5.397   1.523   9.248  0.8118  0.0803  1.9067
    2SAPS  C218  208   5.516   1.705   9.244 -0.4194 -0.3651 -0.3262
    2SAPS  H18R  209   5.598   1.648   9.293 -0.3072  1.6970  2.0549
    2SAPS  H18S  210   5.513   1.810   9.279  3.2902 -0.1021 -0.4660
    2SAPS  C219  211   5.535   1.728   9.088 -0.2217  0.1951 -0.3629
    2SAPS  H19R  212   5.436   1.767   9.057 -0.7019  0.9501  1.8902
    2SAPS  H19S  213   5.547   1.624   9.053 -0.6476 -0.6766  1.8825
    2SAPS  C220  214   5.653   1.820   9.064 -0.1097  0.1837 -0.0626
    2SAPS  H20R  215   5.744   1.771   9.105 -1.7790 -2.2714  1.0159
    2SAPS  H20S  216   5.640   1.918   9.114 -1.9144  0.2468 -0.5692
    2SAPS  H20T  217   5.669   1.828   8.955  0.0325 -0.8650 -0.1353
    2SAPS   C33  218   4.995   2.246  10.045 -0.4399  1.1820 -0.0503
    2SAPS   H3X  219   5.049   2.150  10.033 -1.7514  0.2277  1.3083
    2SAPS   H3Y  220   5.064   2.333  10.051 -0.3111  0.9889  1.8103
    2SAPS   C34  221   4.896   2.267   9.926  0.6051 -0.6078  0.3121
    2SAPS   H4X  222   4.860   2.372   9.924 -1.0465 -1.1522 -1.0246
    2SAPS   H4Y  223   4.809   2.201   9.948  2.2793 -3.9234 -2.1365
    2SAPS   C35  224   4.962   2.236   9.799 -0.5321  0.3184  0.5146
    2SAPS   H5X  225   5.013   2.138   9.810  1.2038  1.2041  0.7663
    2SAPS   H5Y  226   5.045   2.310   9.794 -1.1905  1.1948  1.9985
    2SAPS   C36  227   4.876   2.240   9.675 -1.1321 -0.3222  0.4146
    2SAPS   H6X  228   4.815   2.332   9.662 -1.7378 -0.8537 -0.6883
    2SAPS   H6Y  229   4.811   2.150   9.683 -1.2950 -0.1543  1.0404
    2SAPS   C37  230   4.960   2.234   9.545 -0.3925 -0.5947  0.2848
    2SAPS   H7X  231   5.018   2.139   9.539  0.3221 -0.1618  0.1292
    2SAPS   H7Y  232   5.018   2.328   9.534 -1.5480  0.3164  1.6756
    2SAPS   C38  233   4.876   2.210   9.418  0.1213 -0.2181  0.2424
    2SAPS   H8X  234   4.795   2.285   9.428 -1.1937 -1.4609 -0.6697
    2SAPS   H8Y  235   4.855   2.102   9.404  0.2347 -0.0456 -1.5529
    2SAPS   C39  236   4.956   2.253   9.294  0.5417  0.0109 -0.4254
    2SAPS   H9X  237   5.047   2.189   9.286 -0.8371 -1.8925 -1.7561
    2SAPS   H9Y  238   4.986   2.360   9.294  1.5467 -0.2558 -0.5957
    2SAPS  C310  239   4.889   2.200   9.165 -0.2356 -0.5187  0.1035
    2SAPS  H10X  240   4.780   2.185   9.180 -0.3933 -0.9141 -1.2912
    2SAPS  H10Y  241   4.924   2.099   9.133 -1.0030 -1.3066  1.6640
    2SAPS  C311  242   4.903   2.289   9.039 -0.2947 -0.5599 -0.5308
    2SAPS  H11X  243   5.012   2.310   9.031 -0.1479 -1.4345 -0.9301
    2SAPS  H11Y  244   4.851   2.387   9.047 -2.4957 -1.3249 -3.5299
    2SAPS  C312  245   4.845   2.233   8.909  0.5159  0.1706 -0.4221
    2SAPS  H12X  246   4.897   2.137   8.887  3.0170  0.9783  1.4589
    2SAPS  H12Y  247   4.864   2.303   8.824 -2.6507  1.3919 -0.2503
    2SAPS  C313  248   4.695   2.206   8.909 -0.6166 -0.0472 -0.8220
    2SAPS  H13X  249   4.650   2.294   8.960  0.2954  0.8695 -1.5619
    2SAPS  H13Y  250   4.674   2.115   8.971  0.6596 -1.9399 -3.0154
    2SAPS  C314  251   4.630   2.175   8.775 -0.1112 -0.4998  0.7480
    2SAPS  H14X  252   4.698   2.101   8.726  0.8058  0.0096  1.2132
    2SAPS  H14Y  253   4.639   2.268   8.714 -3.1197 -1.1979 -0.9575
    2SAPS  C315  254   4.486   2.119   8.777  0.5262 -0.4417  0.5195
    2SAPS  H15X  255   4.415   2.189   8.824 -0.2527 -1.0617  0.2826
    2SAPS  H15Y  256   4.489   2.024   8.835  0.9377 -1.6120 -1.3286
    2SAPS  C316  257   4.439   2.080   8.635 -0.3015 -0.3316 -0.5559
    2SAPS  H16X  258   4.350   2.013   8.641 -0.4008 -0.0693  2.6071
    2SAPS  H16Y  259   4.521   2.020   8.590  0.0616  0.0353 -0.3871
    2SAPS  C317  260   4.417   2.207   8.547 -0.3455 -0.3279  0.2596
    2SAPS  H17X  261   4.503   2.276   8.536 -0.2366 -0.7265 -1.7297
    2SAPS  H17Y  262   4.331   2.264   8.588 -0.3054  0.6320 -0.9561
    2SAPS  C318  263   4.368   2.173   8.403 -0.5005  0.6061 -0.2778
    2SAPS  H18X  264   4.284   2.100   8.399  1.5577 -1.9986  1.0446
    2SAPS  H18Y  265   4.455   2.133   8.347  0.8249  1.2247  1.2429
    2SAPS  H18Z  266   4.327   2.270   8.368 -1.5052  0.2048 -0.2537
    3SAPS     N  267   4.174   2.466  10.749  0.0833 -0.8662 -0.2231
    3SAPS   HN1  268   4.188   2.491  10.649 -0.1920  0.9306  0.1651
    3SAPS   HN2  269   4.259   2.476  10.808  0.1175 -1.2582 -0.2024
    3SAPS   HN3  270   4.163   2.363  10.763  3.5484 -1.1590  1.4545
    3SAPS   C12  271   4.065   2.547  10.811 -0.8003  0.1985  0.5779
    3SAPS  H12A  272   4.049   2.508  10.910  1.0060  0.8878  1.1809
    3SAPS   C13  273   4.105   2.695  10.819 -0.7308  0.5896 -0.3141
    3SAPS  O13A  274   4.184   2.741  10.737  0.3082 -0.1907  0.5331
    3SAPS  O13B  275   4.032   2.766  10.891  0.5066  0.0279  0.4747
    3SAPS   C11  276   3.940   2.523  10.721  0.1337  0.7394 -1.1166
    3SAPS  H11A  277   3.965   2.571  10.624  1.4461  0.2840 -1.0194
    3SAPS  H11B  278   3.859   2.572  10.779 -0.4720 -1.4993  0.0344
    3SAPS     P  279   3.784   2.319  10.647 -0.1853 -0.2216  0.0302
    3SAPS   O13  280   3.791   2.168  10.659  0.2146  0.0535 -0.5362
    3SAPS   O14  281   3.666   2.391  10.700 -0.1405  0.2597  0.1296
    3SAPS   O12  282   3.911   2.384  10.702 -0.3277  0.1819  0.1626
    3SAPS   O11  283   3.787   2.337  10.488 -0.3714 -0.2455 -0.4065
    3SAPS    C1  284   3.890   2.261  10.422  0.4056 -0.6961  0.2186
    3SAPS    HA  285   3.994   2.288  10.452 -0.1971  1.3245  0.6506
    3SAPS    HB  286   3.872   2.152  10.439 -0.9807 -0.3193  1.3861
    3SAPS    C2  287   3.873   2.279  10.263  0.1346 -0.4749 -0.1741
    3SAPS    HS  288   3.946   2.204  10.224  0.9355  0.6075 -0.8329
    3SAPS   O21  289   3.908   2.416  10.226 -0.2811  0.3681 -0.8062
    3SAPS   C21  290   4.036   2.446  10.224  0.4498 -0.4802 -0.5405
    3SAPS   O22  291   4.131   2.375  10.240  0.0873 -0.1608 -0.6636
    3SAPS   C22  292   4.056   2.592  10.160 -0.2668 -0.6056  0.3136
    3SAPS   H2R  293   4.026   2.669  10.235  1.8648  0.0098  0.5979
    3SAPS   H2S  294   4.167   2.600  10.161 -0.3510  0.8063  0.8779
    3SAPS    C3  295   3.730   2.241  10.215  0.1271 -0.0624  0.1849
    3SAPS    HX  296   3.656   2.300  10.273 -1.1613 -1.6224  0.2065
    3SAPS    HY  297   3.722   2.132  10.237  0.7262 -0.1314  0.0824
    3SAPS   O31  298   3.720   2.256  10.070  0.5617 -0.8238  0.6049
    3SAPS   C31  299   3.642   2.356  10.026 -0.2527  0.4232 -0.6386
    3SAPS   O32  300   3.586   2.438  10.096 -0.0457  0.2587 -0.0635
    3SAPS   C32  301   3.643   2.357   9.871  0.4121  0.1743 -0.0859
    3SAPS   H2X  302   3.711   2.432   9.825 -0.0076  0.5205 -0.1381
    3SAPS   H2Y  303   3.538   2.384   9.850  0.2616 -0.1674  0.2091
    3SAPS   C23  304   3.981   2.617  10.030  0.4999  0.5281 -0.1584
    3SAPS   H3R  305   3.893   2.678  10.057 -0.3088  0.5728 -2.6775
    3SAPS   H3S  306   3.950   2.520   9.984  0.2777  0.3629  0.3339
    3SAPS   C24  307   4.048   2.693   9.918 -0.2131  0.1763  0.3591
    3SAPS   H4R  308   3.969   2.689   9.840  0.2933 -3.0334 -0.1226
    3SAPS   H4S  309   4.139   2.647   9.876 -0.3572  0.4619 -0.2843
    3SAPS   C25  310   4.078   2.840   9.953  0.0022  0.0992  0.3591
    3SAPS   H5R  311   4.091   2.844  10.062  0.2993  0.6747  0.3044
    3SAPS   C26  312   4.080   2.958   9.887  0.9246  0.5469 -0.4367
    3SAPS   H6R  313   4.114   3.048   9.940  4.1125  0.5961 -2.2715
    3SAPS   C27  314   4.062   2.968   9.736 -0.0352 -0.0207 -0.1749
    3SAPS   H7R  315   4.091   2.868   9.695  0.7963  0.8238 -1.7170
    3SAPS   H7S  316   4.140   3.036   9.696  1.3458 -0.2263  1.9558
    3SAPS   C28  317   3.926   3.014   9.690  0.3453 -0.6960 -0.1856
    3SAPS   H8R  318   3.855   3.041   9.770  0.4287  0.6312 -0.5486
    3SAPS   C29  319   3.873   3.021   9.568  1.1021  0.2268  0.5528
    3SAPS   H9R  320   3.772   3.063   9.558  1.6117  1.1490 -1.0049
    3SAPS  C210  321   3.933   2.980   9.440 -0.5934 -0.1468  0.3349
    3SAPS  H10R  322   3.882   2.896   9.388 -3.4666  1.7622 -0.1947
    3SAPS  H10S  323   4.038   2.948   9.458 -0.8200  0.4476  3.2594
    3SAPS  C211  324   3.943   3.086   9.333  0.1796  0.5023  0.4168
    3SAPS  H11R  325   4.023   3.161   9.346  0.8796 -0.3041  0.8505
    3SAPS  C212  326   3.876   3.107   9.220 -0.2660 -0.0044  0.7466
    3SAPS  H12R  327   3.892   3.188   9.147  0.1349 -1.6969 -1.1344
    3SAPS  C213  328   3.757   3.018   9.171  0.0351  0.3573  0.3786
    3SAPS  H13R  329   3.679   3.014   9.250 -0.2610  0.1062  0.0760
    3SAPS  H13S  330   3.791   2.912   9.165  2.7647  1.1937 -0.8350
    3SAPS  C214  331   3.692   3.067   9.046  0.6125 -1.0931  0.4172
    3SAPS  H14R  332   3.630   3.156   9.067  1.0467 -0.2548 -1.6484
    3SAPS  C215  333   3.704   3.022   8.920  0.1720  0.4872  0.3196
    3SAPS  H15R  334   3.640   3.062   8.840  0.5106 -0.1638 -0.2907
    3SAPS  C216  335   3.777   2.902   8.876  0.0506  0.0922 -0.0697
    3SAPS  H16R  336   3.716   2.824   8.825  0.9674 -1.7414  1.5008
    3SAPS  H16S  337   3.813   2.854   8.970  2.0477  1.2977 -0.1603
    3SAPS  C217  338   3.909   2.945   8.802  0.0485  0.1659 -0.1609
    3SAPS  H17R  339   3.967   3.017   8.865 -2.2115  0.1942  2.0493
    3SAPS  H17S  340   3.890   2.995   8.704 -1.9029  0.7977  0.4926
    3SAPS  C218  341   3.991   2.822   8.767 -0.4665 -0.4173  0.0957
    3SAPS  H18R  342   3.921   2.739   8.743 -2.2084  1.1377 -0.4559
    3SAPS  H18S  343   4.072   2.798   8.840  1.1062 -0.8266 -1.7184
    3SAPS  C219  344   4.066   2.848   8.635  0.3349  0.2934 -1.1913
    3SAPS  H19R  345   4.002   2.881   8.550 -0.3158  2.7978  0.1821
    3SAPS  H19S  346   4.123   2.756   8.610  3.1333  1.2908  0.9572
    3SAPS  C220  347   4.173   2.959   8.642 -0.5792 -0.0823 -0.6284
    3SAPS  H20R  348   4.222   2.977   8.544  1.9704  3.3924  1.0684
    3SAPS  H20S  349   4.245   2.929   8.721  0.6517  0.4188 -1.5239
    3SAPS  H20T  350   4.129   3.051   8.686  0.9880  0.9463 -1.1503
    3SAPS   C33  351   3.674   2.221   9.795  0.4204  0.4666 -0.2941
    3SAPS   H3X  352   3.620   2.139   9.846  0.9746 -0.2345 -0.8096
    3SAPS   H3Y  353   3.782   2.206   9.817  0.2083 -0.8089 -0.0393
    3SAPS   C34  354   3.643   2.209   9.648 -0.0651  0.1183  0.4065
    3SAPS   H4X  355   3.684   2.291   9.585  0.9494 -1.3359 -0.8730
    3SAPS   H4Y  356   3.532   2.213   9.642 -0.0656 -0.2486  0.1783
    3SAPS   C35  357   3.678   2.074   9.586 -0.0001  0.0320  0.2643
    3SAPS   H5X  358   3.690   2.006   9.672 -0.9512  1.5525  1.6555
    3SAPS   H5Y  359   3.769   2.077   9.522  1.7037  0.2962  2.5748
    3SAPS   C36  360   3.566   2.021   9.488 -0.9746  0.1668  0.2769
    3SAPS   H6X  361   3.469   2.010   9.542 -0.8629 -0.7062  0.3286
    3SAPS   H6Y  362   3.600   1.917   9.465 -1.5867  0.1225 -0.4846
    3SAPS   C37  363   3.551   2.107   9.364 -0.0854  0.7879  0.5818
    3SAPS   H7X  364   3.543   2.213   9.395 -2.7500  2.3049 -4.2048
    3SAPS   H7Y  365   3.461   2.070   9.310  1.3574  0.3361 -1.6494
    3SAPS   C38  366   3.657   2.102   9.261 -0.0407 -0.0498 -0.3031
    3SAPS   H8X  367   3.708   2.004   9.260  0.9936  0.3936  2.0450
    3SAPS   H8Y  368   3.742   2.167   9.292  0.5267  0.2706 -2.3377
    3SAPS   C39  369   3.617   2.138   9.118 -0.1227  0.0090  0.1308
    3SAPS   H9X  370   3.580   2.242   9.109 -0.9093 -0.4199 -2.9944
    3SAPS   H9Y  371   3.536   2.064   9.097 -0.3567 -0.1909  1.6325
    3SAPS  C310  372   3.730   2.112   9.010  0.3970  0.6060 -1.0504
    3SAPS  H10X  373   3.785   2.017   9.027  1.1262  0.8630 -1.8900
    3SAPS  H10Y  374   3.796   2.201   9.016  1.5614 -0.3311  1.3114
    3SAPS  C311  375   3.675   2.109   8.867  0.2397 -0.1872  0.2169
    3SAPS  H11X  376   3.593   2.184   8.859 -1.5739 -2.1720 -0.6653
    3SAPS  H11Y  377   3.637   2.010   8.834 -0.0257 -0.8101  2.2912
    3SAPS  C312  378   3.790   2.146   8.777 -0.3679  0.2114  0.3784
    3SAPS  H12X  379   3.871   2.077   8.809 -0.3922  0.5021  1.0918
    3SAPS  H12Y  380   3.818   2.252   8.796 -3.1623  0.9011  1.1968
    3SAPS  C313  381   3.761   2.131   8.627  0.4772 -0.2680 -0.0233
    3SAPS  H13X  382   3.679   2.199   8.598 -0.3053 -0.2304  2.0605
    3SAPS  H13Y  383   3.722   2.033   8.591 -0.2830  0.4309 -1.1314
    3SAPS  C314  384   3.879   2.166   8.530 -0.5970  0.7462 -0.0042
    3SAPS  H14X  385   3.967   2.119   8.579 -0.2084  1.8251  0.3558
    3SAPS  H14Y  386   3.896   2.275   8.545  1.5831  0.6182 -1.2071
    3SAPS  C315  387   3.857   2.111   8.393  0.7702 -0.3063  0.2937
    3SAPS  H15X  388   3.842   2.001   8.396 -1.4751 -0.0731 -0.5160
    3SAPS  H15Y  389   3.947   2.131   8.331 -0.2907  2.4210 -0.5022
    3SAPS  C316  390   3.723   2.160   8.323 -0.8447  0.1087  0.0510
    3SAPS  H16X  391   3.741   2.269   8.309  3.2582 -0.3970 -0.0739
    3SAPS  H16Y  392   3.642   2.138   8.395  0.3608 -0.5460  1.2551
    3SAPS  C317  393   3.708   2.098   8.189 -0.7741 -0.0044 -1.0537
    3SAPS  H17X  394   3.715   1.988   8.184 -1.4696 -0.3390  2.4198
    3SAPS  H17Y  395   3.788   2.130   8.119 -0.9613  1.2243 -0.7330
    3SAPS  C318  396   3.583   2.136   8.114  0.4443 -0.4454  0.3804
    3SAPS  H18X  397   3.499   2.072   8.150 -1.5334  1.4263 -0.6834
    3SAPS  H18Y  398   3.595   2.103   8.008 -1.9053 -1.5786  0.4041
    3SAPS  H18Z  399   3.558   2.244   8.120 -1.1334 -0.4436 -3.4376
    4SAPS     N  400   0.264   1.628  10.548  0.8191  0.2856  0.5353
    4SAPS   HN1  401   0.231   1.714  10.499 -0.5559 -0.0574  0.8003
    4SAPS   HN2  402   0.367   1.625  10.539  0.7236 -0.6201 -0.4793
    4SAPS   HN3  403   0.234   1.543  10.497  1.4607  0.0943  0.4783
    4SAPS   C12  404   0.221   1.625  10.691  0.2487  0.4178  0.0846
    4SAPS  H12A  405   0.251   1.716  10.741 -0.1961  0.6448 -0.0521
    4SAPS   C13  406   0.064   1.606  10.706  0.0380  0.1808  0.0186
    4SAPS  O13A  407   0.000   1.575  10.601  0.5439 -0.4500 -0.3137
    4SAPS  O13B  408   0.012   1.593  10.816  0.3278 -0.2411 -0.2984
    4SAPS   C11  409   0.288   1.501  10.755 -0.0987  0.0524 -0.0497
    4SAPS  H11A  410   0.224   1.416  10.722  0.3748 -0.8457  1.2390
    4SAPS  H11B  411   0.288   1.501  10.866  0.6085 -0.8765 -0.0383
    4SAPS     P  412   0.490   1.335  10.737  0.0021 -0.4118 -0.4369
    4SAPS   O13  413   0.628   1.364  10.787 -0.4411 -0.1862  0.4201
    4SAPS   O14  414   0.401   1.254  10.828 -0.1018 -0.1746  0.5744
    4SAPS   O12  415   0.423   1.475  10.710 -0.1425 -0.2083 -0.7488
    4SAPS   O11  416   0.472   1.285  10.596 -0.4411  0.0495  0.2223
    4SAPS    C1  417   0.544   1.342  10.483 -0.5108  0.2477 -0.0888
    4SAPS    HA  418   0.496   1.438  10.452 -1.7680 -0.3428 -0.0465
    4SAPS    HB  419   0.651   1.354  10.509 -0.4974 -2.5557  1.5608
    4SAPS    C2  420   0.549   1.256  10.349  0.3997  0.4358 -0.6215
    4SAPS    HS  421   0.636   1.295  10.293  0.4094  0.6256 -0.4773
    4SAPS   O21  422   0.418   1.260  10.282  0.1364  0.3350 -0.1467
    4SAPS   C21  423   0.432   1.248  10.153  0.6839  0.0491 -0.8229
    4SAPS   O22  424   0.530   1.243  10.092 -0.0404  0.0262 -0.1371
    4SAPS   C22  425   0.293   1.237  10.092 -0.5625 -1.1217 -0.4266
    4SAPS   H2R  426   0.230   1.160  10.143  0.2888 -2.2345 -1.0048
    4SAPS   H2S  427   0.241   1.335  10.097  1.7424  0.1256  1.4033
    4SAPS    C3  428   0.580   1.102  10.398 -0.5187 -0.1820  0.4464
    4SAPS    HX  429   0.493   1.051  10.444  0.1383 -0.5696  1.2946
    4SAPS    HY  430   0.652   1.112  10.482  0.7307  0.2700 -0.6307
    4SAPS   O31  431   0.637   1.024  10.288 -0.2020 -0.2834  0.2100
    4SAPS   C31  432   0.759   1.051  10.253 -0.1627  0.4685 -0.0896
    4SAPS   O32  433   0.837   1.129  10.308  0.3713 -0.3371  0.0446
    4SAPS   C32  434   0.807   0.967  10.132  0.5857 -0.4766 -0.5279
    4SAPS   H2X  435   0.743   0.877  10.121  0.1909 -0.0831 -1.5146
    4SAPS   H2Y  436   0.909   0.935  10.165 -0.2613 -1.2188  1.5456
    4SAPS   C23  437   0.298   1.198   9.940 -0.1074  0.5897  0.2223
    4SAPS   H3R  438   0.339   1.096   9.927 -1.8049  0.0151 -0.9983
    4SAPS   H3S  439   0.360   1.278   9.893 -0.5995 -0.4734 -2.3795
    4SAPS   C24  440   0.156   1.205   9.879 -0.2873 -0.4400  0.2217
    4SAPS   H4R  441   0.083   1.137   9.929  0.5375  0.0718  2.2267
    4SAPS   H4S  442   0.150   1.173   9.773 -3.2263  0.1724  0.1168
    4SAPS   C25  443   0.110   1.350   9.879 -0.0976 -0.0023  0.0167
    4SAPS   H5R  444   0.047   1.383   9.963 -2.7639 -1.1275 -1.4483
    4SAPS   C26  445   0.123   1.444   9.788 -0.5265 -0.0789 -0.5787
    4SAPS   H6R  446   0.080   1.539   9.821 -1.7647 -1.4350  1.9754
    4SAPS   C27  447   0.189   1.425   9.658  0.0426 -0.0068 -0.1848
    4SAPS   H7R  448   0.170   1.323   9.618  1.3672 -0.0436 -0.7471
    4SAPS   H7S  449   0.298   1.423   9.677  0.0846  1.3987 -0.2075
    4SAPS   C28  450   0.164   1.524   9.546  0.1831  0.1011 -0.9348
    4SAPS   H8R  451   0.090   1.600   9.575 -1.8847 -1.9762 -0.4589
    4SAPS   C29  452   0.218   1.531   9.423 -0.4597  1.0344 -0.8297
    4SAPS   H9R  453   0.195   1.624   9.369 -0.2827  1.4596 -0.1881
    4SAPS  C210  454   0.317   1.435   9.367  0.3376 -0.5239  0.2450
    4SAPS  H10R  455   0.262   1.351   9.320  0.9401  0.6304 -2.6993
    4SAPS  H10S  456   0.375   1.383   9.447  1.2600 -0.4652 -0.3711
    4SAPS  C211  457   0.415   1.506   9.283  0.6552  0.0910  0.7652
    4SAPS  H11R  458   0.474   1.580   9.338  1.8147 -0.9458  0.9562
    4SAPS  C212  459   0.428   1.502   9.144 -0.1571  0.3122 -0.8875
    4SAPS  H12R  460   0.499   1.569   9.095  0.7469  0.5813  0.7325
    4SAPS  C213  461   0.338   1.417   9.052 -0.3930 -0.8811 -0.2389
    4SAPS  H13R  462   0.273   1.495   9.007  1.2805  1.6340  1.4250
    4SAPS  H13S  463   0.274   1.351   9.115 -0.1980  0.1202  1.0528
    4SAPS  C214  464   0.424   1.346   8.958 -0.3005 -0.0466  0.2659
    4SAPS  H14R  465   0.524   1.321   8.995 -0.0134  0.3454 -0.2224
    4SAPS  C215  466   0.382   1.317   8.833 -0.5756  0.0998  0.5460
    4SAPS  H15R  467   0.447   1.248   8.776 -1.9827 -0.7267 -0.1194
    4SAPS  C216  468   0.250   1.341   8.766  0.8797 -0.2268  0.7901
    4SAPS  H16R  469   0.202   1.428   8.815 -4.5293 -2.6015  0.4474
    4SAPS  H16S  470   0.189   1.251   8.790  0.2904 -0.6127 -1.8869
    4SAPS  C217  471   0.255   1.363   8.611  0.4711 -0.2330  0.3471
    4SAPS  H17R  472   0.151   1.363   8.574 -0.4579 -0.6792  2.7307
    4SAPS  H17S  473   0.313   1.287   8.555 -3.3933 -1.8709 -1.7511
    4SAPS  C218  474   0.328   1.498   8.577  0.9198  0.2443 -0.9180
    4SAPS  H18R  475   0.375   1.491   8.476  2.2290  2.1499 -0.4785
    4SAPS  H18S  476   0.405   1.506   8.657 -0.6980 -1.2282  0.8835
    4SAPS  C219  477   0.235   1.617   8.594 -0.4361  0.1463  0.2834
    4SAPS  H19R  478   0.298   1.708   8.593 -0.8150  0.5316  2.9118
    4SAPS  H19S  479   0.207   1.620   8.702  1.7378  2.8306  0.8671
    4SAPS  C220  480   0.105   1.622   8.513 -0.1140  0.0962 -0.6190
    4SAPS  H20R  481   0.022   1.555   8.543 -0.3622  0.1148 -1.2377
    4SAPS  H20S  482   0.140   1.605   8.409  0.8762 -0.3748 -0.2212
    4SAPS  H20T  483   0.051   1.719   8.523 -1.3749 -0.5891 -0.5306
    4SAPS   C33  484   0.819   1.049  10.000  0.3637  0.5347  0.1110
    4SAPS   H3X  485   0.916   1.104  10.009 -0.5617  2.2455  0.1059
    4SAPS   H3Y  486   0.726   1.109   9.992 -1.4830 -2.0243  1.0101
    4SAPS   C34  487   0.810   0.958   9.874 -0.3203  0.8305  0.4680
    4SAPS   H4X  488   0.768   1.007   9.784 -0.2739 -0.1710 -0.1153
    4SAPS   H4Y  489   0.739   0.874   9.892  0.1923 -0.2417 -2.0555
    4SAPS   C35  490   0.938   0.879   9.838 -0.5618 -0.1232 -0.5586
    4SAPS   H5X  491   0.962   0.818   9.927 -0.4294  0.0241 -0.4924
    4SAPS   H5Y  492   1.027   0.946   9.826 -0.6906  0.2443  0.4501
    4SAPS   C36  493   0.909   0.780   9.722 -1.0136 -0.1429 -0.5955
    4SAPS   H6X  494   0.801   0.775   9.698 -0.8432 -0.2213 -1.3735
    4SAPS   H6Y  495   0.956   0.681   9.737 -2.2149 -0.2413  4.4574
    4SAPS   C37  496   0.971   0.843   9.595  0.2684 -0.6498  1.0393
    4SAPS   H7X  497   1.080   0.860   9.608  0.6023 -1.4540 -0.4503
    4SAPS   H7Y  498   0.919   0.939   9.580 -1.7368 -1.8819 -0.4272
    4SAPS   C38  499   0.935   0.762   9.472  0.3446  0.2234  0.0891
    4SAPS   H8X  500   0.825   0.746   9.473  0.1229  1.6364  0.6460
    4SAPS   H8Y  501   0.985   0.663   9.483  1.7414  0.7802 -0.8458
    4SAPS   C39  502   0.962   0.836   9.342  0.2705 -0.2015  0.0378
    4SAPS   H9X  503   1.065   0.877   9.334  0.0890  0.0154 -1.4015
    4SAPS   H9Y  504   0.895   0.924   9.344 -0.1159 -0.5035  1.6253
    4SAPS  C310  505   0.945   0.741   9.230  0.4068  0.1009  0.3552
    4SAPS  H10X  506   0.852   0.683   9.248  0.3042  0.7665  2.1570
    4SAPS  H10Y  507   1.030   0.670   9.224  1.8902  1.8877 -1.3214
    4SAPS  C311  508   0.934   0.821   9.100  0.3462  0.1590 -0.2367
    4SAPS  H11X  509   1.022   0.886   9.085 -1.4744  2.7032 -0.5199
    4SAPS  H11Y  510   0.847   0.889   9.108  1.8481  1.9531  1.5968
    4SAPS  C312  511   0.928   0.734   8.972 -0.5533  1.0700 -0.1243
    4SAPS  H12X  512   1.015   0.665   8.969 -3.1966 -2.5748 -0.1807
    4SAPS  H12Y  513   0.916   0.796   8.880 -2.4906 -0.9880 -1.3600
    4SAPS  C313  514   0.793   0.654   8.967 -0.3240  0.2982 -0.1383
    4SAPS  H13X  515   0.707   0.714   9.004 -0.5613  0.3491 -0.7543
    4SAPS  H13Y  516   0.806   0.566   9.033 -2.1753 -0.9916 -1.3986
    4SAPS  C314  517   0.751   0.582   8.837 -0.1300 -0.8472  0.5996
    4SAPS  H14X  518   0.671   0.514   8.872 -0.3365 -0.8318  0.1629
    4SAPS  H14Y  519   0.826   0.516   8.790  1.2048  2.3087 -2.0872
    4SAPS  C315  520   0.686   0.677   8.731 -0.7058 -0.3914  0.4314
    4SAPS  H15X  521   0.609   0.740   8.780 -1.2801  0.2696 -1.2477
    4SAPS  H15Y  522   0.632   0.623   8.650 -1.2334  0.3951  0.2532
    4SAPS  C316  523   0.781   0.761   8.641 -0.1051 -0.1899  0.5160
    4SAPS  H16X  524   0.818   0.857   8.683 -1.5351  1.6717 -2.1040
    4SAPS  H16Y  525   0.707   0.801   8.567  0.1878 -2.1521 -0.8996
    4SAPS  C317  526   0.883   0.683   8.565 -0.7513  0.5933 -0.8911
    4SAPS  H17X  527   0.836   0.623   8.484  0.4928 -0.4368 -0.8725
    4SAPS  H17Y  528   0.937   0.617   8.636 -0.1456  1.6679 -0.3314
    4SAPS  C318  529   0.987   0.774   8.497 -0.5789 -0.0140 -0.2001
    4SAPS  H18X  530   1.045   0.828   8.574  0.1079  0.0061 -0.7290
    4SAPS  H18Y  531   0.935   0.855   8.442  0.1175  0.9104  0.4781
    4SAPS  H18Z  532   1.066   0.724   8.438  0.3327  1.8489 -0.6110
    5SAPS     N  533   4.528   1.861  10.782 -0.1348 -0.0740  0.4784
    5SAPS   HN1  534   4.553   1.761  10.776 -1.2878 -0.2832 -2.1550
    5SAPS   HN2  535   4.485   1.879  10.689  0.0833 -0.9467  0.2044
    5SAPS   HN3  536   4.599   1.935  10.801 -1.6381  2.0523 -1.6439
    5SAPS   C12  537   4.416   1.867  10.882  0.3253  0.3714 -0.2972
    5SAPS  H12A  538   4.349   1.788  10.854 -2.8961  2.9754 -0.4826
    5SAPS   C13  539   4.460   1.851  11.027 -0.2987  0.8363 -0.1741
    5SAPS  O13A  540   4.587   1.848  11.061  1.0061  0.4255  0.0119
    5SAPS  O13B  541   4.374   1.812  11.110 -0.8034  0.2062  0.1057
    5SAPS   C11  542   4.319   1.994  10.871  0.5382  0.0210 -0.2770
    5SAPS  H11A  543   4.387   2.081  10.889  1.7838 -0.7018 -1.2956
    5SAPS  H11B  544   4.246   1.985  10.954  0.7506  3.3354  0.4040
    5SAPS     P  545   4.153   2.099  10.710  0.4247  0.2571 -0.0889
    5SAPS   O13  546   4.023   2.031  10.722  0.3683  0.4350 -0.4016
    5SAPS   O14  547   4.174   2.214  10.804 -0.2070 -0.0408 -0.0499
    5SAPS   O12  548   4.277   1.998  10.735 -0.2895  0.1945  0.5994
    5SAPS   O11  549   4.167   2.156  10.555  0.7421 -0.5748 -0.4337
    5SAPS    C1  550   4.289   2.139  10.483 -0.2922  0.3835 -0.0062
    5SAPS    HA  551   4.302   2.231  10.421 -1.3392  3.1246  3.5317
    5SAPS    HB  552   4.381   2.135  10.546 -0.0774  2.3095 -0.1310
    5SAPS    C2  553   4.275   2.011  10.395  0.1712 -0.2745  0.0622
    5SAPS    HS  554   4.247   1.932  10.468 -0.8343 -0.5208 -0.5764
    5SAPS   O21  555   4.395   1.973  10.325  0.0186 -0.7828  0.3510
    5SAPS   C21  556   4.493   1.914  10.395  0.0531  0.3079 -0.1268
    5SAPS   O22  557   4.483   1.883  10.516  0.4139  0.3600  0.1298
    5SAPS   C22  558   4.615   1.881  10.305  0.4504  1.1352 -0.0095
    5SAPS   H2R  559   4.583   1.873  10.199 -1.4602 -1.0727  0.6458
    5SAPS   H2S  560   4.693   1.957  10.323  1.1365 -0.1591  2.9972
    5SAPS    C3  561   4.159   2.033  10.288 -0.1743  0.1769  0.3001
    5SAPS    HX  562   4.203   2.099  10.212  0.0185  1.3603  1.4096
    5SAPS    HY  563   4.086   2.087  10.352 -1.0852  1.7515 -1.9628
    5SAPS   O31  564   4.115   1.901  10.239  0.1996 -0.0161 -0.7622
    5SAPS   C31  565   4.026   1.850  10.328  0.0017 -0.0476 -0.0394
    5SAPS   O32  566   3.982   1.909  10.429 -0.1716  1.0572  0.2376
    5SAPS   C32  567   3.995   1.706  10.292 -0.6849 -0.2928  0.1670
    5SAPS   H2X  568   4.007   1.636  10.378 -1.3706 -2.2567 -1.2534
    5SAPS   H2Y  569   4.069   1.676  10.215  1.1619  0.6391  1.4839
    5SAPS   C23  570   4.676   1.741  10.355 -0.2388 -0.5580 -0.4297
    5SAPS   H3R  571   4.679   1.748  10.466  0.1847  1.1608 -0.5188
    5SAPS   H3S  572   4.776   1.759  10.310 -0.5223  0.5519 -0.6467
    5SAPS   C24  573   4.604   1.613  10.311 -0.0837 -0.6037 -0.3423
    5SAPS   H4R  574   4.646   1.537  10.381 -1.1835 -0.0553  0.9709
    5SAPS   H4S  575   4.641   1.601  10.207  0.7080  2.5408 -0.5400
    5SAPS   C25  576   4.452   1.593  10.320  0.2260 -0.0476  0.7724
    5SAPS   H5R  577   4.406   1.609  10.418 -0.8802  1.3390  0.0778
    5SAPS   C26  578   4.359   1.562  10.224 -0.1001 -0.1732  0.4457
    5SAPS   H6R  579   4.252   1.557  10.249 -1.2843  1.3736 -3.4902
    5SAPS   C27  580   4.387   1.547  10.076  0.3835 -0.3648  0.0940
    5SAPS   H7R  581   4.360   1.447  10.034  0.2657 -0.6700  0.8714
    5SAPS   H7S  582   4.496   1.553  10.060  0.0875  0.8644 -1.6775
    5SAPS   C28  583   4.299   1.657  10.015  0.3230  0.3645 -0.2275
    5SAPS   H8R  584   4.192   1.654  10.043  0.3477 -2.8481 -0.1177
    5SAPS   C29  585   4.341   1.745   9.932  0.0728  0.3230  0.8824
    5SAPS   H9R  586   4.276   1.827   9.900 -0.3263 -0.3613 -0.1085
    5SAPS  C210  587   4.478   1.743   9.866 -0.7569 -0.0396  0.1940
    5SAPS  H10R  588   4.473   1.682   9.773 -1.0640 -1.1748  0.9402
    5SAPS  H10S  589   4.556   1.690   9.924  0.3948 -0.5443 -1.7174
    5SAPS  C211  590   4.533   1.887   9.851 -0.0396  0.2479 -0.5501
    5SAPS  H11R  591   4.536   1.943   9.945 -2.6691  1.2614 -0.9859
    5SAPS  C212  592   4.563   1.954   9.741  0.0092  0.0004 -0.2301
    5SAPS  H12R  593   4.600   2.058   9.750 -2.1183  0.6307  2.6140
    5SAPS  C213  594   4.552   1.895   9.598 -0.4605  0.3135  0.0018
    5SAPS  H13R  595   4.587   1.790   9.589 -0.9044  0.1142  0.5791
    5SAPS  H13S  596   4.627   1.951   9.537  1.9738 -1.9016  0.7641
    5SAPS  C214  597   4.410   1.905   9.549 -0.1817 -0.2320  0.3273
    5SAPS  H14R  598   4.340   1.836   9.597  0.3578 -1.5585 -0.7419
    5SAPS  C215  599   4.371   1.991   9.455  0.0518 -0.1292  0.4432
    5SAPS  H15R  600   4.263   2.006   9.448  0.2673  2.8156  1.9840
    5SAPS  C216  601   4.451   2.097   9.376  0.4246 -0.1662 -0.9527
    5SAPS  H16R  602   4.547   2.115   9.429 -0.5118  1.4900  0.2739
    5SAPS  H16S  603   4.393   2.191   9.378  2.2586  1.0393 -2.2039
    5SAPS  C217  604   4.477   2.065   9.226  0.7357  0.0229  0.9118
    5SAPS  H17R  605   4.535   1.973   9.208 -1.3383 -1.5064  1.5718
    5SAPS  H17S  606   4.531   2.145   9.171  1.6234 -2.2175 -1.6947
    5SAPS  C218  607   4.340   2.027   9.153  0.6851 -0.0575  0.3558
    5SAPS  H18R  608   4.358   1.984   9.052 -0.3311 -0.5250  0.3680
    5SAPS  H18S  609   4.295   1.948   9.217  1.6637  1.5154  3.1558
    5SAPS  C219  610   4.233   2.145   9.153 -0.4468  0.2847 -0.0459
    5SAPS  H19R  611   4.288   2.233   9.114 -1.9902  0.6218 -1.5579
    5SAPS  H19S  612   4.195   2.160   9.257 -2.4767  0.4503 -0.7627
    5SAPS  C220  613   4.110   2.120   9.071  0.1832  0.1762  0.7755
    5SAPS  H20R  614   4.136   2.125   8.963  0.5413 -0.3793  0.8322
    5SAPS  H20S  615   4.038   2.199   9.099  0.4082  1.0677 -0.9758
    5SAPS  H20T  616   4.065   2.019   9.081  1.3218 -0.3148  1.0929
    5SAPS   C33  617   3.851   1.692  10.243 -0.5214 -0.0255  0.1269
    5SAPS   H3X  618   3.777   1.736  10.313 -0.7363  1.0135 -0.7204
    5SAPS   H3Y  619   3.823   1.589  10.212  3.0603 -0.6698 -1.5435
    5SAPS   C34  620   3.841   1.778  10.115  0.1485  0.4046 -0.2293
    5SAPS   H4X  621   3.882   1.882  10.120  0.5192  0.2319  0.5231
    5SAPS   H4Y  622   3.731   1.786  10.109 -0.2320 -3.1931  0.0224
    5SAPS   C35  623   3.901   1.718   9.991  0.3631  0.8410 -0.0659
    5SAPS   H5X  624   3.939   1.615  10.006 -0.9019  0.5327  1.2863
    5SAPS   H5Y  625   3.990   1.775   9.958  0.2345  0.1798 -1.5967
    5SAPS   C36  626   3.806   1.715   9.873 -0.5723  0.2514  0.4259
    5SAPS   H6X  627   3.754   1.811   9.851  0.0413  0.0385 -2.2546
    5SAPS   H6Y  628   3.731   1.637   9.899  0.5149 -0.6455  0.9624
    5SAPS   C37  629   3.872   1.663   9.740  1.0045 -0.0039 -0.1002
    5SAPS   H7X  630   3.902   1.559   9.763 -1.9767 -0.7898  0.7704
    5SAPS   H7Y  631   3.958   1.723   9.703  1.0862 -0.5822 -0.8617
    5SAPS   C38  632   3.761   1.657   9.633 -0.0252 -0.1591 -0.3336
    5SAPS   H8X  633   3.742   1.762   9.603 -0.1852 -0.4752 -1.3946
    5SAPS   H8Y  634   3.671   1.606   9.673  0.3097 -1.4032 -1.1100
    5SAPS   C39  635   3.818   1.595   9.508  0.0506  0.3459  0.1975
    5SAPS   H9X  636   3.732   1.558   9.448 -0.9491  2.1451  0.4724
    5SAPS   H9Y  637   3.869   1.497   9.526  0.7110  0.2115 -2.1081
    5SAPS  C310  638   3.895   1.684   9.414 -0.5736 -0.6657 -0.5024
    5SAPS  H10X  639   3.994   1.718   9.451 -0.3580 -2.0065  0.2221
    5SAPS  H10Y  640   3.824   1.766   9.388 -1.4724 -1.7631 -1.6039
    5SAPS  C311  641   3.908   1.619   9.274  0.0206  1.2949  0.2556
    5SAPS  H11X  642   3.806   1.596   9.236  0.0186 -0.5731  1.2444
    5SAPS  H11Y  643   3.966   1.525   9.272  1.1375  1.9583  0.5385
    5SAPS  C312  644   3.986   1.709   9.185 -0.8469  0.3587  0.4846
    5SAPS  H12X  645   4.087   1.712   9.233  0.2791 -0.7740 -1.6397
    5SAPS  H12Y  646   3.939   1.808   9.172 -0.7914  0.1545 -1.7549
    5SAPS  C313  647   3.983   1.650   9.030 -0.1783 -0.3261 -0.0446
    5SAPS  H13X  648   3.883   1.614   8.995 -0.5167  0.9393 -0.4144
    5SAPS  H13Y  649   4.051   1.563   9.015 -0.9505 -0.6023 -2.4962
    5SAPS  C314  650   4.016   1.758   8.927 -0.0369 -0.0908 -0.6009
    5SAPS  H14X  651   4.101   1.815   8.970  0.2847 -1.1774  0.2563
    5SAPS  H14Y  652   3.930   1.824   8.902  0.0325  0.1700 -0.1555
    5SAPS  C315  653   4.078   1.689   8.799 -0.2874 -0.6672  0.2347
    5SAPS  H15X  654   4.008   1.616   8.752 -0.7178 -0.4945  0.6069
    5SAPS  H15Y  655   4.174   1.643   8.830 -0.0230  0.6540  1.4985
    5SAPS  C316  656   4.116   1.805   8.705 -0.4423  0.1637 -0.3955
    5SAPS  H16X  657   4.165   1.884   8.765 -2.2623  0.8500  0.2268
    5SAPS  H16Y  658   4.016   1.839   8.672 -1.1711  3.0590  4.0240
    5SAPS  C317  659   4.174   1.777   8.568  0.4684 -0.4840  0.0766
    5SAPS  H17X  660   4.175   1.874   8.515 -0.4493  1.1805  2.8847
    5SAPS  H17Y  661   4.117   1.697   8.516  0.2835  1.9995 -3.9607
    5SAPS  C318  662   4.319   1.733   8.580 -0.6718  0.7196  0.3996
    5SAPS  H18X  663   4.351   1.714   8.475 -3.2688 -0.9835 -0.2045
    5SAPS  H18Y  664   4.333   1.636   8.632  0.5028  0.3715 -0.5319
    5SAPS  H18Z  665   4.386   1.810   8.623 -0.0123  1.8788 -2.4865
    6SAPS     N  666   3.611   0.634  10.933 -0.0985  0.6787  0.1831
    6SAPS   HN1  667   3.555   0.660  10.849 -0.7939 -0.5696  0.2273
    6SAPS   HN2  668   3.578   0.690  11.014  0.8477 -0.0959  1.1398
    6SAPS   HN3  669   3.711   0.653  10.915 -0.1377  1.5422  0.8004
    6SAPS   C12  670   3.593   0.490  10.964 -0.3783 -0.0974 -0.2837
    6SAPS  H12A  671   3.653   0.442  10.887  1.1332 -0.7037  1.2101
    6SAPS   C13  672   3.660   0.442  11.091 -0.4299 -0.8848 -0.1186
    6SAPS  O13A  673   3.740   0.519  11.154 -0.0111 -0.5268 -0.0002
    6SAPS  O13B  674   3.658   0.322  11.122 -0.3960 -0.1800 -0.0254
    6SAPS   C11  675   3.443   0.440  10.952  0.3246 -0.5530 -0.5827
    6SAPS  H11A  676   3.384   0.494  11.029 -1.0760 -1.3880 -1.0309
    6SAPS  H11B  677   3.439   0.332  10.979  0.4598 -0.9413 -2.0804
    6SAPS     P  678   3.316   0.332  10.750  0.2951  0.2435  0.3202
    6SAPS   O13  679   3.420   0.226  10.723  0.0710 -0.2550 -0.4184
    6SAPS   O14  680   3.202   0.288  10.831  0.2350 -0.2438 -0.3399
    6SAPS   O12  681   3.379   0.459  10.827  0.0713  0.4081 -0.0722
    6SAPS   O11  682   3.258   0.389  10.627 -0.0998  0.1266  0.7729
    6SAPS    C1  683   3.278   0.328  10.495 -0.2284  0.0267 -0.3827
    6SAPS    HA  684   3.253   0.392  10.407  1.1040  0.1295 -0.7192
    6SAPS    HB  685   3.385   0.295  10.490 -0.6230 -1.4220  0.2521
    6SAPS    C2  686   3.198   0.196  10.479 -0.1701  0.0809 -0.3237
    6SAPS    HS  687   3.238   0.124  10.554  0.0841  0.3475 -0.2015
    6SAPS   O21  688   3.198   0.149  10.344  0.1804 -0.2100  0.2587
    6SAPS   C21  689   3.313   0.089  10.315  0.2239 -0.5642  0.0040
    6SAPS   O22  690   3.405   0.072  10.388 -0.3076 -0.3417 -0.1868
    6SAPS   C22  691   3.325   0.069  10.167  0.1598 -0.0466  0.3014
    6SAPS   H2R  692   3.231   0.028  10.124  0.5248  2.3268 -3.2000
    6SAPS   H2S  693   3.327   0.175  10.133  1.0105 -0.1350  0.0508
    6SAPS    C3  694   3.045   0.230  10.510  0.5213 -0.7295 -0.4890
    6SAPS    HX  695   3.010   0.325  10.463  1.3806 -0.5105 -0.6967
    6SAPS    HY  696   3.041   0.233  10.621 -1.7601 -2.1724 -0.4704
    6SAPS   O31  697   2.966   0.112  10.480 -0.1063  0.2138 -0.3240
    6SAPS   C31  698   2.896   0.129  10.366  0.6800 -0.0352  0.0005
    6SAPS   O32  699   2.885   0.230  10.306 -0.7782  0.3815  0.1538
    6SAPS   C32  700   2.815  -0.007  10.339  0.5508 -0.2617  0.3277
    6SAPS   H2X  701   2.754  -0.019  10.430 -0.2779 -0.9262 -0.2998
    6SAPS   H2Y  702   2.896  -0.084  10.330  0.3817 -0.4318  0.2501
    6SAPS   C23  703   3.460   0.000  10.119  0.2726 -0.0379 -0.0024
    6SAPS   H3R  704   3.430  -0.104  10.096  2.3244 -0.7009  0.1277
    6SAPS   H3S  705   3.545  -0.001  10.190  0.2016 -0.0640  0.0832
    6SAPS   C24  706   3.501   0.068   9.986  0.1996  0.2266 -0.6821
    6SAPS   H4R  707   3.545   0.167  10.009 -0.7332  0.6481 -0.6670
    6SAPS   H4S  708   3.399   0.087   9.945  0.5408  0.6510 -1.3577
    6SAPS   C25  709   3.593  -0.022   9.906 -0.1048  0.1529 -0.6311
    6SAPS   H5R  710   3.659  -0.090   9.962  1.3826 -0.0104 -2.4745
    6SAPS   C26  711   3.596  -0.028   9.775  0.6535  0.5977  0.0460
    6SAPS   H6R  712   3.669  -0.095   9.727  0.5052  0.0168  0.6183
    6SAPS   C27  713   3.517   0.055   9.668  0.0393  0.5119  0.1740
    6SAPS   H7R  714   3.427   0.109   9.706 -0.7501  0.0628 -0.9781
    6SAPS   H7S  715   3.462  -0.029   9.620 -0.8265  1.1897 -0.0545
    6SAPS   C28  716   3.591   0.135   9.574  0.4882  0.4672  0.1537
    6SAPS   H8R  717   3.566   0.242   9.580 -1.0572  0.1448 -0.0506
    6SAPS   C29  718   3.657   0.073   9.474 -0.4295 -0.4240  0.5212
    6SAPS   H9R  719   3.694   0.137   9.392  0.5675 -1.6902 -0.0538
    6SAPS  C210  720   3.668  -0.076   9.450 -1.0154  0.0532  0.0416
    6SAPS  H10R  721   3.564  -0.114   9.441 -0.8850 -0.6492  1.2912
    6SAPS  H10S  722   3.713  -0.125   9.539 -2.0779  0.8123  1.0255
    6SAPS  C211  723   3.753  -0.100   9.320  0.1508  0.5434 -0.6501
    6SAPS  H11R  724   3.861  -0.099   9.337  0.3275  0.1663 -1.6726
    6SAPS  C212  725   3.703  -0.108   9.198  0.6797  0.6910  1.1309
    6SAPS  H12R  726   3.774  -0.124   9.115 -1.6449  1.6826 -1.1992
    6SAPS  C213  727   3.559  -0.087   9.163  0.5713 -0.9837 -0.1917
    6SAPS  H13R  728   3.499  -0.046   9.247  0.3854 -1.1889 -0.2254
    6SAPS  H13S  729   3.516  -0.188   9.150 -0.8857 -0.0976 -3.1045
    6SAPS  C214  730   3.527  -0.007   9.043 -0.2145 -0.2884  0.5167
    6SAPS  H14R  731   3.523  -0.072   8.954 -0.2129  0.0037  0.3019
    6SAPS  C215  732   3.513   0.123   9.033  0.6491 -0.2480  0.0389
    6SAPS  H15R  733   3.487   0.156   8.932  0.0901  0.2589  0.3451
    6SAPS  C216  734   3.526   0.225   9.145  0.1736  0.1208 -0.2052
    6SAPS  H16R  735   3.560   0.180   9.241  1.8858  0.6945 -0.5103
    6SAPS  H16S  736   3.421   0.252   9.169 -0.2032 -1.9875  0.8288
    6SAPS  C217  737   3.600   0.349   9.117 -0.0787  1.3757  0.4088
    6SAPS  H17R  738   3.553   0.403   9.032  0.1709  0.7842 -0.1152
    6SAPS  H17S  739   3.705   0.329   9.085  0.0134  0.6880  1.1177
    6SAPS  C218  740   3.609   0.430   9.248  0.4738 -0.9457 -0.6008
    6SAPS  H18R  741   3.658   0.528   9.232  1.3839 -1.5855 -1.8407
    6SAPS  H18S  742   3.673   0.384   9.326  0.8533 -0.1212 -0.4246
    6SAPS  C219  743   3.479   0.449   9.326  0.4065 -0.5529 -0.0715
    6SAPS  H19R  744   3.447   0.346   9.351 -0.4262 -0.8052 -1.9987
    6SAPS  H19S  745   3.404   0.499   9.261  0.9811  0.7450  0.2296
    6SAPS  C220  746   3.485   0.538   9.451 -0.3696  0.6162  0.0448
    6SAPS  H20R  747   3.386   0.558   9.497 -0.8054  0.1737 -0.6770
    6SAPS  H20S  748   3.529   0.638   9.437  0.1752  1.0428  3.8281
    6SAPS  H20T  749   3.549   0.491   9.529 -0.7561 -0.7889 -0.4382
    6SAPS   C33  750   2.719   0.004  10.221  0.3962 -0.6668  0.0022
    6SAPS   H3X  751   2.660   0.098  10.228  0.0458 -0.7953 -1.0266
    6SAPS   H3Y  752   2.637  -0.072  10.218 -0.2638  0.0518 -2.6266
    6SAPS   C34  753   2.782   0.004  10.081 -0.3576  0.6488  0.2064
    6SAPS   H4X  754   2.822  -0.098  10.063  0.9188  0.5935  2.8627
    6SAPS   H4Y  755   2.870   0.071  10.073  1.3143 -1.5344 -0.8609
    6SAPS   C35  756   2.681   0.050   9.971  0.2629 -1.1587 -0.7845
    6SAPS   H5X  757   2.657   0.157   9.988  2.1964 -1.0837  2.4191
    6SAPS   H5Y  758   2.586  -0.005   9.985  0.0163 -0.5343  0.0659
    6SAPS   C36  759   2.746   0.047   9.827  0.2979 -0.4228  0.1458
    6SAPS   H6X  760   2.764  -0.059   9.800  1.8106  0.1320 -1.1330
    6SAPS   H6Y  761   2.841   0.103   9.829 -0.0123  0.2259  3.3352
    6SAPS   C37  762   2.661   0.110   9.717  0.4345  0.3147  0.0985
    6SAPS   H7X  763   2.558   0.075   9.741  0.9498 -0.9304  0.5882
    6SAPS   H7Y  764   2.683   0.074   9.615  1.7328  0.8518  0.1737
    6SAPS   C38  765   2.665   0.270   9.725 -0.9061  0.1644 -0.1274
    6SAPS   H8X  766   2.767   0.314   9.730 -0.5559 -0.7721  1.6953
    6SAPS   H8Y  767   2.625   0.299   9.825  1.0286 -0.0249  0.7425
    6SAPS   C39  768   2.577   0.335   9.620  0.0617 -0.1219  0.0492
    6SAPS   H9X  769   2.565   0.444   9.638  0.6014 -0.2556  1.2803
    6SAPS   H9Y  770   2.479   0.285   9.635 -0.1488  0.2339 -0.1249
    6SAPS  C310  771   2.633   0.324   9.475  0.3209  0.0491 -0.3698
    6SAPS  H10X  772   2.603   0.225   9.434 -2.3121  1.3324 -1.8075
    6SAPS  H10Y  773   2.744   0.332   9.473  0.2665  0.9121 -0.3263
    6SAPS  C311  774   2.580   0.430   9.384  0.3318 -0.5840  0.6470
    6SAPS  H11X  775   2.604   0.529   9.430 -1.0226 -0.5845  1.4094
    6SAPS  H11Y  776   2.470   0.432   9.377  0.3550  3.0382 -1.1134
    6SAPS  C312  777   2.647   0.448   9.247  0.4142 -0.0825 -0.4456
    6SAPS  H12X  778   2.758   0.449   9.252  0.4145 -1.3022  0.1042
    6SAPS  H12Y  779   2.605   0.535   9.192  0.2740 -0.0740 -0.3262
    6SAPS  C313  780   2.623   0.322   9.167 -0.1937  0.6889 -0.8070
    6SAPS  H13X  781   2.515   0.300   9.163 -0.2128  0.3541  0.7311
    6SAPS  H13Y  782   2.662   0.234   9.223 -1.1447  1.6589  1.5287
    6SAPS  C314  783   2.681   0.319   9.029  0.4606  0.4204  0.1630
    6SAPS  H14X  784   2.791   0.305   9.037  0.4150  0.6778  1.5276
    6SAPS  H14Y  785   2.662   0.415   8.976  1.1237 -0.1274 -1.0910
    6SAPS  C315  786   2.624   0.205   8.936 -0.9570 -0.8266 -0.7571
    6SAPS  H15X  787   2.516   0.214   8.913 -0.7106 -0.5471 -1.8611
    6SAPS  H15Y  788   2.643   0.108   8.988  0.1246  0.4667  1.4223
    6SAPS  C316  789   2.702   0.202   8.808 -0.0407  0.3573  0.4060
    6SAPS  H16X  790   2.809   0.181   8.830  0.2942  1.6777  0.1670
    6SAPS  H16Y  791   2.704   0.301   8.757 -0.0685  0.3081  0.3073
    6SAPS  C317  792   2.634   0.110   8.699 -0.3304  0.3606  0.4458
    6SAPS  H17X  793   2.673   0.137   8.598 -1.8254  1.1673  0.0411
    6SAPS  H17Y  794   2.529   0.146   8.697 -0.1234  0.9490 -0.0909
    6SAPS  C318  795   2.650  -0.040   8.719  0.9963 -0.0944 -0.3400
    6SAPS  H18X  796   2.634  -0.059   8.827 -0.7344  0.2516 -0.5181
    6SAPS  H18Y  797   2.752  -0.073   8.689  0.8184 -1.3787  0.4197
    6SAPS  H18Z  798   2.571  -0.088   8.658  1.0516  0.6535 -1.0194
    7SAPS     N  799   6.050   3.432  10.798  1.0665 -0.8523 -0.0362
    7SAPS   HN1  800   5.995   3.467  10.879 -0.4434 -0.8740 -1.0037
    7SAPS   HN2  801   6.060   3.522  10.747 -0.3011 -0.0033  1.1086
    7SAPS   HN3  802   5.992   3.356  10.758 -0.8483 -1.0925  2.8930
    7SAPS   C12  803   6.179   3.380  10.858  0.2584 -0.6819 -0.4619
    7SAPS  H12A  804   6.231   3.460  10.909 -2.0202  1.4415 -1.2500
    7SAPS   C13  805   6.161   3.251  10.951 -0.2170  0.1032 -1.3078
    7SAPS  O13A  806   6.261   3.223  11.023 -0.6582  0.1646  0.5477
    7SAPS  O13B  807   6.040   3.214  10.974  0.1224 -0.1607  0.6388
    7SAPS   C11  808   6.276   3.336  10.747 -0.1733 -0.1915  0.5872
    7SAPS  H11A  809   6.227   3.257  10.686  0.7961  0.5921 -1.2953
    7SAPS  H11B  810   6.370   3.288  10.782  1.4278  1.2130 -1.5745
    7SAPS     P  811   6.379   3.410  10.521  0.6913 -0.5096  0.4375
    7SAPS   O13  812   6.408   3.534  10.446 -0.3629 -0.3289 -0.0424
    7SAPS   O14  813   6.492   3.321  10.545 -0.0441  0.3499  0.5202
    7SAPS   O12  814   6.305   3.447  10.660 -0.2936  0.4179  0.0393
    7SAPS   O11  815   6.255   3.328  10.453 -0.5474  0.2987 -0.4423
    7SAPS    C1  816   6.128   3.384  10.436 -0.4802 -0.0028  0.1320
    7SAPS    HA  817   6.057   3.320  10.492  1.5050 -0.8845  1.7526
    7SAPS    HB  818   6.124   3.487  10.479  0.8372 -0.9295  2.6244
    7SAPS    C2  819   6.078   3.383  10.286 -0.7115  0.6391  0.3172
    7SAPS    HS  820   5.973   3.420  10.288 -1.4614 -1.3606  0.2650
    7SAPS   O21  821   6.078   3.246  10.229  0.9961 -0.2418 -0.5572
    7SAPS   C21  822   5.984   3.161  10.285 -0.1843  0.0204 -0.2479
    7SAPS   O22  823   5.891   3.197  10.356 -0.0705 -0.2427  0.5616
    7SAPS   C22  824   6.011   3.018  10.241  0.1326  0.5322 -0.3440
    7SAPS   H2R  825   6.117   3.000  10.266  0.4685 -0.2967 -2.2003
    7SAPS   H2S  826   5.949   2.952  10.305  0.7445  1.8046  1.6670
    7SAPS    C3  827   6.173   3.463  10.201 -0.3434  0.0958  0.1521
    7SAPS    HX  828   6.267   3.403  10.200  0.2814  1.0078  1.3383
    7SAPS    HY  829   6.202   3.559  10.249  2.3519  0.1982 -1.4277
    7SAPS   O31  830   6.118   3.485  10.076 -0.1096 -0.1687  0.5258
    7SAPS   C31  831   6.139   3.613  10.014  0.5239 -0.4345 -0.4649
    7SAPS   O32  832   6.197   3.701  10.071 -0.0353 -0.2881  0.4572
    7SAPS   C32  833   6.075   3.608   9.877 -0.5357 -0.6271  0.0683
    7SAPS   H2X  834   5.982   3.548   9.883 -0.3540 -0.7840  1.7650
    7SAPS   H2Y  835   6.136   3.552   9.803 -0.8896  1.1406 -1.6584
    7SAPS   C23  836   5.986   2.989  10.090 -0.7875 -0.0571 -0.0267
    7SAPS   H3R  837   6.053   3.047  10.023  0.9725 -1.6997  0.1927
    7SAPS   H3S  838   5.884   3.025  10.064 -0.1732  0.7636 -1.4159
    7SAPS   C24  839   6.017   2.845  10.053 -0.1077  0.5157  0.6716
    7SAPS   H4R  840   6.111   2.807  10.097 -0.4420 -0.6490  0.4185
    7SAPS   H4S  841   6.023   2.832   9.942 -1.6627 -1.5490  0.7719
    7SAPS   C25  842   5.903   2.750  10.096  0.0157 -0.7493  0.7278
    7SAPS   H5R  843   5.862   2.781  10.193 -0.0086  0.1157  0.4456
    7SAPS   C26  844   5.847   2.652  10.024  0.8981 -0.5864 -0.2841
    7SAPS   H6R  845   5.768   2.591  10.070  0.2638 -0.5974 -1.3522
    7SAPS   C27  846   5.893   2.610   9.889  0.3161  0.0273 -0.2730
    7SAPS   H7R  847   5.973   2.534   9.898 -2.5159 -3.0861  0.9175
    7SAPS   H7S  848   5.940   2.699   9.842 -0.9287  1.4331  1.0609
    7SAPS   C28  849   5.781   2.568   9.802 -0.0715 -0.3960  1.2658
    7SAPS   H8R  850   5.679   2.577   9.844 -0.7101  0.7334 -0.3916
    7SAPS   C29  851   5.800   2.556   9.662 -0.6183 -0.6091 -0.1630
    7SAPS   H9R  852   5.717   2.523   9.598 -0.5830  1.7133 -1.5086
    7SAPS  C210  853   5.934   2.572   9.596  0.0867  0.1090  0.4130
    7SAPS  H10R  854   5.951   2.478   9.539  1.0895  0.7744 -0.4249
    7SAPS  H10S  855   6.021   2.567   9.664  0.9988 -0.6356 -0.7720
    7SAPS  C211  856   5.946   2.699   9.515  0.0853 -0.4525  0.0484
    7SAPS  H11R  857   5.874   2.780   9.537 -0.1629 -0.3406 -1.0949
    7SAPS  C212  858   6.051   2.732   9.448 -0.1484 -0.6905  0.2384
    7SAPS  H12R  859   6.046   2.828   9.395 -2.3594 -1.0182 -0.2290
    7SAPS  C213  860   6.176   2.654   9.426  0.8152  0.0296  0.4614
    7SAPS  H13R  861   6.157   2.549   9.396 -0.2556 -0.6673  3.2790
    7SAPS  H13S  862   6.213   2.652   9.531 -0.4065  0.5440  0.9260
    7SAPS  C214  863   6.279   2.718   9.334  0.2843 -0.0725  0.7690
    7SAPS  H14R  864   6.293   2.827   9.341 -0.9850  0.0297  5.4321
    7SAPS  C215  865   6.366   2.659   9.248  0.8450  0.8845  0.1226
    7SAPS  H15R  866   6.422   2.724   9.180  0.0295  2.4987  0.9243
    7SAPS  C216  867   6.372   2.514   9.223 -0.3447  0.2476  0.5374
    7SAPS  H16R  868   6.340   2.449   9.307 -0.5298  2.2152  2.0565
    7SAPS  H16S  869   6.478   2.481   9.209 -1.3075 -2.2224 -1.8045
    7SAPS  C217  870   6.305   2.469   9.091  1.3449 -0.3355 -0.1327
    7SAPS  H17R  871   6.197   2.495   9.093  1.4959  0.2850  2.4805
    7SAPS  H17S  872   6.309   2.358   9.094  0.1589 -0.4414 -1.3201
    7SAPS  C218  873   6.370   2.515   8.966  0.1375 -0.6592 -0.4794
    7SAPS  H18R  874   6.479   2.494   8.972  0.0915 -0.5629  3.5081
    7SAPS  H18S  875   6.359   2.624   8.952  1.5519 -0.6200 -1.5549
    7SAPS  C219  876   6.329   2.460   8.828  0.5874  0.5339  0.4957
    7SAPS  H19R  877   6.388   2.366   8.817 -2.2107 -1.1323 -1.7482
    7SAPS  H19S  878   6.353   2.532   8.747 -0.6623  0.8009  0.3461
    7SAPS  C220  879   6.180   2.426   8.816  0.1043 -0.4278 -0.3458
    7SAPS  H20R  880   6.152   2.398   8.712 -0.2786 -0.7553 -0.1585
    7SAPS  H20S  881   6.117   2.512   8.847  0.3091 -1.0661  2.0663
    7SAPS  H20T  882   6.155   2.342   8.885 -2.2410 -0.0131 -0.6104
    7SAPS   C33  883   6.061   3.753   9.821  0.1942 -0.0368  0.3618
    7SAPS   H3X  884   6.166   3.790   9.812 -0.0858  0.2212 -2.9545
    7SAPS   H3Y  885   5.998   3.807   9.895 -0.5548  0.8190 -0.8687
    7SAPS   C34  886   6.002   3.758   9.680 -0.3882  0.2354 -0.6097
    7SAPS   H4X  887   6.020   3.856   9.631 -2.0479  1.5769  1.2872
    7SAPS   H4Y  888   5.894   3.735   9.690 -0.1938 -0.5213 -0.1880
    7SAPS   C35  889   6.057   3.645   9.582  0.1552  0.0078 -0.4779
    7SAPS   H5X  890   6.018   3.546   9.612  0.3822  0.1065  0.1579
    7SAPS   H5Y  891   6.168   3.640   9.589  0.1348  1.1883  1.3878
    7SAPS   C36  892   6.008   3.673   9.440  0.6118  0.2280 -0.2759
    7SAPS   H6X  893   5.899   3.693   9.435  0.5378 -0.4584 -2.2096
    7SAPS   H6Y  894   6.036   3.591   9.370 -0.3474 -1.8463  1.6477
    7SAPS   C37  895   6.082   3.793   9.384  0.5376 -0.2566  0.4339
    7SAPS   H7X  896   6.189   3.765   9.393  0.4165 -0.3740  1.7499
    7SAPS   H7Y  897   6.070   3.892   9.432  0.3676  0.2060 -0.5361
    7SAPS   C38  898   6.049   3.816   9.235 -0.7577  0.0665 -0.0401
    7SAPS   H8X  899   6.062   3.718   9.183  3.7618  0.6839 -0.4972
    7SAPS   H8Y  900   6.123   3.887   9.192 -0.6487 -0.6624 -1.0976
    7SAPS   C39  901   5.906   3.862   9.211  0.3939 -0.1145  1.4170
    7SAPS   H9X  902   5.880   3.941   9.285 -2.3356  0.2695  0.1685
    7SAPS   H9Y  903   5.830   3.782   9.224 -0.6143  0.5430 -0.1458
    7SAPS  C310  904   5.898   3.912   9.062 -0.4805 -0.3013  0.3997
    7SAPS  H10X  905   5.910   3.819   9.003 -1.0774  0.3116 -0.7184
    7SAPS  H10Y  906   5.985   3.975   9.037  0.5790 -1.0861  1.9474
    7SAPS  C311  907   5.760   3.977   9.038 -0.8669  0.4543  0.3552
    7SAPS  H11X  908   5.745   4.059   9.111  1.5040  1.6644 -0.4264
    7SAPS  H11Y  909   5.682   3.899   9.052  0.3875 -0.9365 -0.1342
    7SAPS  C312  910   5.743   4.033   8.897 -0.3341 -0.3294 -0.0912
    7SAPS  H12X  911   5.747   3.954   8.819  0.6399  1.4792 -2.0112
    7SAPS  H12Y  912   5.828   4.101   8.875  0.6391 -0.6199  2.4496
    7SAPS  C313  913   5.619   4.119   8.890  0.4573  0.6211  0.7129
    7SAPS  H13X  914   5.607   4.203   8.960  1.3921  0.0132  1.6449
    7SAPS  H13Y  915   5.543   4.043   8.918  1.1509 -0.1217  0.6243
    7SAPS  C314  916   5.596   4.167   8.745 -0.6274 -0.3196 -0.1929
    7SAPS  H14X  917   5.588   4.077   8.680  1.1054 -1.2534  0.8172
    7SAPS  H14Y  918   5.679   4.231   8.707  0.6685 -0.3912  2.3275
    7SAPS  C315  919   5.475   4.254   8.753  0.1651 -0.4868  0.0303
    7SAPS  H15X  920   5.476   4.331   8.834 -0.0172  0.8797 -1.2330
    7SAPS  H15Y  921   5.389   4.184   8.760 -0.5722  0.1943 -1.7002
    7SAPS  C316  922   5.438   4.330   8.626 -0.6008  0.0967 -0.2383
    7SAPS  H16X  923   5.465   4.271   8.537  2.7178  0.2997  0.5004
    7SAPS  H16Y  924   5.505   4.419   8.628  3.0271 -2.4144 -0.2707
    7SAPS  C317  925   5.293   4.381   8.618 -0.3275  0.1586 -0.2212
    7SAPS  H17X  926   5.273   4.448   8.704 -2.8316 -0.6371 -0.1176
    7SAPS  H17Y  927   5.231   4.289   8.621  2.2143 -1.6505  1.5785
    7SAPS  C318  928   5.267   4.456   8.493 -0.2733  0.1050  0.2428
    7SAPS  H18X  929   5.304   4.412   8.398 -0.7619  0.5929 -0.1824
    7SAPS  H18Y  930   5.327   4.549   8.499 -0.6686  0.3980 -0.3083
    7SAPS  H18Z  931   5.160   4.486   8.486  0.4831  2.8625 -0.6042
    8SAPS     N  932   4.066   4.564  11.312 -0.4004 -0.0024 -0.2200
    8SAPS   HN1  933   3.995   4.561  11.236 -1.1356 -1.9622  0.5023
    8SAPS   HN2  934   4.022   4.538  11.403 -1.7097 -0.0027 -0.8243
    8SAPS   HN3  935   4.096   4.663  11.322 -1.1702  0.4344 -1.8865
    8SAPS   C12  936   4.177   4.473  11.267  0.7981  0.0391  0.3442
    8SAPS  H12A  937   4.260   4.504  11.328  1.2259  0.2306 -0.3153
    8SAPS   C13  938   4.156   4.325  11.303 -0.2593 -0.2092 -0.1515
    8SAPS  O13A  939   4.042   4.270  11.317  0.1836 -0.5620  0.2523
    8SAPS  O13B  940   4.254   4.247  11.284  0.1214  0.4310 -0.2245
    8SAPS   C11  941   4.194   4.501  11.106 -0.6147 -0.2344 -0.3944
    8SAPS  H11A  942   4.101   4.464  11.058 -1.5463  2.6684 -1.0275
    8SAPS  H11B  943   4.273   4.440  11.058 -2.0796 -2.6289  0.0507
    8SAPS     P  944   4.334   4.732  11.057  0.1037  0.4657  0.3031
    8SAPS   O13  945   4.340   4.858  11.134  0.1191 -0.2490 -0.3190
    8SAPS   O14  946   4.454   4.647  11.054 -0.0729  0.7285  0.4143
    8SAPS   O12  947   4.204   4.642  11.085 -0.3431 -0.1278 -0.8743
    8SAPS   O11  948   4.306   4.780  10.912  0.2882 -0.1016  0.6907
    8SAPS    C1  949   4.264   4.690  10.810  0.5136 -0.7983  0.2633
    8SAPS    HA  950   4.348   4.628  10.773  1.5504 -0.6758  2.3049
    8SAPS    HB  951   4.189   4.611  10.830  0.8632 -2.0839 -2.8936
    8SAPS    C2  952   4.198   4.768  10.692 -0.4634  0.3186 -0.6744
    8SAPS    HS  953   4.168   4.696  10.612 -2.0800  1.1941 -0.8934
    8SAPS   O21  954   4.295   4.862  10.646 -0.0897  0.1313 -0.2100
    8SAPS   C21  955   4.381   4.822  10.555  0.9868 -0.6875 -0.3734
    8SAPS   O22  956   4.388   4.708  10.510 -0.4696 -0.1863 -0.1217
    8SAPS   C22  957   4.465   4.942  10.507  0.2016  0.3122 -0.7288
    8SAPS   H2R  958   4.411   5.038  10.525  0.9779  0.1951  2.9176
    8SAPS   H2S  959   4.555   4.951  10.571 -0.7635  1.1116  0.5539
    8SAPS    C3  960   4.081   4.846  10.742 -0.7086 -0.2172  0.1359
    8SAPS    HX  961   4.106   4.929  10.811  1.5539 -1.6031  1.0906
    8SAPS    HY  962   4.017   4.771  10.793 -2.0271 -1.0501 -2.5160
    8SAPS   O31  963   4.002   4.897  10.628  0.4139  0.0055  0.1460
    8SAPS   C31  964   3.889   4.966  10.669 -0.2385  0.0187 -0.3701
    8SAPS   O32  965   3.849   4.973  10.783  0.0224  0.0985  0.1121
    8SAPS   C32  966   3.813   5.031  10.554 -0.2685 -0.7975  0.5087
    8SAPS   H2X  967   3.855   5.128  10.522 -0.4604 -0.8188  0.1936
    8SAPS   H2Y  968   3.712   5.054  10.595 -0.1538 -0.0925  0.3961
    8SAPS   C23  969   4.517   4.921  10.367  0.4424  0.1929  0.1088
    8SAPS   H3R  970   4.554   4.819  10.346  0.6121 -0.0057  1.2955
    8SAPS   H3S  971   4.612   4.979  10.362 -0.1769  1.3390  0.9722
    8SAPS   C24  972   4.424   4.976  10.262  0.0197 -0.3725  0.4895
    8SAPS   H4R  973   4.487   5.024  10.183  0.7821 -0.7231  0.8804
    8SAPS   H4S  974   4.350   5.046  10.308  0.7240  1.3653 -0.8763
    8SAPS   C25  975   4.351   4.858  10.204 -0.0365 -0.2413 -0.0048
    8SAPS   H5R  976   4.293   4.795  10.272 -0.4038 -0.7581 -0.7882
    8SAPS   C26  977   4.352   4.815  10.076 -1.0628 -0.2609  0.2460
    8SAPS   H6R  978   4.308   4.716  10.058 -1.9547 -0.1227  1.5634
    8SAPS   C27  979   4.432   4.874   9.963  0.1465 -0.5435 -0.0316
    8SAPS   H7R  980   4.516   4.938   9.999  1.0320 -1.1945 -0.8906
    8SAPS   H7S  981   4.376   4.933   9.888 -1.9591 -1.0905  1.0478
    8SAPS   C28  982   4.514   4.765   9.900  0.3006  0.1832  0.0134
    8SAPS   H8R  983   4.586   4.709   9.960 -0.1217 -0.1775  0.1873
    8SAPS   C29  984   4.522   4.737   9.764  0.0867  0.0490  0.1559
    8SAPS   H9R  985   4.592   4.657   9.734  3.4143  2.1014  1.7762
    8SAPS  C210  986   4.451   4.802   9.647 -0.1515 -0.2371 -0.0123
    8SAPS  H10R  987   4.407   4.896   9.686 -0.5584 -0.5149  0.1996
    8SAPS  H10S  988   4.361   4.743   9.621  0.1533 -0.7249  0.0352
    8SAPS  C211  989   4.550   4.830   9.537 -0.3033 -0.3291  0.5741
    8SAPS  H11R  990   4.633   4.897   9.565 -0.3189 -0.1062  0.0840
    8SAPS  C212  991   4.547   4.785   9.412  1.0286 -0.4498 -0.2192
    8SAPS  H12R  992   4.621   4.818   9.339  0.7508 -0.5272 -0.5389
    8SAPS  C213  993   4.437   4.695   9.355 -0.7318  0.3795  0.2181
    8SAPS  H13R  994   4.380   4.637   9.431 -0.5434 -0.3472 -0.1879
    8SAPS  H13S  995   4.501   4.624   9.298 -0.0686  1.8416 -0.9662
    8SAPS  C214  996   4.349   4.787   9.275 -0.6523 -0.6867  0.0149
    8SAPS  H14R  997   4.278   4.848   9.333  2.1710  0.3703  2.5923
    8SAPS  C215  998   4.355   4.809   9.139 -0.3524 -0.1368  0.3586
    8SAPS  H15R  999   4.305   4.894   9.090  1.9867  1.6587  0.8732
    8SAPS  C216 1000   4.454   4.739   9.049  0.3972  0.0579  0.8870
    8SAPS  H16R 1001   4.505   4.657   9.104  1.8206 -0.6269 -1.2855
    8SAPS  H16S 1002   4.524   4.818   9.015 -2.4606  1.8163 -1.4119
    8SAPS  C217 1003   4.389   4.693   8.914 -0.1047  0.1290 -1.0692
    8SAPS  H17R 1004   4.332   4.779   8.873  0.5817  1.2082  0.1352
    8SAPS  H17S 1005   4.310   4.624   8.952 -0.8994 -0.5791 -3.8214
    8SAPS  C218 1006   4.479   4.620   8.823  0.2680 -0.0955 -0.1614
    8SAPS  H18R 1007   4.565   4.582   8.881  1.9760  2.5035 -0.7944
    8SAPS  H18S 1008   4.530   4.693   8.756  1.8435  0.0313  1.1234
    8SAPS  C219 1009   4.421   4.506   8.731 -0.3611  0.0742  0.1637
    8SAPS  H19R 1010   4.385   4.420   8.791 -1.2602  0.7052  0.5603
    8SAPS  H19S 1011   4.503   4.470   8.666 -1.0571 -0.2960 -0.5228
    8SAPS  C220 1012   4.306   4.546   8.634  0.0245  0.0028  0.6080
    8SAPS  H20R 1013   4.209   4.555   8.688 -0.5988  0.2967 -0.5329
    8SAPS  H20S 1014   4.290   4.470   8.555 -0.6630  0.7163  0.0415
    8SAPS  H20T 1015   4.335   4.642   8.585 -2.0402 -0.3306 -1.4292
    8SAPS   C33 1016   3.804   4.935  10.430  0.0981 -0.4534 -0.0828
    8SAPS   H3X 1017   3.757   4.834  10.437 -1.3708 -0.1834 -3.8266
    8SAPS   H3Y 1018   3.906   4.915  10.391 -0.0370 -2.6714  0.5174
    8SAPS   C34 1019   3.723   5.005  10.313  0.2311 -0.1084 -1.4569
    8SAPS   H4X 1020   3.755   5.112  10.313  1.1508 -0.3291  0.6018
    8SAPS   H4Y 1021   3.618   5.028  10.341  0.8200  0.5813  0.3463
    8SAPS   C35 1022   3.741   4.945  10.173  0.0235 -0.5270 -0.1438
    8SAPS   H5X 1023   3.700   4.842  10.168 -0.6753 -0.2219 -0.8054
    8SAPS   H5Y 1024   3.851   4.944  10.158 -0.0834  0.3995 -1.1070
    8SAPS   C36 1025   3.658   5.027  10.072 -0.2384 -0.3374  0.1701
    8SAPS   H6X 1026   3.689   5.134  10.077 -4.0147  0.8715  0.8177
    8SAPS   H6Y 1027   3.550   5.035  10.095 -0.2388  0.7193 -0.1247
    8SAPS   C37 1028   3.671   4.982   9.927 -0.2866  0.0158  0.2679
    8SAPS   H7X 1029   3.610   4.890   9.914  0.8060 -0.3277 -3.5069
    8SAPS   H7Y 1030   3.779   4.962   9.909  0.1064 -0.7655  3.0006
    8SAPS   C38 1031   3.601   5.079   9.825 -0.5916  1.3982  0.2493
    8SAPS   H8X 1032   3.652   5.175   9.849  0.4135  0.5201  1.7635
    8SAPS   H8Y 1033   3.491   5.091   9.839 -0.6301  2.1374 -0.5633
    8SAPS   C39 1034   3.631   5.049   9.674 -1.1627 -0.2113 -0.2342
    8SAPS   H9X 1035   3.580   4.953   9.651 -0.1846 -0.4157 -1.6799
    8SAPS   H9Y 1036   3.739   5.042   9.647 -1.3872  0.4591 -1.3718
    8SAPS  C310 1037   3.575   5.152   9.584 -0.3031 -1.0998 -0.3066
    8SAPS  H10X 1038   3.615   5.251   9.614  1.7733 -1.3952 -1.8692
    8SAPS  H10Y 1039   3.465   5.155   9.601 -0.3238 -1.2109 -0.4177
    8SAPS  C311 1040   3.611   5.114   9.442 -0.1486  0.2502  0.2285
    8SAPS  H11X 1041   3.554   5.023   9.417  1.9352 -0.4279 -2.4982
    8SAPS  H11Y 1042   3.715   5.075   9.433 -1.5401 -3.8067 -0.1988
    8SAPS  C312 1043   3.577   5.221   9.340 -0.5956 -0.7189  0.5265
    8SAPS  H12X 1044   3.632   5.313   9.368  1.4027 -1.8494  0.4598
    8SAPS  H12Y 1045   3.469   5.246   9.341 -0.1777  1.8491 -2.4130
    8SAPS  C313 1046   3.633   5.197   9.200  0.5263  0.0706 -0.7677
    8SAPS  H13X 1047   3.580   5.108   9.158 -1.1053  0.6719 -0.0773
    8SAPS  H13Y 1048   3.742   5.178   9.197  0.4696 -0.7289  0.9231
    8SAPS  C314 1049   3.607   5.314   9.102 -0.5172  0.2641  0.4061
    8SAPS  H14X 1050   3.634   5.411   9.149  0.4925  0.6590 -0.8998
    8SAPS  H14Y 1051   3.499   5.314   9.077 -0.1647  0.4209 -1.2235
    8SAPS  C315 1052   3.683   5.294   8.966  0.6066 -0.3585 -0.2212
    8SAPS  H15X 1053   3.790   5.303   8.993  0.2451  1.4196  0.8377
    8SAPS  H15Y 1054   3.662   5.387   8.909 -0.5497 -0.9005 -0.7043
    8SAPS  C316 1055   3.652   5.162   8.896  0.6827  0.3521  0.3737
    8SAPS  H16X 1056   3.655   5.081   8.973  0.2218  2.1568  2.4003
    8SAPS  H16Y 1057   3.737   5.141   8.829 -1.1841 -2.7254 -1.2898
    8SAPS  C317 1058   3.513   5.170   8.829 -0.5405 -0.0242  0.3767
    8SAPS  H17X 1059   3.506   5.251   8.754 -2.0499 -0.8656 -0.4462
    8SAPS  H17Y 1060   3.438   5.186   8.910 -0.9436  1.5965 -0.2732
    8SAPS  C318 1061   3.471   5.033   8.757  0.1114 -0.5101  0.2669
    8SAPS  H18X 1062   3.428   5.050   8.656 -1.4845 -0.5337  0.9149
    8SAPS  H18Y 1063   3.391   4.991   8.822 -1.1983  1.1230 -0.2268
    8SAPS  H18Z 1064   3.558   4.965   8.746 -0.4354 -1.2282  0.2547
    9SAPS     N 1065   5.359   0.793   6.125 -0.5221  0.0457  0.0265
    9SAPS   HN1 1066   5.313   0.731   6.056 -1.1717  1.6552 -1.0378
    9SAPS   HN2 1067   5.427   0.737   6.181  0.5784  2.4247  1.2047
    9SAPS   HN3 1068   5.284   0.823   6.191 -1.6582 -1.8259 -0.3403
    9SAPS   C12 1069   5.418   0.915   6.064 -0.3781 -0.0344 -0.2792
    9SAPS  H12A 1070   5.492   0.871   5.999  0.9757  2.8012 -0.8113
    9SAPS   C13 1071   5.318   0.988   5.971  0.1484  0.1057 -0.4036
    9SAPS  O13A 1072   5.194   0.963   5.976  0.4547  0.2990 -0.0902
    9SAPS  O13B 1073   5.363   1.074   5.895 -0.4340 -0.0185  0.4742
    9SAPS   C11 1074   5.471   1.000   6.177 -0.3283  0.1330  0.2422
    9SAPS  H11A 1075   5.503   1.096   6.129  0.2804  0.1986  0.7719
    9SAPS  H11B 1076   5.548   0.938   6.226 -0.3521 -1.1500 -1.2757
    9SAPS     P 1077   5.374   1.150   6.369 -0.1228 -0.0110  0.2829
    9SAPS   O13 1078   5.457   1.256   6.304  0.0586 -0.0719 -0.5036
    9SAPS   O14 1079   5.233   1.182   6.395  0.2896  0.1450 -0.4300
    9SAPS   O12 1080   5.369   1.025   6.274 -0.1213 -0.4575  0.2265
    9SAPS   O11 1081   5.445   1.087   6.494 -0.9427 -0.2869 -0.2330
    9SAPS    C1 1082   5.497   1.176   6.590 -0.5391  0.2560  1.1386
    9SAPS    HA 1083   5.547   1.265   6.545 -0.5877  1.1695  2.7993
    9SAPS    HB 1084   5.413   1.219   6.648  0.6024  1.0630  2.2580
    9SAPS    C2 1085   5.609   1.113   6.676  0.4306 -0.2736 -0.7714
    9SAPS    HS 1086   5.691   1.086   6.607 -0.8860 -0.9270 -2.1418
    9SAPS   O21 1087   5.546   0.999   6.738 -0.2013 -0.0124  0.2643
    9SAPS   C21 1088   5.632   0.911   6.786 -0.2413 -0.5518  0.0125
    9SAPS   O22 1089   5.754   0.926   6.771  0.4445 -0.2549 -0.4933
    9SAPS   C22 1090   5.561   0.788   6.848 -0.3483 -0.3420  0.2464
    9SAPS   H2R 1091   5.524   0.825   6.946 -1.2106  0.8572 -0.5211
    9SAPS   H2S 1092   5.474   0.761   6.785 -1.1076  1.6059  0.4104
    9SAPS    C3 1093   5.650   1.216   6.786  0.0586 -0.7200 -0.3495
    9SAPS    HX 1094   5.568   1.231   6.860  1.1750 -3.3421  1.5482
    9SAPS    HY 1095   5.672   1.313   6.735 -1.0059  0.3143  1.0625
    9SAPS   O31 1096   5.753   1.172   6.870  0.4113  0.0209  0.5166
    9SAPS   C31 1097   5.875   1.172   6.820 -0.1795 -0.8447 -0.4088
    9SAPS   O32 1098   5.905   1.216   6.710  0.1953  0.4056 -0.0774
    9SAPS   C32 1099   5.981   1.107   6.912  0.0473  0.3141  0.5951
    9SAPS   H2X 1100   6.040   1.194   6.951  1.5698  0.1013 -1.1186
    9SAPS   H2Y 1101   6.053   1.050   6.850 -1.0030 -1.2459  0.7724
    9SAPS   C23 1102   5.662   0.671   6.877  0.0250 -0.3734  0.6327
    9SAPS   H3R 1103   5.721   0.713   6.962  1.7231  0.1890 -0.7668
    9SAPS   H3S 1104   5.735   0.659   6.795 -1.8497 -1.6344 -0.9283
    9SAPS   C24 1105   5.596   0.539   6.915 -0.7052  0.2916  0.2976
    9SAPS   H4R 1106   5.677   0.469   6.943 -1.9488 -0.5299  1.9749
    9SAPS   H4S 1107   5.552   0.497   6.822  0.9515 -0.4916 -0.1694
    9SAPS   C25 1108   5.490   0.570   7.023  0.6765  0.2513 -0.2745
    9SAPS   H5R 1109   5.388   0.592   6.988  0.6818  1.3063  0.3429
    9SAPS   C26 1110   5.507   0.587   7.157 -0.0855 -1.0058 -0.0255
    9SAPS   H6R 1111   5.423   0.621   7.219  0.3952 -2.3516  1.4571
    9SAPS   C27 1112   5.637   0.574   7.231  0.4393 -0.1603 -0.1838
    9SAPS   H7R 1113   5.650   0.670   7.285 -1.6805 -0.4645  0.9638
    9SAPS   H7S 1114   5.728   0.557   7.169  0.4487  0.5405 -0.3690
    9SAPS   C28 1115   5.625   0.458   7.330 -0.3215 -0.1638  0.4542
    9SAPS   H8R 1116   5.600   0.362   7.283 -0.3614 -0.4191  0.9855
    9SAPS   C29 1117   5.625   0.471   7.467  0.4781 -0.7192  0.2629
    9SAPS   H9R 1118   5.607   0.382   7.530  1.0828 -0.9801  0.0722
    9SAPS  C210 1119   5.653   0.593   7.559 -0.4067 -0.2900  0.0993
    9SAPS  H10R 1120   5.550   0.624   7.590 -0.5457  0.6126 -1.1777
    9SAPS  H10S 1121   5.707   0.677   7.511  1.2001 -0.6076  1.2675
    9SAPS  C211 1122   5.737   0.558   7.678 -0.2280 -0.4044 -0.5890
    9SAPS  H11R 1123   5.841   0.594   7.673 -0.7493  1.1460 -0.8418
    9SAPS  C212 1124   5.708   0.491   7.789 -0.0276  0.3504 -0.6786
    9SAPS  H12R 1125   5.785   0.488   7.867  1.2274  0.8876 -1.8600
    9SAPS  C213 1126   5.575   0.435   7.830 -0.0190 -0.3904  0.7043
    9SAPS  H13R 1127   5.576   0.324   7.826 -0.5549 -0.3797  0.0707
    9SAPS  H13S 1128   5.499   0.469   7.756  3.6999  0.8491 -2.9256
    9SAPS  C214 1129   5.522   0.486   7.961  0.0083  0.4689 -0.4324
    9SAPS  H14R 1130   5.427   0.539   7.947 -0.4867 -0.8899 -2.6032
    9SAPS  C215 1131   5.577   0.473   8.082  0.1115  0.4728  0.5958
    9SAPS  H15R 1132   5.514   0.495   8.169 -0.9404 -1.8461  0.5009
    9SAPS  C216 1133   5.702   0.397   8.120 -0.2755  0.1213 -0.5312
    9SAPS  H16R 1134   5.785   0.433   8.055 -0.2622  2.1174  0.5397
    9SAPS  H16S 1135   5.686   0.292   8.086  0.9784 -0.5263  0.7938
    9SAPS  C217 1136   5.744   0.387   8.271  0.4621  0.2149  0.3739
    9SAPS  H17R 1137   5.834   0.323   8.287  0.3972  0.2657  0.9367
    9SAPS  H17S 1138   5.658   0.336   8.319  0.8125 -0.7927 -0.0339
    9SAPS  C218 1139   5.757   0.517   8.347 -0.1902 -0.1560 -0.2246
    9SAPS  H18R 1140   5.665   0.579   8.341  1.9535  3.5439  1.6277
    9SAPS  H18S 1141   5.822   0.580   8.283 -1.3458  0.3077 -0.9685
    9SAPS  C219 1142   5.797   0.512   8.493  0.2152 -0.1603  0.1260
    9SAPS  H19R 1143   5.837   0.608   8.532 -2.3624  0.8602  0.4267
    9SAPS  H19S 1144   5.878   0.436   8.503 -0.2888 -1.2480 -2.9037
    9SAPS  C220 1145   5.680   0.480   8.594 -0.7958  0.0281 -0.5053
    9SAPS  H20R 1146   5.598   0.556   8.594 -1.6434 -0.8685 -0.2883
    9SAPS  H20S 1147   5.723   0.471   8.696 -1.5156  1.4210 -0.0407
    9SAPS  H20T 1148   5.630   0.385   8.566 -0.5671  0.1032 -1.2015
    9SAPS   C33 1149   5.931   1.016   7.031 -0.5844 -0.0967  0.5328
    9SAPS   H3X 1150   6.020   0.976   7.084 -0.8227 -0.2409  0.8294
    9SAPS   H3Y 1151   5.888   0.922   6.989  1.0312 -0.0111 -1.5038
    9SAPS   C34 1152   5.850   1.081   7.142  0.0977  0.8394 -0.4089
    9SAPS   H4X 1153   5.822   0.989   7.198 -0.4230  0.0897 -1.8237
    9SAPS   H4Y 1154   5.760   1.130   7.097  0.5724  1.2202 -0.9557
    9SAPS   C35 1155   5.927   1.177   7.228 -0.1975  0.2065 -0.3809
    9SAPS   H5X 1156   5.964   1.260   7.164  2.1009 -1.1092 -0.9053
    9SAPS   H5Y 1157   6.018   1.123   7.264  0.2145  1.6706  0.8624
    9SAPS   C36 1158   5.856   1.213   7.354 -0.2940 -0.2992  0.0024
    9SAPS   H6X 1159   5.795   1.132   7.399  2.2426 -2.0747  0.4604
    9SAPS   H6Y 1160   5.786   1.297   7.335 -0.1065  0.2318  1.5137
    9SAPS   C37 1161   5.951   1.261   7.463 -0.3309 -0.1895 -0.3743
    9SAPS   H7X 1162   6.026   1.332   7.422  0.2065  0.6413  1.8969
    9SAPS   H7Y 1163   5.998   1.177   7.519  1.0958  1.1259  0.4482
    9SAPS   C38 1164   5.883   1.350   7.570 -0.2234 -0.1768 -0.3508
    9SAPS   H8X 1165   5.774   1.325   7.564  0.2552 -3.0221  1.0148
    9SAPS   H8Y 1166   5.888   1.455   7.534  0.2965 -0.3213 -0.6980
    9SAPS   C39 1167   5.943   1.334   7.707  0.3972  0.1085 -0.0033
    9SAPS   H9X 1168   6.054   1.336   7.720  0.1770  0.5195  2.2640
    9SAPS   H9Y 1169   5.921   1.227   7.728 -2.5810  0.3805 -1.2034
    9SAPS  C310 1170   5.866   1.421   7.805  0.3131  0.2096  0.0496
    9SAPS  H10X 1171   5.759   1.420   7.778  0.0154 -0.7050  1.1404
    9SAPS  H10Y 1172   5.907   1.520   7.778 -0.6907  0.7181  0.3560
    9SAPS  C311 1173   5.893   1.380   7.949  0.6798 -0.6901  0.2826
    9SAPS  H11X 1174   6.002   1.362   7.957  0.4634 -2.4883 -0.1949
    9SAPS  H11Y 1175   5.840   1.285   7.973 -1.1139  0.1619 -0.1269
    9SAPS  C312 1176   5.869   1.487   8.055  0.1879  1.4148 -0.4864
    9SAPS  H12X 1177   5.759   1.488   8.067  0.2892 -1.7810  1.8545
    9SAPS  H12Y 1178   5.903   1.586   8.018  1.5063  1.0761 -0.2463
    9SAPS  C313 1179   5.946   1.456   8.188 -0.1317 -0.9825 -0.1631
    9SAPS  H13X 1180   6.055   1.477   8.183 -0.1668  0.0751  2.1890
    9SAPS  H13Y 1181   5.931   1.346   8.197 -0.9435 -0.9057 -0.4561
    9SAPS  C314 1182   5.899   1.524   8.317  0.4253 -0.4007 -0.1907
    9SAPS  H14X 1183   5.929   1.466   8.407 -2.1321  0.8178  1.5611
    9SAPS  H14Y 1184   5.788   1.516   8.323  0.4775  0.0394  2.0913
    9SAPS  C315 1185   5.955   1.664   8.340  0.1960 -0.0169 -0.2745
    9SAPS  H15X 1186   5.912   1.704   8.434  1.0540  1.1958 -0.3766
    9SAPS  H15Y 1187   5.924   1.726   8.253  2.9789 -0.0287 -1.3771
    9SAPS  C316 1188   6.100   1.682   8.353  0.0920 -0.1389  0.3437
    9SAPS  H16X 1189   6.131   1.786   8.377 -0.5281 -0.0026  0.5715
    9SAPS  H16Y 1190   6.144   1.659   8.254  1.4756 -2.5756  1.4501
    9SAPS  C317 1191   6.183   1.583   8.447  0.5517  0.3426  0.4848
    9SAPS  H17X 1192   6.169   1.480   8.405  1.8039  1.0452 -1.8229
    9SAPS  H17Y 1193   6.147   1.583   8.552  0.3783  1.6536  0.4403
    9SAPS  C318 1194   6.332   1.618   8.465 -0.4748  0.7380  0.3625
    9SAPS  H18X 1195   6.336   1.714   8.520 -0.5456  0.2712  1.1946
    9SAPS  H18Y 1196   6.382   1.624   8.366  0.7586 -0.1071  0.9160
    9SAPS  H18Z 1197   6.383   1.540   8.525 -2.4710 -2.1730 -1.4419
   10SAPS     N 1198   0.940   4.865   6.247  0.2514 -0.0360 -0.1630
   10SAPS   HN1 1199   0.931   4.849   6.350  3.4171  0.0507  0.2234
   10SAPS   HN2 1200   1.026   4.816   6.216 -0.1891 -0.8297 -0.1338
   10SAPS   HN3 1201   0.962   4.967   6.243  1.9564 -0.2916  1.3546
   10SAPS   C12 1202   0.828   4.844   6.154  0.5590  0.3467 -0.2460
   10SAPS  H12A 1203   0.750   4.915   6.178  1.1277  0.2841  1.9597
   10SAPS   C13 1204   0.870   4.864   6.005  0.5500  0.4779  0.5292
   10SAPS  O13A 1205   0.965   4.926   5.972 -0.5848 -0.3125 -0.4123
   10SAPS  O13B 1206   0.772   4.846   5.923 -0.2061 -0.0815 -0.4016
   10SAPS   C11 1207   0.774   4.701   6.163  0.9938  0.7033  0.1568
   10SAPS  H11A 1208   0.852   4.624   6.144 -0.8638 -1.3341  0.3359
   10SAPS  H11B 1209   0.685   4.677   6.100  0.2125  1.2548  1.0247
   10SAPS     P 1210   0.596   4.709   6.350  0.0937  0.1182 -0.1307
   10SAPS   O13 1211   0.566   4.851   6.368 -0.3140  0.4128  0.6862
   10SAPS   O14 1212   0.491   4.641   6.264 -0.5502  0.3106  0.0541
   10SAPS   O12 1213   0.732   4.678   6.295 -0.3618 -0.2131 -0.1718
   10SAPS   O11 1214   0.586   4.636   6.484 -0.0665 -0.1623  0.2896
   10SAPS    C1 1215   0.632   4.687   6.607 -0.5021 -0.3420 -0.6008
   10SAPS    HA 1216   0.732   4.734   6.597 -0.8216 -0.1174 -3.6096
   10SAPS    HB 1217   0.556   4.752   6.655 -0.8444 -0.5195 -0.8965
   10SAPS    C2 1218   0.640   4.575   6.701 -0.9196  0.6758 -0.6915
   10SAPS    HS 1219   0.693   4.493   6.648 -0.7221  1.3450 -1.5374
   10SAPS   O21 1220   0.510   4.537   6.742  0.2654 -0.2525  0.1122
   10SAPS   C21 1221   0.498   4.413   6.794  0.5095  0.0173 -0.2082
   10SAPS   O22 1222   0.590   4.335   6.804  0.6501  0.0548  0.1208
   10SAPS   C22 1223   0.353   4.394   6.852 -0.3951 -0.3456 -0.1396
   10SAPS   H2R 1224   0.328   4.479   6.918 -0.2081 -1.9990  2.1773
   10SAPS   H2S 1225   0.282   4.395   6.766 -0.4445  3.6476 -0.2004
   10SAPS    C3 1226   0.731   4.604   6.823 -0.9382  0.2259 -0.6162
   10SAPS    HX 1227   0.837   4.619   6.794  0.5205  0.0943  3.9408
   10SAPS    HY 1228   0.745   4.513   6.885 -1.4117  1.2927  1.1374
   10SAPS   O31 1229   0.688   4.715   6.896 -0.1427 -0.8849  0.0938
   10SAPS   C31 1230   0.767   4.819   6.914 -0.1779  0.2753  0.1723
   10SAPS   O32 1231   0.882   4.828   6.875 -0.1724 -0.1284  0.5655
   10SAPS   C32 1232   0.681   4.923   6.990  0.1220  0.5547  0.1064
   10SAPS   H2X 1233   0.701   4.929   7.100  1.2232 -1.3102  0.0573
   10SAPS   H2Y 1234   0.574   4.912   6.965  0.1433  1.4397 -0.3896
   10SAPS   C23 1235   0.340   4.257   6.925 -0.5361  0.0815  0.3207
   10SAPS   H3R 1236   0.377   4.179   6.854  0.6881  0.1050  0.9000
   10SAPS   H3S 1237   0.234   4.234   6.945 -1.1657  2.6063  0.2059
   10SAPS   C24 1238   0.420   4.262   7.054  0.2078 -0.7931 -0.2498
   10SAPS   H4R 1239   0.525   4.298   7.040  0.2218 -1.1579 -1.1457
   10SAPS   H4S 1240   0.430   4.156   7.088  2.8955 -0.6587 -0.3495
   10SAPS   C25 1241   0.352   4.334   7.164  0.5250 -0.0515  0.3687
   10SAPS   H5R 1242   0.250   4.292   7.174 -0.4227  1.5183 -1.8268
   10SAPS   C26 1243   0.377   4.441   7.233  0.2954  0.0121 -0.3600
   10SAPS   H6R 1244   0.307   4.474   7.311  3.4437  2.0602  1.8220
   10SAPS   C27 1245   0.497   4.529   7.210 -0.3115 -0.3624  0.2265
   10SAPS   H7R 1246   0.542   4.514   7.109  0.6109  1.3484  0.3484
   10SAPS   H7S 1247   0.569   4.498   7.289  0.0656  0.1195  0.0779
   10SAPS   C28 1248   0.465   4.678   7.215  0.1085  0.1807  0.7396
   10SAPS   H8R 1249   0.437   4.727   7.121 -0.7714 -0.3773  0.7035
   10SAPS   C29 1250   0.476   4.749   7.323 -0.1183 -1.1675 -0.0849
   10SAPS   H9R 1251   0.453   4.856   7.323 -0.6763 -1.2333 -2.8598
   10SAPS  C210 1252   0.510   4.698   7.466  0.4909  0.1500 -0.3814
   10SAPS  H10R 1253   0.613   4.738   7.481  0.1613  0.9824 -0.2573
   10SAPS  H10S 1254   0.499   4.588   7.462 -1.4949  0.2302  1.3784
   10SAPS  C211 1255   0.420   4.745   7.578 -0.1586 -0.5209 -0.1574
   10SAPS  H11R 1256   0.316   4.744   7.544  0.2134 -4.4019 -1.7151
   10SAPS  C212 1257   0.459   4.780   7.703 -0.2339  0.4422  0.5150
   10SAPS  H12R 1258   0.386   4.828   7.770 -0.3845  1.8170 -0.6047
   10SAPS  C213 1259   0.599   4.777   7.762  0.0956 -0.1451 -0.1443
   10SAPS  H13R 1260   0.652   4.693   7.713  1.1900 -0.1952  1.0640
   10SAPS  H13S 1261   0.603   4.752   7.871 -0.3854  0.2235 -0.0375
   10SAPS  C214 1262   0.683   4.899   7.743  0.3993  0.3372  0.8307
   10SAPS  H14R 1263   0.724   4.889   7.642  0.2283 -0.5134  0.8318
   10SAPS  C215 1264   0.728   5.002   7.822  0.9721 -0.0331  0.1307
   10SAPS  H15R 1265   0.775   5.087   7.770  2.6091 -0.3166  1.0836
   10SAPS  C216 1266   0.688   5.017   7.969  0.2584 -0.4917  0.0070
   10SAPS  H16R 1267   0.678   4.919   8.020  2.3820 -1.5032 -1.3411
   10SAPS  H16S 1268   0.590   5.069   7.974  0.2624 -0.5483  0.6320
   10SAPS  C217 1269   0.794   5.099   8.043 -0.0518  0.1143  0.3428
   10SAPS  H17R 1270   0.811   5.183   7.972  1.0201 -2.4077 -2.6393
   10SAPS  H17S 1271   0.889   5.043   8.029 -0.6421 -0.1020 -4.2711
   10SAPS  C218 1272   0.779   5.145   8.194  0.7796  0.5302  0.0009
   10SAPS  H18R 1273   0.870   5.189   8.240 -1.2149  2.0993  2.7297
   10SAPS  H18S 1274   0.753   5.055   8.254 -0.2318  0.3337 -0.6989
   10SAPS  C219 1275   0.672   5.255   8.219  0.8431 -0.0266  1.2665
   10SAPS  H19R 1276   0.579   5.217   8.171  1.3505  2.2818 -1.8746
   10SAPS  H19S 1277   0.696   5.342   8.154 -2.1291 -1.5262 -2.1968
   10SAPS  C220 1278   0.648   5.308   8.358  1.2488  0.1216 -0.9156
   10SAPS  H20R 1279   0.552   5.364   8.361  1.8373  1.1629 -0.9179
   10SAPS  H20S 1280   0.724   5.374   8.406 -1.4671  1.0730  2.4882
   10SAPS  H20T 1281   0.637   5.224   8.429 -1.9122 -0.3905 -1.8486
   10SAPS   C33 1282   0.722   5.061   6.934  0.0034 -0.3843  0.0833
   10SAPS   H3X 1283   0.714   5.058   6.823  1.2948 -3.7811 -0.0448
   10SAPS   H3Y 1284   0.829   5.083   6.955  0.2448  0.2578 -1.6022
   10SAPS   C34 1285   0.650   5.186   6.980 -0.1532  0.6519 -0.2603
   10SAPS   H4X 1286   0.637   5.174   7.090 -1.9070  0.3825 -0.4619
   10SAPS   H4Y 1287   0.549   5.201   6.935 -1.3999  0.4008  2.2330
   10SAPS   C35 1288   0.728   5.317   6.959 -0.0602 -0.6160  0.7202
   10SAPS   H5X 1289   0.737   5.343   6.851  0.0289 -0.5542  0.7414
   10SAPS   H5Y 1290   0.829   5.289   6.996  0.4486 -0.5679 -0.5630
   10SAPS   C36 1291   0.685   5.432   7.051 -0.6425 -0.7280  0.7721
   10SAPS   H6X 1292   0.634   5.399   7.143 -0.2266 -1.1927  0.8404
   10SAPS   H6Y 1293   0.607   5.488   6.995 -0.4260 -2.0357 -0.9521
   10SAPS   C37 1294   0.811   5.522   7.080 -0.0498  0.7453  0.4302
   10SAPS   H7X 1295   0.847   5.548   6.978 -3.1901  1.0973 -0.6883
   10SAPS   H7Y 1296   0.888   5.457   7.127  2.0845  1.7621 -1.4079
   10SAPS   C38 1297   0.808   5.643   7.181  0.5685 -0.4480  0.1574
   10SAPS   H8X 1298   0.748   5.616   7.271 -0.0940  1.0704  0.1905
   10SAPS   H8Y 1299   0.758   5.731   7.135  1.1333  0.0182  0.4273
   10SAPS   C39 1300   0.948   5.694   7.223 -0.0198  0.1549 -0.5841
   10SAPS   H9X 1301   0.935   5.801   7.249 -2.1771  0.3733 -2.2572
   10SAPS   H9Y 1302   1.016   5.710   7.136 -0.1921  1.6977 -0.4631
   10SAPS  C310 1303   1.011   5.625   7.346 -0.6250  0.2139  0.1019
   10SAPS  H10X 1304   1.044   5.522   7.317 -0.4482  0.5306 -0.8688
   10SAPS  H10Y 1305   0.936   5.620   7.427  0.1140  0.3704  0.8083
   10SAPS  C311 1306   1.148   5.687   7.397 -0.6599  0.5202  0.3591
   10SAPS  H11X 1307   1.142   5.797   7.411  0.5028  0.5749  0.5188
   10SAPS  H11Y 1308   1.228   5.675   7.320 -1.0530 -1.5736  0.2032
   10SAPS  C312 1309   1.185   5.619   7.524  1.0273  0.1404 -0.3360
   10SAPS  H12X 1310   1.220   5.514   7.522 -1.2368 -0.6498 -0.1985
   10SAPS  H12Y 1311   1.095   5.601   7.586  1.4360  0.9330  0.5274
   10SAPS  C313 1312   1.276   5.700   7.616  0.3292 -0.0476 -0.2214
   10SAPS  H13X 1313   1.236   5.804   7.621 -0.3827 -0.3444  0.4564
   10SAPS  H13Y 1314   1.376   5.716   7.570  0.1843  1.5063 -0.0348
   10SAPS  C314 1315   1.300   5.633   7.757  0.0793  0.1972 -0.9130
   10SAPS  H14X 1316   1.336   5.529   7.743  0.3616  0.1167  0.3293
   10SAPS  H14Y 1317   1.211   5.648   7.822 -0.6274 -0.9201 -1.5818
   10SAPS  C315 1318   1.417   5.712   7.819 -0.3604  0.1843  0.9271
   10SAPS  H15X 1319   1.386   5.818   7.810 -1.9171 -0.3359 -0.4451
   10SAPS  H15Y 1320   1.511   5.706   7.759  0.7636  2.5433  2.3275
   10SAPS  C316 1321   1.435   5.663   7.959 -0.3297  0.2793  0.5610
   10SAPS  H16X 1322   1.466   5.557   7.952  0.0941  0.4383 -0.0744
   10SAPS  H16Y 1323   1.337   5.665   8.011 -0.4160 -0.5587  0.4470
   10SAPS  C317 1324   1.523   5.755   8.041 -0.2529  0.7195  0.3701
   10SAPS  H17X 1325   1.479   5.856   8.031 -2.1030 -0.0665  0.0936
   10SAPS  H17Y 1326   1.627   5.738   8.005 -0.5153  0.1695 -0.1497
   10SAPS  C318 1327   1.521   5.718   8.188  0.0890 -0.1545 -0.6240
   10SAPS  H18X 1328   1.589   5.788   8.240  1.7400 -1.5708 -0.7853
   10SAPS  H18Y 1329   1.566   5.617   8.200 -0.7823 -0.4287  0.5467
   10SAPS  H18Z 1330   1.422   5.724   8.237 -0.4310 -1.4708 -1.4497
   11SAPS     N 1331   0.816   6.458   5.810  0.4718  0.1593  0.7101
   11SAPS   HN1 1332   0.811   6.415   5.715  1.5614  0.4356  0.5035
   11SAPS   HN2 1333   0.906   6.511   5.816  0.0207  1.7957 -3.4938
   11SAPS   HN3 1334   0.813   6.382   5.880  0.3963  0.1188  0.6617
   11SAPS   C12 1335   0.686   6.538   5.810  1.1688  0.0338  0.4298
   11SAPS  H12A 1336   0.698   6.620   5.740 -2.7827  1.0902  0.8006
   11SAPS   C13 1337   0.556   6.468   5.770 -0.3807 -0.2889 -0.1246
   11SAPS  O13A 1338   0.564   6.351   5.720  0.0521 -0.3885  0.1482
   11SAPS  O13B 1339   0.456   6.539   5.756  0.2057  0.5151 -0.0115
   11SAPS   C11 1340   0.664   6.606   5.954  0.1107 -0.0994  0.3572
   11SAPS  H11A 1341   0.639   6.539   6.039  0.9510  0.4322  1.0488
   11SAPS  H11B 1342   0.581   6.679   5.943  1.1571  0.8991 -1.2199
   11SAPS     P 1343   0.871   6.646   6.112  0.2938  0.1526  0.3446
   11SAPS   O13 1344   0.868   6.499   6.137  0.2505 -0.8302 -0.0400
   11SAPS   O14 1345   1.007   6.708   6.092  0.2728  0.0127 -0.2726
   11SAPS   O12 1346   0.782   6.687   5.988 -0.1547  0.2896 -0.6317
   11SAPS   O11 1347   0.805   6.715   6.231 -0.0240  0.4085 -0.5451
   11SAPS    C1 1348   0.786   6.853   6.249  0.3371  0.4969  0.3126
   11SAPS    HA 1349   0.830   6.908   6.163 -1.9084 -0.3536 -1.4969
   11SAPS    HB 1350   0.678   6.873   6.259  0.2636 -0.8306  3.0122
   11SAPS    C2 1351   0.851   6.905   6.382  0.5125 -0.9209  0.0255
   11SAPS    HS 1352   0.961   6.895   6.374  1.3024  3.3070  2.6777
   11SAPS   O21 1353   0.794   6.834   6.492  0.3326  0.3295  0.0868
   11SAPS   C21 1354   0.856   6.725   6.536 -0.1773  0.9605  0.1882
   11SAPS   O22 1355   0.967   6.691   6.506  0.3878  0.5388 -0.1640
   11SAPS   C22 1356   0.764   6.651   6.642 -0.0358 -0.8714 -0.0974
   11SAPS   H2R 1357   0.658   6.680   6.628  0.4781  0.7241 -0.9631
   11SAPS   H2S 1358   0.779   6.544   6.618  0.2919 -0.9862  0.5890
   11SAPS    C3 1359   0.826   7.058   6.411  0.3452 -0.1844 -0.3634
   11SAPS    HX 1360   0.721   7.080   6.386 -0.3791 -0.6286  2.0308
   11SAPS    HY 1361   0.895   7.117   6.346  0.5827  0.1215  0.1576
   11SAPS   O31 1362   0.849   7.105   6.542 -0.1194 -0.1573 -0.0477
   11SAPS   C31 1363   0.975   7.123   6.586  1.2486 -0.0275  0.2946
   11SAPS   O32 1364   1.073   7.085   6.523 -0.2484 -0.1250  0.6269
   11SAPS   C32 1365   0.971   7.196   6.721 -0.0793  0.5009 -0.4146
   11SAPS   H2X 1366   1.042   7.280   6.707  1.5363 -0.2926  2.3483
   11SAPS   H2Y 1367   1.001   7.119   6.795 -0.5203 -1.0950 -1.8375
   11SAPS   C23 1368   0.834   6.667   6.779  0.2260 -0.4325  0.0677
   11SAPS   H3R 1369   0.944   6.653   6.771  0.6137 -0.7036  3.9549
   11SAPS   H3S 1370   0.795   6.596   6.854 -0.4621  1.1980  1.3179
   11SAPS   C24 1371   0.802   6.810   6.842 -0.2306 -0.0091 -0.5674
   11SAPS   H4R 1372   0.825   6.881   6.760  0.2575 -0.3254 -0.7063
   11SAPS   H4S 1373   0.881   6.812   6.920  0.4801 -0.5738 -1.2581
   11SAPS   C25 1374   0.663   6.850   6.896 -0.2468  0.3158 -0.4350
   11SAPS   H5R 1375   0.588   6.841   6.817  0.0120 -0.3130 -0.6162
   11SAPS   C26 1376   0.627   6.891   7.019 -0.4346 -0.7473 -0.5302
   11SAPS   H6R 1377   0.519   6.893   7.041 -0.2531  0.6616  0.3772
   11SAPS   C27 1378   0.718   6.902   7.143 -0.4344  0.3241  0.6084
   11SAPS   H7R 1379   0.794   6.981   7.129  1.5164 -1.8063 -2.0109
   11SAPS   H7S 1380   0.787   6.815   7.147  1.8984  1.6962 -3.6043
   11SAPS   C28 1381   0.646   6.921   7.272 -0.1487  0.6098 -0.9576
   11SAPS   H8R 1382   0.550   6.866   7.274  0.7699 -1.1157 -2.1861
   11SAPS   C29 1383   0.679   7.000   7.376  0.3539 -0.1794 -0.4695
   11SAPS   H9R 1384   0.613   7.007   7.463  0.8700 -0.2766 -0.0677
   11SAPS  C210 1385   0.812   7.076   7.384  0.2343  0.0857 -0.8463
   11SAPS  H10R 1386   0.791   7.165   7.322  0.6727 -0.3663 -1.6633
   11SAPS  H10S 1387   0.896   7.014   7.346 -1.5595 -2.4272 -1.0388
   11SAPS  C211 1388   0.840   7.121   7.526  0.2339 -0.0856 -0.2109
   11SAPS  H11R 1389   0.750   7.167   7.569  0.6551  1.3081 -0.7841
   11SAPS  C212 1390   0.961   7.130   7.585  0.4589  0.0003  0.4148
   11SAPS  H12R 1391   0.963   7.155   7.693 -0.1000 -0.6747  0.5840
   11SAPS  C213 1392   1.089   7.085   7.524 -0.5678 -0.3060 -0.3075
   11SAPS  H13R 1393   1.090   7.097   7.414 -0.4970  2.0632 -0.1071
   11SAPS  H13S 1394   1.100   6.976   7.537 -0.4984 -0.4178 -1.2145
   11SAPS  C214 1395   1.209   7.159   7.595  0.0575 -0.4667 -0.2187
   11SAPS  H14R 1396   1.183   7.251   7.648  0.3120  0.5587 -1.8039
   11SAPS  C215 1397   1.343   7.141   7.570 -0.4620  0.0380 -0.0277
   11SAPS  H15R 1398   1.417   7.206   7.620  0.0465  0.3720 -1.1936
   11SAPS  C216 1399   1.396   7.034   7.475 -0.2858 -0.7793 -0.1152
   11SAPS  H16R 1400   1.314   6.962   7.452 -0.5566 -0.7455  0.7221
   11SAPS  H16S 1401   1.478   6.976   7.522 -0.8171 -0.2011  1.5923
   11SAPS  C217 1402   1.452   7.091   7.340  0.2785 -0.0291  1.0027
   11SAPS  H17R 1403   1.489   7.009   7.274  0.4092  0.8524 -0.0475
   11SAPS  H17S 1404   1.535   7.155   7.376 -0.5587  1.1409  0.8834
   11SAPS  C218 1405   1.347   7.176   7.264  0.5129  0.3667 -0.1778
   11SAPS  H18R 1406   1.328   7.269   7.322 -0.1022 -0.0673  0.3377
   11SAPS  H18S 1407   1.254   7.116   7.276 -0.7581  2.5149  1.6547
   11SAPS  C219 1408   1.376   7.181   7.113 -0.8523  0.3577  0.3226
   11SAPS  H19R 1409   1.436   7.095   7.077  0.6588  2.6393 -3.1465
   11SAPS  H19S 1410   1.445   7.260   7.078 -0.8414  0.9700  1.6589
   11SAPS  C220 1411   1.244   7.196   7.033 -0.1969  0.5210 -0.2857
   11SAPS  H20R 1412   1.208   7.301   7.037 -1.4565  0.1025 -0.1223
   11SAPS  H20S 1413   1.162   7.129   7.066 -0.9274  2.3356  1.8588
   11SAPS  H20T 1414   1.262   7.176   6.926 -0.7898 -0.5353 -0.2048
   11SAPS   C33 1415   0.833   7.256   6.763 -0.1513  0.0557  0.6833
   11SAPS   H3X 1416   0.743   7.208   6.718 -0.5114  1.7865 -0.5352
   11SAPS   H3Y 1417   0.829   7.365   6.740 -0.9579 -0.0713  0.1499
   11SAPS   C34 1418   0.796   7.237   6.912  0.3146  0.3175 -0.2824
   11SAPS   H4X 1419   0.880   7.266   6.979  0.8161  1.1167 -1.2160
   11SAPS   H4Y 1420   0.768   7.130   6.922  1.6002 -0.0027  0.1121
   11SAPS   C35 1421   0.668   7.317   6.955 -0.3238 -0.6548  0.6283
   11SAPS   H5X 1422   0.587   7.311   6.879  0.5788  0.7745 -0.5036
   11SAPS   H5Y 1423   0.709   7.419   6.968 -0.9398 -0.5862  2.2879
   11SAPS   C36 1424   0.608   7.262   7.089 -0.6576  0.5383  0.0871
   11SAPS   H6X 1425   0.682   7.283   7.169 -0.8912  0.3756  0.3459
   11SAPS   H6Y 1426   0.596   7.152   7.081 -2.8484  0.7166  0.2431
   11SAPS   C37 1427   0.478   7.330   7.132  0.0119 -0.5952  0.1811
   11SAPS   H7X 1428   0.400   7.328   7.053  0.9283  1.7180 -0.8649
   11SAPS   H7Y 1429   0.495   7.438   7.150 -0.8471 -0.6336  1.3604
   11SAPS   C38 1430   0.421   7.282   7.265  0.2520  0.2966 -0.3290
   11SAPS   H8X 1431   0.411   7.172   7.267  1.7335  0.1464  1.6933
   11SAPS   H8Y 1432   0.317   7.314   7.284  0.0168 -1.4936  1.8029
   11SAPS   C39 1433   0.511   7.332   7.385 -0.3746 -0.3086 -0.4557
   11SAPS   H9X 1434   0.516   7.441   7.363  1.4401 -0.1476  0.5225
   11SAPS   H9Y 1435   0.617   7.301   7.376  0.3494  2.1541 -1.2298
   11SAPS  C310 1436   0.450   7.311   7.526  0.0243  0.4685 -0.6703
   11SAPS  H10X 1437   0.477   7.209   7.561 -1.3154 -0.1729 -1.4253
   11SAPS  H10Y 1438   0.341   7.306   7.509  0.2952  0.3948 -2.6580
   11SAPS  C311 1439   0.473   7.419   7.634 -0.6691 -0.0146 -0.5184
   11SAPS  H11X 1440   0.422   7.510   7.597 -0.1070  0.0967 -1.0421
   11SAPS  H11Y 1441   0.584   7.426   7.643 -0.8213  0.5022  1.3436
   11SAPS  C312 1442   0.422   7.367   7.763  0.3175 -0.1122 -0.3508
   11SAPS  H12X 1443   0.454   7.264   7.789  1.7532  0.6505  1.1537
   11SAPS  H12Y 1444   0.311   7.365   7.755  0.3968  1.0730 -2.1895
   11SAPS  C313 1445   0.479   7.465   7.866  0.2940  0.4144 -0.1225
   11SAPS  H13X 1446   0.484   7.569   7.828  1.6079 -0.3720 -2.2732
   11SAPS  H13Y 1447   0.583   7.432   7.889  0.4749  1.3830  0.4828
   11SAPS  C314 1448   0.403   7.449   8.001 -0.2028  0.3921 -0.1099
   11SAPS  H14X 1449   0.298   7.485   7.993 -0.6750 -1.2344 -2.3026
   11SAPS  H14Y 1450   0.447   7.516   8.077 -2.3176 -0.3860  1.9048
   11SAPS  C315 1451   0.409   7.307   8.065 -0.1109  0.3764  0.5458
   11SAPS  H15X 1452   0.513   7.269   8.069 -0.4296 -0.4753  1.2102
   11SAPS  H15Y 1453   0.365   7.232   7.996  1.3580  1.4463 -1.6849
   11SAPS  C316 1454   0.346   7.315   8.196 -0.5692  0.9346 -0.1094
   11SAPS  H16X 1455   0.254   7.377   8.201  0.1359  1.8978  2.2677
   11SAPS  H16Y 1456   0.418   7.364   8.265 -1.1934  1.5922  0.0801
   11SAPS  C317 1457   0.307   7.177   8.248  1.1667 -0.5559  0.4020
   11SAPS  H17X 1458   0.387   7.102   8.267 -0.9844 -2.9134  0.5298
   11SAPS  H17Y 1459   0.251   7.127   8.166  1.0587 -3.2263  1.9899
   11SAPS  C318 1460   0.236   7.183   8.387 -0.2545 -0.1258 -0.0582
   11SAPS  H18X 1461   0.316   7.202   8.462 -1.0137  0.8064  0.5506
   11SAPS  H18Y 1462   0.181   7.089   8.410 -1.0479 -0.6823 -3.6229
   11SAPS  H18Z 1463   0.170   7.272   8.384 -0.4827 -0.3052 -0.3984
   12SAPS     N 1464   2.864   3.289   6.094  0.2456  0.3734 -0.3172
   12SAPS   HN1 1465   2.841   3.245   6.003  2.0678 -0.3806 -0.4364
   12SAPS   HN2 1466   2.957   3.247   6.115 -1.1454 -2.4371  0.7627
   12SAPS   HN3 1467   2.795   3.267   6.170  0.8365 -2.4155 -0.4778
   12SAPS   C12 1468   2.891   3.441   6.082  0.3048 -0.0984  0.1533
   12SAPS  H12A 1469   2.918   3.481   6.178 -1.1512 -1.6050  1.2465
   12SAPS   C13 1470   3.007   3.479   5.983 -0.0658  0.1164 -0.5031
   12SAPS  O13A 1471   3.050   3.386   5.906  0.2017  0.5008 -0.3604
   12SAPS  O13B 1472   3.072   3.581   6.018  0.0031  0.5762 -0.2204
   12SAPS   C11 1473   2.760   3.509   6.030 -0.3350  0.5000  0.2146
   12SAPS  H11A 1474   2.735   3.467   5.930 -0.0465 -0.0105  0.3531
   12SAPS  H11B 1475   2.779   3.618   6.025 -2.9819  0.9901 -2.2648
   12SAPS     P 1476   2.580   3.594   6.204  0.1317 -0.5181  0.3188
   12SAPS   O13 1477   2.672   3.691   6.265 -0.3848 -0.4530 -0.3131
   12SAPS   O14 1478   2.476   3.650   6.110 -0.1384  0.6369  0.0646
   12SAPS   O12 1479   2.651   3.488   6.114 -0.0880  0.3129 -0.4945
   12SAPS   O11 1480   2.509   3.493   6.311  0.1847  0.3491  0.5378
   12SAPS    C1 1481   2.586   3.456   6.424 -0.3931  0.0953 -0.3968
   12SAPS    HA 1482   2.617   3.349   6.422  3.1553  1.0197 -0.1204
   12SAPS    HB 1483   2.680   3.511   6.442  0.1646 -0.4450 -1.5383
   12SAPS    C2 1484   2.504   3.491   6.557  0.2881 -0.4727  0.0006
   12SAPS    HS 1485   2.514   3.598   6.586  3.5305 -0.5290 -0.4507
   12SAPS   O21 1486   2.556   3.407   6.661  0.0989  0.0028 -0.4705
   12SAPS   C21 1487   2.670   3.440   6.715 -0.3306 -0.1912  0.0204
   12SAPS   O22 1488   2.756   3.518   6.670 -0.7503  1.0393 -0.0931
   12SAPS   C22 1489   2.688   3.354   6.835 -0.5271  0.4255  0.0889
   12SAPS   H2R 1490   2.587   3.317   6.863  0.2542 -2.0781 -0.1430
   12SAPS   H2S 1491   2.753   3.265   6.818 -1.4695 -0.8051  2.5420
   12SAPS    C3 1492   2.353   3.467   6.536 -0.4445 -0.3864 -0.8838
   12SAPS    HX 1493   2.330   3.375   6.478 -0.0043  0.0271 -1.7225
   12SAPS    HY 1494   2.323   3.553   6.473 -1.2117 -1.8508 -2.6043
   12SAPS   O31 1495   2.285   3.476   6.661  1.0427 -0.5181  0.0534
   12SAPS   C31 1496   2.261   3.371   6.728  0.9164  1.4001 -0.3775
   12SAPS   O32 1497   2.298   3.254   6.697  0.3503 -0.2341 -0.1924
   12SAPS   C32 1498   2.175   3.404   6.847  0.3768 -0.7991  0.1358
   12SAPS   H2X 1499   2.092   3.468   6.809  0.6619  0.3093  1.3181
   12SAPS   H2Y 1500   2.243   3.463   6.911  0.9312  1.3523 -2.2465
   12SAPS   C23 1501   2.747   3.431   6.944 -0.2054 -0.3218  0.3587
   12SAPS   H3R 1502   2.848   3.473   6.927  0.5594 -2.1067  0.3162
   12SAPS   H3S 1503   2.764   3.359   7.027 -2.0712 -1.3814 -0.1326
   12SAPS   C24 1504   2.659   3.542   7.010  0.0143 -0.0249  0.0981
   12SAPS   H4R 1505   2.620   3.617   6.937 -0.7645  0.5377  1.0573
   12SAPS   H4S 1506   2.725   3.594   7.084 -1.8364 -0.3003  2.0348
   12SAPS   C25 1507   2.543   3.469   7.082 -0.6030 -0.1579 -0.1006
   12SAPS   H5R 1508   2.454   3.438   7.025  0.1544  1.1110 -2.0556
   12SAPS   C26 1509   2.532   3.454   7.211  0.1177 -0.4251  0.1092
   12SAPS   H6R 1510   2.452   3.388   7.250 -0.9774  0.2141 -0.9933
   12SAPS   C27 1511   2.624   3.498   7.325  0.4901 -0.2111  0.5024
   12SAPS   H7R 1512   2.568   3.561   7.397 -1.3220  1.1156 -1.9435
   12SAPS   H7S 1513   2.681   3.578   7.274 -1.2497  0.4016 -0.5510
   12SAPS   C28 1514   2.718   3.390   7.373 -0.8340  0.2362  0.8041
   12SAPS   H8R 1515   2.763   3.338   7.287 -0.5521  0.7276  0.6567
   12SAPS   C29 1516   2.746   3.370   7.499  0.0276 -0.0208  0.3872
   12SAPS   H9R 1517   2.823   3.297   7.529  0.2118 -0.5752 -1.3475
   12SAPS  C210 1518   2.683   3.440   7.615 -0.4987 -0.2094  0.4677
   12SAPS  H10R 1519   2.595   3.505   7.592  2.8058  3.9589 -1.9073
   12SAPS  H10S 1520   2.763   3.509   7.650 -0.6723 -1.5711  3.8915
   12SAPS  C211 1521   2.658   3.349   7.732 -0.7803  0.3748  0.8407
   12SAPS  H11R 1522   2.574   3.280   7.719 -0.8454  0.2597  1.7511
   12SAPS  C212 1523   2.731   3.333   7.844  0.6588  0.7643  0.6223
   12SAPS  H12R 1524   2.688   3.271   7.923 -0.9620  1.4178  0.2904
   12SAPS  C213 1525   2.850   3.413   7.877 -0.0313  0.1331  0.5699
   12SAPS  H13R 1526   2.838   3.523   7.865  0.7982  0.0446 -1.3927
   12SAPS  H13S 1527   2.934   3.382   7.811 -0.9235 -1.7093  0.2137
   12SAPS  C214 1528   2.879   3.388   8.019 -0.6098 -0.5702  0.0527
   12SAPS  H14R 1529   2.801   3.384   8.096 -1.2284  0.0060 -0.5354
   12SAPS  C215 1530   3.001   3.381   8.078 -0.2086  0.7642 -0.3519
   12SAPS  H15R 1531   3.001   3.342   8.182  1.5143 -1.9751 -1.2477
   12SAPS  C216 1532   3.143   3.394   8.022  0.4477 -0.4122  0.3873
   12SAPS  H16R 1533   3.194   3.489   8.048 -0.1723 -0.1734  0.7315
   12SAPS  H16S 1534   3.131   3.387   7.911  1.4111 -0.6340  0.2893
   12SAPS  C217 1535   3.232   3.279   8.059 -0.0168 -0.1372  0.1502
   12SAPS  H17R 1536   3.336   3.308   8.033 -0.0661  0.1074  0.2192
   12SAPS  H17S 1537   3.201   3.183   8.013  0.8835 -0.7673  0.8304
   12SAPS  C218 1538   3.254   3.256   8.214 -0.1565  0.3806 -0.0263
   12SAPS  H18R 1539   3.317   3.165   8.226 -0.0783  0.6117  1.5584
   12SAPS  H18S 1540   3.157   3.231   8.262 -0.1924  1.5415  0.5226
   12SAPS  C219 1541   3.335   3.369   8.282  0.0412 -0.2263 -0.1148
   12SAPS  H19R 1542   3.270   3.458   8.289  2.5507  1.5988  1.6746
   12SAPS  H19S 1543   3.422   3.392   8.217 -0.1170  0.5877 -0.0491
   12SAPS  C220 1544   3.380   3.352   8.425 -1.0073  0.0538  0.1015
   12SAPS  H20R 1545   3.402   3.457   8.455 -2.5321  1.3237 -2.7943
   12SAPS  H20S 1546   3.477   3.300   8.435 -0.0134  1.8902  0.5471
   12SAPS  H20T 1547   3.299   3.307   8.485 -1.4109  0.9561  0.2531
   12SAPS   C33 1548   2.125   3.275   6.923 -0.0943 -0.3589  0.8583
   12SAPS   H3X 1549   2.138   3.186   6.859  0.5034 -0.6179  1.3284
   12SAPS   H3Y 1550   2.023   3.317   6.937  0.6119  1.9595 -0.2692
   12SAPS   C34 1551   2.193   3.262   7.051  0.2837  0.3788  0.1255
   12SAPS   H4X 1552   2.162   3.340   7.125  0.3898  1.6189 -1.1019
   12SAPS   H4Y 1553   2.302   3.279   7.038  0.1983 -0.7730 -2.5955
   12SAPS   C35 1554   2.166   3.125   7.116  0.3651 -0.1855  0.1307
   12SAPS   H5X 1555   2.196   3.049   7.041  0.7358 -1.3815  1.4431
   12SAPS   H5Y 1556   2.059   3.102   7.134 -0.5657  1.3342 -2.7768
   12SAPS   C36 1557   2.260   3.090   7.235 -0.0352 -0.0829 -0.9560
   12SAPS   H6X 1558   2.370   3.096   7.221  0.3030 -0.7980  1.1336
   12SAPS   H6Y 1559   2.232   2.983   7.246 -0.8886  0.2489  0.2516
   12SAPS   C37 1560   2.234   3.184   7.355  0.3945  0.8301 -0.2968
   12SAPS   H7X 1561   2.124   3.199   7.364  0.4995  0.8769  1.3042
   12SAPS   H7Y 1562   2.277   3.286   7.344  2.1792  0.2704  1.0027
   12SAPS   C38 1563   2.281   3.130   7.495  0.2542  1.0142 -0.2780
   12SAPS   H8X 1564   2.391   3.115   7.508 -0.1049 -1.3514  0.3933
   12SAPS   H8Y 1565   2.242   3.026   7.504  1.0236  0.8819  2.1359
   12SAPS   C39 1566   2.218   3.211   7.607 -0.9675 -0.0602  0.6109
   12SAPS   H9X 1567   2.107   3.221   7.613 -0.8096  2.1798  0.6282
   12SAPS   H9Y 1568   2.226   3.316   7.573 -3.3401  0.5435  1.7056
   12SAPS  C310 1569   2.278   3.190   7.748 -0.7290 -0.3219  0.0486
   12SAPS  H10X 1570   2.387   3.183   7.731 -0.8066 -1.0534 -0.2023
   12SAPS  H10Y 1571   2.247   3.086   7.773 -0.0061 -1.0171 -1.7913
   12SAPS  C311 1572   2.221   3.297   7.846 -0.5004 -0.4362 -0.4720
   12SAPS  H11X 1573   2.111   3.291   7.853 -0.4041 -0.6983  1.5606
   12SAPS  H11Y 1574   2.256   3.398   7.815 -1.5488  0.3835  0.8897
   12SAPS  C312 1575   2.258   3.261   7.994 -0.7540 -0.3014  0.0006
   12SAPS  H12X 1576   2.212   3.164   8.023  1.5662 -1.9584 -1.5027
   12SAPS  H12Y 1577   2.231   3.343   8.063 -0.6653  0.1947 -0.5430
   12SAPS  C313 1578   2.408   3.224   8.004  0.2283 -0.6089 -0.2745
   12SAPS  H13X 1579   2.464   3.307   7.956 -0.5156  0.3560  0.5031
   12SAPS  H13Y 1580   2.410   3.124   7.956 -1.2041 -0.2893 -1.0546
   12SAPS  C314 1581   2.450   3.208   8.149 -0.1975  0.8282  0.1654
   12SAPS  H14X 1582   2.551   3.164   8.157 -0.8764 -1.0352 -1.0223
   12SAPS  H14Y 1583   2.379   3.137   8.198 -0.0397  0.2536 -0.4248
   12SAPS  C315 1584   2.447   3.339   8.230 -0.2460  0.0942  0.4838
   12SAPS  H15X 1585   2.346   3.385   8.225  0.8578  2.4948 -1.4845
   12SAPS  H15Y 1586   2.506   3.415   8.174 -0.9045 -0.3080 -0.7957
   12SAPS  C316 1587   2.502   3.335   8.378  0.3398  0.0770 -0.4104
   12SAPS  H16X 1588   2.448   3.250   8.426  1.5163 -0.6200 -0.2979
   12SAPS  H16Y 1589   2.486   3.427   8.438  1.9004  1.8896 -2.5939
   12SAPS  C317 1590   2.649   3.304   8.394  0.6884  0.7236 -0.6942
   12SAPS  H17X 1591   2.676   3.224   8.321  0.0353  1.4117 -1.7168
   12SAPS  H17Y 1592   2.668   3.266   8.496 -1.0471 -0.7429 -0.8655
   12SAPS  C318 1593   2.733   3.429   8.386 -0.1970  0.2037  0.6372
   12SAPS  H18X 1594   2.696   3.501   8.461  0.2366  0.5303  0.5415
   12SAPS  H18Y 1595   2.733   3.477   8.286  2.1453  0.9802  0.9554
   12SAPS  H18Z 1596   2.839   3.400   8.403  0.1306 -0.2812 -1.8244
   13SAPS     N 1597   3.675   6.751   6.181  0.0386 -0.3466 -0.0321
   13SAPS   HN1 1598   3.592   6.704   6.223 -1.1367  1.8613  0.3061
   13SAPS   HN2 1599   3.677   6.750   6.077 -0.7919  0.5064 -0.0755
   13SAPS   HN3 1600   3.765   6.726   6.226 -1.1320  0.8001  3.3133
   13SAPS   C12 1601   3.646   6.893   6.207 -0.4469 -0.1397 -0.3517
   13SAPS  H12A 1602   3.651   6.910   6.314 -0.4732 -2.5481  0.0887
   13SAPS   C13 1603   3.759   6.976   6.149 -0.0292  0.7513 -0.5952
   13SAPS  O13A 1604   3.857   6.930   6.087 -0.0596  0.0591  0.2079
   13SAPS  O13B 1605   3.755   7.096   6.179 -0.1628  0.2926  0.2561
   13SAPS   C11 1606   3.506   6.917   6.148  0.1619 -0.2984  0.1887
   13SAPS  H11A 1607   3.517   6.912   6.038 -0.3855 -0.5420  0.1468
   13SAPS  H11B 1608   3.463   7.015   6.176  2.3308  0.5727  0.7309
   13SAPS     P 1609   3.275   6.777   6.153  0.7414 -0.4653 -0.1869
   13SAPS   O13 1610   3.221   6.868   6.050  0.2381 -0.2044  0.7622
   13SAPS   O14 1611   3.251   6.635   6.135 -0.3436  0.4671 -0.4165
   13SAPS   O12 1612   3.422   6.802   6.185 -0.6085 -0.1669  0.1699
   13SAPS   O11 1613   3.205   6.820   6.282 -0.2695  0.1081  0.0566
   13SAPS    C1 1614   3.191   6.954   6.326 -0.5307 -0.2187  0.7857
   13SAPS    HA 1615   3.272   7.018   6.287 -0.8681  0.5714  1.3680
   13SAPS    HB 1616   3.102   6.998   6.275  0.5090  0.3957 -0.5469
   13SAPS    C2 1617   3.173   6.961   6.478  0.6377 -0.4589  0.3748
   13SAPS    HS 1618   3.159   7.065   6.514 -1.2901  0.4604 -2.6342
   13SAPS   O21 1619   3.288   6.912   6.547  0.1782  0.3475 -0.0936
   13SAPS   C21 1620   3.404   6.970   6.524 -0.3491  0.7245 -0.3053
   13SAPS   O22 1621   3.428   7.066   6.456  0.4788 -0.0832 -0.5101
   13SAPS   C22 1622   3.516   6.891   6.607 -0.0307  0.2729  0.3418
   13SAPS   H2R 1623   3.472   6.798   6.650 -1.5454  1.1896  0.8450
   13SAPS   H2S 1624   3.594   6.875   6.529  1.5047  0.8460  1.7035
   13SAPS    C3 1625   3.049   6.867   6.530  0.1479 -0.3460 -0.2593
   13SAPS    HX 1626   3.073   6.763   6.500 -0.4102  0.0418 -2.1725
   13SAPS    HY 1627   2.955   6.902   6.483 -1.0168 -1.1205  1.4178
   13SAPS   O31 1628   3.027   6.883   6.673 -0.3609  0.2491  0.5963
   13SAPS   C31 1629   3.066   6.778   6.738  0.0516 -0.2197 -0.5129
   13SAPS   O32 1630   3.106   6.674   6.692 -0.0552  0.3873 -0.0573
   13SAPS   C32 1631   3.076   6.817   6.893  0.8143  0.3116  1.0395
   13SAPS   H2X 1632   2.974   6.802   6.935  0.4006  0.3260  0.0799
   13SAPS   H2Y 1633   3.096   6.927   6.895  0.5609  0.3650  0.7461
   13SAPS   C23 1634   3.570   6.982   6.718 -0.2824 -0.5894  0.1559
   13SAPS   H3R 1635   3.603   7.084   6.688 -1.4797 -0.0909  0.4772
   13SAPS   H3S 1636   3.656   6.929   6.763  0.0589 -1.6153 -1.6262
   13SAPS   C24 1637   3.469   6.994   6.832 -0.1627 -0.8447 -0.1063
   13SAPS   H4R 1638   3.442   6.889   6.853  0.7293 -0.8667  0.9933
   13SAPS   H4S 1639   3.383   7.045   6.783 -0.3197 -1.3861 -0.3996
   13SAPS   C25 1640   3.527   7.072   6.950  0.2868  0.7451  0.5054
   13SAPS   H5R 1641   3.503   7.179   6.953 -1.7664  0.4004 -1.1819
   13SAPS   C26 1642   3.598   7.016   7.046 -0.1661 -0.4953  0.5413
   13SAPS   H6R 1643   3.632   7.080   7.128 -2.5610 -0.6979  1.7814
   13SAPS   C27 1644   3.627   6.872   7.052  0.1298  0.6253  0.3151
   13SAPS   H7R 1645   3.643   6.822   6.954 -3.2235 -1.2517  0.5789
   13SAPS   H7S 1646   3.537   6.825   7.098  0.0730 -1.1032 -1.4591
   13SAPS   C28 1647   3.738   6.846   7.142  0.1338 -0.9705 -0.0359
   13SAPS   H8R 1648   3.827   6.822   7.083 -1.4325 -1.0407 -2.4902
   13SAPS   C29 1649   3.748   6.838   7.277 -0.6616  0.0993  0.0813
   13SAPS   H9R 1650   3.847   6.821   7.322  0.2762  1.4656 -1.3891
   13SAPS  C210 1651   3.630   6.862   7.380  0.1014  0.5744  0.0032
   13SAPS  H10R 1652   3.593   6.764   7.418  0.4657 -0.4285 -2.0772
   13SAPS  H10S 1653   3.547   6.921   7.335 -0.7943 -0.6521 -0.0032
   13SAPS  C211 1654   3.686   6.935   7.498  0.1169 -0.2205  0.0453
   13SAPS  H11R 1655   3.698   7.044   7.492  1.3529 -0.2416  1.3905
   13SAPS  C212 1656   3.719   6.884   7.618  0.5587  0.0000 -0.4213
   13SAPS  H12R 1657   3.737   6.949   7.706  1.9952  1.0313 -1.4295
   13SAPS  C213 1658   3.713   6.737   7.651 -0.1184  0.2341 -0.2525
   13SAPS  H13R 1659   3.688   6.673   7.564 -1.7823 -0.0596  0.4084
   13SAPS  H13S 1660   3.633   6.720   7.726 -0.0272 -3.3802 -0.8247
   13SAPS  C214 1661   3.845   6.687   7.709  0.5204 -0.1363 -0.1857
   13SAPS  H14R 1662   3.910   6.629   7.641  0.3377 -3.4094  2.2315
   13SAPS  C215 1663   3.900   6.688   7.836 -0.3814 -0.6272 -0.1789
   13SAPS  H15R 1664   4.005   6.660   7.852 -0.0494  1.2869  1.3352
   13SAPS  C216 1665   3.843   6.742   7.968  0.3227  0.7351 -0.6747
   13SAPS  H16R 1666   3.908   6.707   8.052  0.0682 -1.1457 -1.2046
   13SAPS  H16S 1667   3.755   6.677   7.988  0.7087  0.8815  1.8249
   13SAPS  C217 1668   3.806   6.889   7.987  0.4466  0.7018 -0.4096
   13SAPS  H17R 1669   3.702   6.916   7.961  0.6035  0.2823 -1.5713
   13SAPS  H17S 1670   3.871   6.927   7.905  0.5022  2.8278  0.5510
   13SAPS  C218 1671   3.836   6.939   8.129  0.2309 -0.6701  0.1434
   13SAPS  H18R 1672   3.837   7.050   8.129 -0.7940 -0.6420 -1.2269
   13SAPS  H18S 1673   3.936   6.899   8.156  1.0894 -1.1661 -3.3123
   13SAPS  C219 1674   3.739   6.889   8.240  0.1273 -0.0055  0.1463
   13SAPS  H19R 1675   3.756   6.781   8.257 -1.4296 -0.1521  0.9772
   13SAPS  H19S 1676   3.638   6.902   8.195  0.5601 -0.9050 -1.1255
   13SAPS  C220 1677   3.746   6.973   8.365  0.7266 -0.2541 -0.0591
   13SAPS  H20R 1678   3.674   6.939   8.443 -0.3137  0.3451 -0.7284
   13SAPS  H20S 1679   3.722   7.081   8.349 -1.4665 -0.6116  0.4638
   13SAPS  H20T 1680   3.849   6.967   8.407 -0.1462  1.5424  2.5926
   13SAPS   C33 1681   3.168   6.727   6.975  0.6383  0.7392  0.3227
   13SAPS   H3X 1682   3.274   6.753   6.956  0.9667 -0.0547  1.0067
   13SAPS   H3Y 1683   3.153   6.620   6.947  0.4167  0.3873  1.7314
   13SAPS   C34 1684   3.135   6.742   7.119  0.3029 -0.9103 -0.2168
   13SAPS   H4X 1685   3.187   6.667   7.183 -1.6103 -0.2903  2.1831
   13SAPS   H4Y 1686   3.027   6.721   7.136  0.5361 -2.2757 -0.2579
   13SAPS   C35 1687   3.173   6.881   7.173 -0.3826 -0.5886  0.0663
   13SAPS   H5X 1688   3.106   6.959   7.132 -0.5627  0.3949  2.0869
   13SAPS   H5Y 1689   3.275   6.913   7.143 -1.1420  0.7116 -1.2207
   13SAPS   C36 1690   3.181   6.888   7.328  0.4343  1.0532  0.1351
   13SAPS   H6X 1691   3.240   6.803   7.370  1.4918  0.7589 -1.8198
   13SAPS   H6Y 1692   3.081   6.861   7.367  0.2142  0.1693 -0.9821
   13SAPS   C37 1693   3.225   7.024   7.385  0.3792 -0.6367  0.0793
   13SAPS   H7X 1694   3.167   7.105   7.338  1.0682 -0.5834 -0.7029
   13SAPS   H7Y 1695   3.329   7.044   7.352  0.4690 -2.0123 -0.5663
   13SAPS   C38 1696   3.203   7.032   7.541  0.4933 -0.1920  0.1567
   13SAPS   H8X 1697   3.107   6.982   7.565  1.2151 -1.4773  0.4261
   13SAPS   H8Y 1698   3.220   7.141   7.560  1.1843 -0.1227 -0.8161
   13SAPS   C39 1699   3.319   6.958   7.619  0.2521  0.3748  0.1933
   13SAPS   H9X 1700   3.419   6.982   7.579 -0.5215 -0.7073 -2.6488
   13SAPS   H9Y 1701   3.300   6.850   7.601  0.7176 -0.0215  1.8477
   13SAPS  C310 1702   3.296   6.975   7.759  0.1411  0.0604  0.0765
   13SAPS  H10X 1703   3.187   6.969   7.777  0.1454 -1.3969 -0.2782
   13SAPS  H10Y 1704   3.335   7.076   7.785  2.3832 -0.9719  1.0353
   13SAPS  C311 1705   3.349   6.869   7.861 -0.2689 -0.0781  0.2228
   13SAPS  H11X 1706   3.459   6.865   7.844 -0.2065 -1.1447  0.7642
   13SAPS  H11Y 1707   3.305   6.770   7.835 -2.0832  1.1174 -1.6364
   13SAPS  C312 1708   3.311   6.887   8.006 -0.5115  0.8977  0.2069
   13SAPS  H12X 1709   3.337   6.794   8.062  3.8492  1.9627  0.3668
   13SAPS  H12Y 1710   3.205   6.912   8.026 -0.3316  1.9757 -0.1207
   13SAPS  C313 1711   3.394   6.989   8.080  0.0468 -0.1180 -0.1670
   13SAPS  H13X 1712   3.352   7.088   8.052 -2.3443  0.1041  3.5678
   13SAPS  H13Y 1713   3.500   6.969   8.053  0.3898 -0.5274  1.3989
   13SAPS  C314 1714   3.376   6.978   8.229 -0.1446 -1.1905 -0.3434
   13SAPS  H14X 1715   3.440   7.055   8.275 -2.0196 -0.9314  1.9974
   13SAPS  H14Y 1716   3.410   6.879   8.268 -1.6147 -0.8759  1.9281
   13SAPS  C315 1717   3.236   6.999   8.284 -0.2734 -0.0332 -0.4697
   13SAPS  H15X 1718   3.182   6.909   8.247 -0.8453  0.5076 -0.9758
   13SAPS  H15Y 1719   3.199   7.095   8.241  0.4415  0.5608  0.2057
   13SAPS  C316 1720   3.232   7.007   8.433 -0.2591  0.4778  0.7581
   13SAPS  H16X 1721   3.301   7.087   8.466 -0.5204  0.8187  0.4844
   13SAPS  H16Y 1722   3.265   6.905   8.465 -2.1182 -0.3133  0.3028
   13SAPS  C317 1723   3.091   7.027   8.494  0.1780  0.4784  0.0874
   13SAPS  H17X 1724   3.020   6.958   8.443  1.1520 -0.9565  0.5830
   13SAPS  H17Y 1725   3.060   7.133   8.484  0.1853  0.5242  0.5212
   13SAPS  C318 1726   3.080   6.975   8.637 -0.1447  0.2619  0.1955
   13SAPS  H18X 1727   2.998   7.031   8.686 -0.6067  1.5826 -1.9302
   13SAPS  H18Y 1728   3.174   7.002   8.690 -1.3439  2.5552  1.2919
   13SAPS  H18Z 1729   3.066   6.865   8.643  1.2437 -0.0155 -0.9690
   14SAPS     N 1730   2.155   2.483   5.864 -0.7996 -0.1827 -0.1481
   14SAPS   HN1 1731   2.186   2.538   5.781 -0.7914  0.9578  0.5986
   14SAPS   HN2 1732   2.057   2.508   5.888  0.0465  3.4931  0.0456
   14SAPS   HN3 1733   2.198   2.525   5.949 -0.2929 -1.5090  0.2667
   14SAPS   C12 1734   2.170   2.333   5.857  0.5963  0.0218  0.4131
   14SAPS  H12A 1735   2.092   2.295   5.793 -1.2282 -0.0710  2.5548
   14SAPS   C13 1736   2.300   2.286   5.801 -0.3778  0.0279 -0.1842
   14SAPS  O13A 1737   2.385   2.363   5.744 -0.6351 -0.0432 -0.3875
   14SAPS  O13B 1738   2.318   2.163   5.789 -0.2035  0.0606 -0.5141
   14SAPS   C11 1739   2.143   2.273   5.998  0.3978  1.0411  0.1015
   14SAPS  H11A 1740   2.232   2.291   6.062  2.6183 -0.0081 -2.5016
   14SAPS  H11B 1741   2.149   2.163   5.986 -0.4847  0.9333  0.5628
   14SAPS     P 1742   1.896   2.214   6.052  0.2273 -0.0484  0.4334
   14SAPS   O13 1743   1.784   2.277   6.123 -0.4160  0.0200 -0.0391
   14SAPS   O14 1744   1.869   2.166   5.913 -0.1263  0.4687  0.2686
   14SAPS   O12 1745   2.015   2.316   6.063 -0.1332  0.5335  0.3330
   14SAPS   O11 1746   1.939   2.087   6.143  0.2910 -0.6265 -0.4973
   14SAPS    C1 1747   2.005   2.105   6.271 -0.0170 -0.2878  0.2571
   14SAPS    HA 1748   2.068   2.014   6.281 -1.4147 -1.2769  0.2349
   14SAPS    HB 1749   2.060   2.201   6.287 -2.1808  1.0530 -0.0189
   14SAPS    C2 1750   1.904   2.091   6.386  0.0220  0.2165  0.1796
   14SAPS    HS 1751   1.844   2.184   6.387 -3.4225 -1.8166  2.3249
   14SAPS   O21 1752   1.982   2.074   6.506 -0.2876 -0.0144 -0.1566
   14SAPS   C21 1753   1.932   2.130   6.612 -0.9368 -0.2487 -0.1680
   14SAPS   O22 1754   1.833   2.202   6.622 -0.0059 -0.7043 -0.2636
   14SAPS   C22 1755   2.000   2.085   6.740 -0.1041  0.0292 -0.2652
   14SAPS   H2R 1756   1.956   1.986   6.761  0.4396 -0.6240 -2.0140
   14SAPS   H2S 1757   2.109   2.068   6.729  0.2214  0.1552  2.2347
   14SAPS    C3 1758   1.805   1.973   6.360 -0.3603  0.0809  0.9035
   14SAPS    HX 1759   1.872   1.889   6.330 -0.2560 -0.0074  1.3746
   14SAPS    HY 1760   1.740   1.992   6.272  2.2179 -1.6871 -1.5664
   14SAPS   O31 1761   1.735   1.930   6.481 -0.2459 -0.2573  0.1340
   14SAPS   C31 1762   1.626   1.990   6.503  0.4189 -0.8891 -0.0977
   14SAPS   O32 1763   1.572   2.085   6.438  0.0270  0.0271 -0.2660
   14SAPS   C32 1764   1.557   1.932   6.627 -0.1679  0.2580  0.2079
   14SAPS   H2X 1765   1.538   1.826   6.599 -1.7866  0.1546  1.5386
   14SAPS   H2Y 1766   1.455   1.970   6.648 -0.4044 -1.5559  2.8360
   14SAPS   C23 1767   1.975   2.178   6.855  0.1502  0.4368 -0.4007
   14SAPS   H3R 1768   1.871   2.166   6.893 -0.0452  0.9729 -0.7439
   14SAPS   H3S 1769   1.994   2.284   6.826  2.4754  0.0701 -0.3969
   14SAPS   C24 1770   2.089   2.155   6.957 -0.6639  0.4845 -0.2806
   14SAPS   H4R 1771   2.090   2.240   7.028 -0.4703 -0.8510  1.3766
   14SAPS   H4S 1772   2.188   2.163   6.907  0.5703 -1.9299  1.5379
   14SAPS   C25 1773   2.067   2.028   7.039  0.0268 -0.0750  0.1602
   14SAPS   H5R 1774   2.085   1.935   6.982  1.6153 -1.3362  2.5230
   14SAPS   C26 1775   2.043   2.013   7.167 -0.1043 -0.0221 -0.1343
   14SAPS   H6R 1776   2.024   1.913   7.208 -2.9801  0.9625  1.2498
   14SAPS   C27 1777   2.038   2.113   7.277 -0.3479 -0.3838  0.4174
   14SAPS   H7R 1778   1.988   2.061   7.362  2.6563 -0.2924  2.4107
   14SAPS   H7S 1779   1.991   2.210   7.251  1.5895  0.3595 -0.5165
   14SAPS   C28 1780   2.184   2.144   7.328  0.1105  0.0893 -0.1547
   14SAPS   H8R 1781   2.238   2.209   7.258  1.9243 -1.7631 -0.5644
   14SAPS   C29 1782   2.245   2.109   7.442 -1.0031 -0.7391  0.7121
   14SAPS   H9R 1783   2.336   2.165   7.469 -1.2816 -0.0160  0.1847
   14SAPS  C210 1784   2.194   2.031   7.558  0.1325 -0.0128  0.2794
   14SAPS  H10R 1785   2.277   1.982   7.613  1.8847  1.2072 -1.1461
   14SAPS  H10S 1786   2.142   1.945   7.511  1.3463 -1.2533  1.1334
   14SAPS  C211 1787   2.116   2.122   7.650  0.1805 -0.2942 -0.1812
   14SAPS  H11R 1788   2.170   2.208   7.693 -2.6167  1.2838  0.3552
   14SAPS  C212 1789   1.994   2.099   7.706 -0.0159  0.2638  0.1804
   14SAPS  H12R 1790   1.950   2.164   7.783  2.3381 -0.4230  2.2408
   14SAPS  C213 1791   1.912   1.976   7.666  0.3053  0.3840 -0.8055
   14SAPS  H13R 1792   1.961   1.895   7.724 -2.4989 -1.2724 -0.5942
   14SAPS  H13S 1793   1.930   1.943   7.561 -1.9985  0.7977 -1.3812
   14SAPS  C214 1794   1.765   1.987   7.675  0.0793 -0.4924 -0.5464
   14SAPS  H14R 1795   1.711   2.050   7.603  1.0826 -1.6906 -2.4335
   14SAPS  C215 1796   1.694   1.936   7.772  0.2514  0.5957  0.4459
   14SAPS  H15R 1797   1.585   1.943   7.763  0.1641 -0.6020  0.4642
   14SAPS  C216 1798   1.734   1.851   7.882  0.0414  0.0473  0.0174
   14SAPS  H16R 1799   1.842   1.826   7.877 -0.2642 -1.5407  0.6088
   14SAPS  H16S 1800   1.675   1.757   7.879  1.7071 -1.0414  0.0424
   14SAPS  C217 1801   1.704   1.917   8.019 -0.3061 -0.0667  0.2449
   14SAPS  H17R 1802   1.595   1.936   8.034 -0.1023  1.7202 -0.2570
   14SAPS  H17S 1803   1.745   2.020   8.027 -1.3450  0.3625  0.2803
   14SAPS  C218 1804   1.752   1.834   8.138 -0.0659  0.3678  0.7005
   14SAPS  H18R 1805   1.859   1.861   8.155 -0.3888  2.5563 -0.3723
   14SAPS  H18S 1806   1.752   1.725   8.121  1.4217  0.6321 -1.5062
   14SAPS  C219 1807   1.679   1.861   8.263 -0.2878  0.4162 -0.1634
   14SAPS  H19R 1808   1.725   1.798   8.343  0.5273 -0.0470 -0.9797
   14SAPS  H19S 1809   1.573   1.830   8.260 -0.7498  1.6393  1.7655
   14SAPS  C220 1810   1.685   2.008   8.318 -0.6955 -0.7022 -0.2280
   14SAPS  H20R 1811   1.615   2.019   8.403  0.4065 -1.6268  0.8476
   14SAPS  H20S 1812   1.658   2.084   8.242 -1.1848 -1.2247 -0.5757
   14SAPS  H20T 1813   1.789   2.026   8.355  0.2122 -1.7762 -2.1111
   14SAPS   C33 1814   1.646   1.944   6.753  0.3721 -0.3483  0.2571
   14SAPS   H3X 1815   1.680   2.049   6.768 -0.7041  0.1099 -0.3847
   14SAPS   H3Y 1816   1.730   1.876   6.726  0.3687 -0.1395 -0.2994
   14SAPS   C34 1817   1.567   1.898   6.871  0.9963 -0.1311  0.6869
   14SAPS   H4X 1818   1.515   1.801   6.858 -3.0549  1.6994  1.3968
   14SAPS   H4Y 1819   1.483   1.967   6.893 -1.2358 -1.3528 -3.0685
   14SAPS   C35 1820   1.655   1.900   6.990 -0.0734  0.8228 -0.2272
   14SAPS   H5X 1821   1.706   1.999   6.993  0.3374  0.6362 -0.9407
   14SAPS   H5Y 1822   1.735   1.824   6.999  0.4271  1.4963  1.4417
   14SAPS   C36 1823   1.571   1.873   7.118  0.0950  0.0913 -0.4885
   14SAPS   H6X 1824   1.535   1.768   7.117 -3.0556  1.0307  0.8858
   14SAPS   H6Y 1825   1.479   1.936   7.126 -0.8216 -1.1091 -1.1590
   14SAPS   C37 1826   1.661   1.891   7.240 -0.0628  0.0429 -0.9764
   14SAPS   H7X 1827   1.765   1.887   7.202 -0.7621 -0.8528 -2.9400
   14SAPS   H7Y 1828   1.645   1.809   7.313  1.9462  1.1355  0.8193
   14SAPS   C38 1829   1.652   2.024   7.311  0.6035 -1.4001  0.4026
   14SAPS   H8X 1830   1.727   2.036   7.392  0.3530 -1.9666  0.7193
   14SAPS   H8Y 1831   1.548   2.022   7.351 -0.4984 -0.5188 -2.1601
   14SAPS   C39 1832   1.656   2.155   7.222  0.1150  0.3509 -0.8259
   14SAPS   H9X 1833   1.580   2.142   7.142 -1.4854  2.0431  0.3184
   14SAPS   H9Y 1834   1.753   2.171   7.170  1.8431  0.2934  2.1468
   14SAPS  C310 1835   1.614   2.294   7.288 -0.1908  0.3896 -0.4719
   14SAPS  H10X 1836   1.524   2.271   7.349  0.3826  1.2829  0.7576
   14SAPS  H10Y 1837   1.603   2.371   7.209  1.7389 -0.5233 -1.7168
   14SAPS  C311 1838   1.711   2.358   7.396  0.0306 -0.5738  0.6528
   14SAPS  H11X 1839   1.809   2.383   7.348 -0.6404  0.1770 -0.3859
   14SAPS  H11Y 1840   1.725   2.284   7.477  1.7737 -1.4900 -0.4034
   14SAPS  C312 1841   1.649   2.496   7.448 -0.4171  0.1497  0.5045
   14SAPS  H12X 1842   1.695   2.577   7.388 -1.2397  1.4617  1.5945
   14SAPS  H12Y 1843   1.682   2.501   7.554 -0.9691 -3.1526  0.9566
   14SAPS  C313 1844   1.490   2.514   7.457  0.6032 -0.7109  0.6708
   14SAPS  H13X 1845   1.440   2.461   7.373  0.6914  0.9230 -0.4759
   14SAPS  H13Y 1846   1.470   2.622   7.440  1.1852 -0.7494 -0.3607
   14SAPS  C314 1847   1.426   2.468   7.587  0.4189 -1.1914  0.0939
   14SAPS  H14X 1848   1.482   2.530   7.660 -1.8251  0.1441  0.8124
   14SAPS  H14Y 1849   1.452   2.362   7.609  0.9213 -0.7738  1.6802
   14SAPS  C315 1850   1.277   2.496   7.586  0.7229  0.3814 -0.4092
   14SAPS  H15X 1851   1.247   2.434   7.498 -0.1790 -0.6187  0.5756
   14SAPS  H15Y 1852   1.265   2.603   7.559  0.4981  0.2758 -0.7386
   14SAPS  C316 1853   1.205   2.446   7.715  0.8187  0.4188 -0.4278
   14SAPS  H16X 1854   1.097   2.460   7.692  0.9375 -0.1703 -1.4323
   14SAPS  H16Y 1855   1.231   2.517   7.797  0.5474  0.4060 -0.3287
   14SAPS  C317 1856   1.227   2.304   7.774  0.7318 -0.0636 -1.3612
   14SAPS  H17X 1857   1.313   2.312   7.845  0.1297  1.9071 -0.8033
   14SAPS  H17Y 1858   1.251   2.230   7.695 -0.2687 -1.2560 -0.5854
   14SAPS  C318 1859   1.104   2.263   7.848 -0.6729  0.2399 -0.3707
   14SAPS  H18X 1860   1.023   2.219   7.785 -1.6199 -1.6422  1.9774
   14SAPS  H18Y 1861   1.064   2.343   7.913 -2.5169 -0.9336  0.0150
   14SAPS  H18Z 1862   1.129   2.179   7.917  1.2454  1.5721  0.6397
   15SAPS     N 1863   0.994   0.679   5.557 -0.8315 -0.1541  0.0843
   15SAPS   HN1 1864   1.040   0.623   5.631  0.6367 -2.8925 -2.7028
   15SAPS   HN2 1865   0.890   0.674   5.553 -0.8358  0.6735 -1.8775
   15SAPS   HN3 1866   1.034   0.651   5.465 -0.5283  0.8540 -0.1030
   15SAPS   C12 1867   1.037   0.820   5.564 -0.4232  0.6164  0.1097
   15SAPS  H12A 1868   1.140   0.793   5.582 -0.7160 -1.3614 -1.0074
   15SAPS   C13 1869   1.037   0.899   5.428 -0.0457  0.7802 -0.1165
   15SAPS  O13A 1870   1.011   0.830   5.327 -0.3180  0.0265 -0.0775
   15SAPS  O13B 1871   1.087   1.014   5.417 -0.3161 -0.2343 -0.5146
   15SAPS   C11 1872   0.959   0.889   5.678 -0.5754 -0.4220  0.0721
   15SAPS  H11A 1873   0.850   0.885   5.658 -0.8086 -0.0530  1.1881
   15SAPS  H11B 1874   0.990   0.996   5.682 -1.2763 -0.1577 -1.1103
   15SAPS     P 1875   0.902   0.887   5.922  0.0066 -0.0925 -0.4188
   15SAPS   O13 1876   0.938   1.033   5.931  0.8393  0.4958  0.6074
   15SAPS   O14 1877   0.761   0.850   5.916  0.5874 -0.0234 -0.4789
   15SAPS   O12 1878   0.986   0.825   5.803 -0.3419 -0.5204 -0.3267
   15SAPS   O11 1879   0.970   0.807   6.044  0.4104  0.3704  0.2642
   15SAPS    C1 1880   0.955   0.870   6.174  0.2908  0.9271  0.4094
   15SAPS    HA 1881   1.040   0.938   6.195 -0.6024  1.5746  2.2263
   15SAPS    HB 1882   0.858   0.923   6.187 -0.1831  0.4913 -1.1513
   15SAPS    C2 1883   0.963   0.769   6.297  0.2616 -0.7228 -0.2235
   15SAPS    HS 1884   0.965   0.829   6.390 -1.3710  1.3170 -1.3987
   15SAPS   O21 1885   1.080   0.693   6.294  0.1412  0.2855 -0.1823
   15SAPS   C21 1886   1.117   0.641   6.404 -0.0143 -0.4620 -0.9664
   15SAPS   O22 1887   1.060   0.646   6.513 -0.2940 -0.2696  0.6374
   15SAPS   C22 1888   1.244   0.558   6.386  0.6939  0.0225  0.2503
   15SAPS   H2R 1889   1.212   0.478   6.315  1.9259 -0.8481  0.6302
   15SAPS   H2S 1890   1.314   0.631   6.339  2.2207 -1.7814 -0.4291
   15SAPS    C3 1891   0.842   0.670   6.303  0.0406 -0.3297 -0.2198
   15SAPS    HX 1892   0.861   0.589   6.377 -0.0083  0.1376  0.3170
   15SAPS    HY 1893   0.830   0.630   6.200  0.4423  0.5434 -0.6180
   15SAPS   O31 1894   0.720   0.735   6.352  0.1111  0.3295 -0.2243
   15SAPS   C31 1895   0.623   0.654   6.386  0.1173  0.7461  0.1874
   15SAPS   O32 1896   0.613   0.534   6.361 -0.5056 -0.8500  0.3896
   15SAPS   C32 1897   0.521   0.732   6.460  0.1605  0.4441  1.0074
   15SAPS   H2X 1898   0.438   0.664   6.490 -0.2470  0.1555 -0.6332
   15SAPS   H2Y 1899   0.468   0.803   6.392 -1.1455 -1.8249 -0.4894
   15SAPS   C23 1900   1.304   0.495   6.508 -0.1982 -0.1888  1.0869
   15SAPS   H3R 1901   1.360   0.407   6.471 -1.7145 -0.4829 -0.6744
   15SAPS   H3S 1902   1.225   0.450   6.572 -0.8611 -0.5844  0.0271
   15SAPS   C24 1903   1.375   0.594   6.598  0.9238  0.2135  0.5001
   15SAPS   H4R 1904   1.404   0.526   6.681 -0.1676 -0.8686  0.0281
   15SAPS   H4S 1905   1.294   0.660   6.637 -0.4811 -0.8901 -0.4345
   15SAPS   C25 1906   1.488   0.670   6.535 -0.2325  0.2979  0.5710
   15SAPS   H5R 1907   1.456   0.741   6.457  2.3599 -0.6252 -1.5121
   15SAPS   C26 1908   1.620   0.646   6.559 -0.3461 -0.0758  0.8194
   15SAPS   H6R 1909   1.697   0.705   6.508  0.3324 -1.6590 -0.0778
   15SAPS   C27 1910   1.666   0.545   6.660  0.2308  0.0409 -0.2252
   15SAPS   H7R 1911   1.612   0.449   6.645 -0.2297  0.2157  0.3049
   15SAPS   H7S 1912   1.629   0.579   6.759  2.6743  1.0717  0.3871
   15SAPS   C28 1913   1.820   0.526   6.663  0.3224  0.0950 -0.7679
   15SAPS   H8R 1914   1.880   0.598   6.606  0.4645  0.4804 -0.1390
   15SAPS   C29 1915   1.878   0.435   6.742  0.1731  0.1533 -0.0492
   15SAPS   H9R 1916   1.987   0.426   6.736  0.0996 -1.0361  0.2963
   15SAPS  C210 1917   1.825   0.337   6.836  0.3510  0.1184 -0.6393
   15SAPS  H10R 1918   1.762   0.266   6.778 -0.2781 -0.1624  0.3753
   15SAPS  H10S 1919   1.759   0.392   6.906 -0.9015  1.0807 -2.4833
   15SAPS  C211 1920   1.921   0.255   6.915  0.2659 -0.4666  0.5597
   15SAPS  H11R 1921   2.016   0.231   6.864  2.7061  1.8851  3.5736
   15SAPS  C212 1922   1.896   0.212   7.039  0.6715 -0.2119 -0.5426
   15SAPS  H12R 1923   1.972   0.154   7.093 -0.5644 -1.5725 -0.1858
   15SAPS  C213 1924   1.773   0.239   7.126  0.2475 -0.3372  0.5503
   15SAPS  H13R 1925   1.754   0.159   7.201  0.4834  1.2527  2.3935
   15SAPS  H13S 1926   1.686   0.250   7.057  0.9626  2.4638  0.0038
   15SAPS  C214 1927   1.780   0.369   7.201  0.3229  0.5447  0.3702
   15SAPS  H14R 1928   1.753   0.459   7.143  0.7587 -0.0410 -0.7843
   15SAPS  C215 1929   1.844   0.391   7.322  0.0991 -0.0113  0.3115
   15SAPS  H15R 1930   1.849   0.496   7.354 -0.0604  0.3295 -0.7544
   15SAPS  C216 1931   1.906   0.287   7.413  1.2720 -1.0097 -0.4455
   15SAPS  H16R 1932   2.015   0.283   7.389  1.6235  0.7833  0.6475
   15SAPS  H16S 1933   1.856   0.190   7.395  2.0478 -1.5445  0.2278
   15SAPS  C217 1934   1.898   0.316   7.564  0.0424 -0.0359 -0.4723
   15SAPS  H17R 1935   1.937   0.418   7.584  0.5321  0.0012 -1.5790
   15SAPS  H17S 1936   1.958   0.246   7.626  0.6882 -0.2904 -1.3737
   15SAPS  C218 1937   1.749   0.326   7.603 -0.0326  0.6588 -0.2283
   15SAPS  H18R 1938   1.700   0.229   7.577 -1.4488  1.0715  0.7670
   15SAPS  H18S 1939   1.694   0.408   7.554  0.7083  2.4057  1.7273
   15SAPS  C219 1940   1.736   0.363   7.748  0.1674 -0.8082 -0.4222
   15SAPS  H19R 1941   1.639   0.412   7.772  0.8455  0.5392 -0.3761
   15SAPS  H19S 1942   1.808   0.445   7.767 -0.4549 -0.8755  2.7613
   15SAPS  C220 1943   1.771   0.247   7.833  0.2420  0.6236 -1.0578
   15SAPS  H20R 1944   1.691   0.170   7.846  0.7337  0.2220 -0.3278
   15SAPS  H20S 1945   1.786   0.281   7.938  1.3526 -3.9144  0.5101
   15SAPS  H20T 1946   1.868   0.201   7.807  0.8621  1.6822 -0.6763
   15SAPS   C33 1947   0.576   0.812   6.576  0.2415 -0.0620  0.1078
   15SAPS   H3X 1948   0.653   0.882   6.536 -0.2485  0.3883 -0.0663
   15SAPS   H3Y 1949   0.625   0.750   6.654 -0.3909  0.8743  1.2801
   15SAPS   C34 1950   0.462   0.892   6.632 -0.1605  0.2771 -0.3207
   15SAPS   H4X 1951   0.390   0.825   6.683  0.4696 -0.7266 -0.6981
   15SAPS   H4Y 1952   0.407   0.944   6.551  0.7007 -0.9178 -1.7542
   15SAPS   C35 1953   0.500   0.985   6.745 -0.9520 -0.3362 -0.4706
   15SAPS   H5X 1954   0.405   1.037   6.771 -1.8639 -2.4632  0.7100
   15SAPS   H5Y 1955   0.578   1.059   6.719 -2.0656  0.9604 -0.2185
   15SAPS   C36 1956   0.527   0.917   6.884 -0.1758 -0.6951 -0.2499
   15SAPS   H6X 1957   0.632   0.882   6.882  0.2512  0.4854  0.5963
   15SAPS   H6Y 1958   0.465   0.825   6.884  1.4079 -1.8083  0.7462
   15SAPS   C37 1959   0.495   1.009   7.001 -0.1617 -0.3656 -0.0840
   15SAPS   H7X 1960   0.400   1.065   6.984  2.6624  4.0163 -4.2118
   15SAPS   H7Y 1961   0.580   1.081   6.994 -1.0795  0.5831 -3.4743
   15SAPS   C38 1962   0.506   0.931   7.135  0.6786 -0.0929 -0.2151
   15SAPS   H8X 1963   0.612   0.906   7.157  0.6502 -3.1672 -2.8091
   15SAPS   H8Y 1964   0.455   0.833   7.117 -0.6330 -0.4692  4.3477
   15SAPS   C39 1965   0.446   1.007   7.255  0.7328  0.5059  0.6022
   15SAPS   H9X 1966   0.340   1.029   7.231  0.6775  0.2416  0.5934
   15SAPS   H9Y 1967   0.496   1.103   7.279  0.7669  0.6178  0.0908
   15SAPS  C310 1968   0.450   0.918   7.382  0.4686  1.0819 -0.3191
   15SAPS  H10X 1969   0.552   0.876   7.392 -0.3825 -0.8168  0.7776
   15SAPS  H10Y 1970   0.383   0.831   7.365 -2.0939  2.7705  0.4867
   15SAPS  C311 1971   0.403   1.004   7.498 -0.0656  0.1145 -0.0942
   15SAPS  H11X 1972   0.382   0.930   7.578  0.4814 -0.7216 -0.7138
   15SAPS  H11Y 1973   0.303   1.041   7.465 -1.1659 -0.9095  1.9408
   15SAPS  C312 1974   0.484   1.130   7.546 -0.1854 -0.1359 -0.2815
   15SAPS  H12X 1975   0.422   1.156   7.634 -0.2880  1.6848 -0.8420
   15SAPS  H12Y 1976   0.491   1.215   7.475  2.3181 -0.1198 -0.1276
   15SAPS  C313 1977   0.627   1.095   7.590 -0.6300  0.7825 -0.4136
   15SAPS  H13X 1978   0.685   1.187   7.612  1.1373  0.1814 -2.2048
   15SAPS  H13Y 1979   0.678   1.046   7.504  0.1303  0.0214  0.4507
   15SAPS  C314 1980   0.636   0.999   7.703 -0.5756  0.3516  0.2159
   15SAPS  H14X 1981   0.719   0.928   7.686 -0.3999  0.5503  0.2414
   15SAPS  H14Y 1982   0.550   0.932   7.721 -0.6501  0.2838 -0.3700
   15SAPS  C315 1983   0.678   1.075   7.828  0.2184 -0.1548 -0.9040
   15SAPS  H15X 1984   0.592   1.133   7.866 -1.4802 -2.9871 -0.0759
   15SAPS  H15Y 1985   0.765   1.137   7.799 -0.7375  1.2016 -0.9188
   15SAPS  C316 1986   0.721   0.973   7.933 -0.3570  0.3956 -0.3442
   15SAPS  H16X 1987   0.822   0.935   7.903 -0.6918 -1.5855  0.8223
   15SAPS  H16Y 1988   0.652   0.886   7.938  0.4401 -0.1877  1.3013
   15SAPS  C317 1989   0.740   1.032   8.074 -0.2781 -0.2070  0.6265
   15SAPS  H17X 1990   0.777   0.961   8.151  1.7430  0.3013  0.1701
   15SAPS  H17Y 1991   0.646   1.073   8.119 -1.2395 -1.2592 -0.3509
   15SAPS  C318 1992   0.849   1.132   8.065 -0.0556 -0.0874  0.3464
   15SAPS  H18X 1993   0.925   1.117   7.985  0.8400 -1.5307  1.4202
   15SAPS  H18Y 1994   0.903   1.132   8.162  1.3065 -2.8715 -0.3126
   15SAPS  H18Z 1995   0.801   1.231   8.049 -1.3606 -0.6548  0.6667
   16SAPS     N 1996   1.092   4.933   6.748  0.2260  0.6810  0.0417
   16SAPS   HN1 1997   1.087   5.024   6.699  0.3186  0.7055  0.0776
   16SAPS   HN2 1998   1.005   4.909   6.800  0.5660  0.8996  0.7334
   16SAPS   HN3 1999   1.171   4.942   6.815 -0.1055 -2.3896  1.0052
   16SAPS   C12 2000   1.132   4.828   6.656  0.0811 -0.0743 -0.4166
   16SAPS  H12A 2001   1.145   4.744   6.723 -0.9332 -2.1685 -2.6946
   16SAPS   C13 2002   1.024   4.786   6.550  0.3853  0.4131 -0.0389
   16SAPS  O13A 2003   0.921   4.858   6.525  0.1281  0.6518 -0.1183
   16SAPS  O13B 2004   1.060   4.696   6.471  0.0191 -0.2064  0.4079
   16SAPS   C11 2005   1.270   4.868   6.599 -0.3411  0.0157 -0.2736
   16SAPS  H11A 2006   1.241   4.948   6.528 -1.3752 -0.8038 -0.8095
   16SAPS  H11B 2007   1.315   4.780   6.548 -0.5637 -1.4763  1.9505
   16SAPS     P 2008   1.500   4.977   6.629 -0.4964 -0.4948 -0.0529
   16SAPS   O13 2009   1.513   4.943   6.484  0.4087  0.2788 -1.0138
   16SAPS   O14 2010   1.514   5.119   6.659 -0.1669 -0.6490 -0.3920
   16SAPS   O12 2011   1.366   4.916   6.693 -0.6778  0.0185 -0.3333
   16SAPS   O11 2012   1.600   4.887   6.708 -0.0311  0.0203  0.4086
   16SAPS    C1 2013   1.736   4.918   6.742  0.5108 -0.2628  0.2040
   16SAPS    HA 2014   1.808   4.855   6.685  1.3815 -0.6775  1.7149
   16SAPS    HB 2015   1.756   5.023   6.714  0.1943 -0.3533 -0.3857
   16SAPS    C2 2016   1.761   4.915   6.894 -0.6799  0.0452  0.4596
   16SAPS    HS 2017   1.870   4.926   6.909  0.1252 -2.7884 -2.2353
   16SAPS   O21 2018   1.714   4.793   6.949  0.0520 -0.5742 -0.0999
   16SAPS   C21 2019   1.794   4.737   7.044  0.1823 -0.0840 -0.0993
   16SAPS   O22 2020   1.900   4.780   7.090 -0.0153 -0.2117 -0.2080
   16SAPS   C22 2021   1.737   4.599   7.082  0.3149  0.0710 -0.0576
   16SAPS   H2R 2022   1.698   4.546   6.992 -1.1761  0.7653  0.1404
   16SAPS   H2S 2023   1.818   4.546   7.137 -0.4463  1.3806  2.4737
   16SAPS    C3 2024   1.682   5.036   6.965 -0.6325  0.5622 -0.3485
   16SAPS    HX 2025   1.579   5.037   6.925 -0.3926 -1.1219 -1.0613
   16SAPS    HY 2026   1.722   5.136   6.936 -0.8241  0.8248  0.2889
   16SAPS   O31 2027   1.691   5.032   7.106  0.4967 -0.0502 -0.0819
   16SAPS   C31 2028   1.590   4.981   7.169  0.2477  0.1052  0.3758
   16SAPS   O32 2029   1.484   4.941   7.120 -0.2148 -0.0344 -0.9618
   16SAPS   C32 2030   1.619   4.975   7.314 -0.3194 -0.4911 -0.5478
   16SAPS   H2X 2031   1.648   5.079   7.340  0.0110 -0.1476 -2.2031
   16SAPS   H2Y 2032   1.711   4.914   7.328 -0.5652 -1.6308 -3.2118
   16SAPS   C23 2033   1.619   4.608   7.175 -0.5142 -0.1273  0.5721
   16SAPS   H3R 2034   1.541   4.659   7.114  1.8689  2.6528 -0.3811
   16SAPS   H3S 2035   1.652   4.671   7.261 -0.2561 -0.0045  0.3823
   16SAPS   C24 2036   1.561   4.474   7.236 -0.1257 -0.4456  0.6527
   16SAPS   H4R 2037   1.515   4.419   7.151 -2.6383  0.4376  1.3624
   16SAPS   H4S 2038   1.487   4.500   7.314 -0.8669 -0.8541  0.0974
   16SAPS   C25 2039   1.661   4.393   7.299 -0.0664  0.3321 -0.0211
   16SAPS   H5R 2040   1.710   4.333   7.221 -3.0463  0.5942 -2.3011
   16SAPS   C26 2041   1.683   4.386   7.434 -0.2008 -0.2539  0.2557
   16SAPS   H6R 2042   1.754   4.306   7.462  1.8788  1.0347 -1.0867
   16SAPS   C27 2043   1.628   4.477   7.542  0.0560  0.1272  0.0373
   16SAPS   H7R 2044   1.593   4.574   7.502 -0.2293  0.4742  1.0764
   16SAPS   H7S 2045   1.708   4.489   7.619  0.1777 -0.8395  0.0803
   16SAPS   C28 2046   1.506   4.405   7.605 -0.2527 -0.1166 -0.0962
   16SAPS   H8R 2047   1.433   4.376   7.529  0.4675  0.9345 -1.2242
   16SAPS   C29 2048   1.490   4.370   7.737  0.3749  0.1020  0.5497
   16SAPS   H9R 2049   1.403   4.309   7.765  1.3085 -0.8379  1.5308
   16SAPS  C210 2050   1.582   4.405   7.856  0.0883  0.5985 -0.0399
   16SAPS  H10R 2051   1.604   4.512   7.840  3.3031 -0.1289 -1.1879
   16SAPS  H10S 2052   1.680   4.354   7.845 -0.9028 -1.4385 -0.0847
   16SAPS  C211 2053   1.531   4.377   7.999  0.5039 -0.0777  0.9633
   16SAPS  H11R 2054   1.470   4.286   8.015 -2.6666  2.0705  1.9822
   16SAPS  C212 2055   1.541   4.451   8.107 -0.0272  0.1903 -0.1219
   16SAPS  H12R 2056   1.504   4.416   8.205  3.1104 -0.3068  1.0347
   16SAPS  C213 2057   1.595   4.587   8.114 -0.2570 -0.0026  0.0915
   16SAPS  H13R 2058   1.626   4.621   8.013 -0.2347 -1.6747 -0.4943
   16SAPS  H13S 2059   1.689   4.574   8.172 -0.2196  0.5012  0.1517
   16SAPS  C214 2060   1.489   4.684   8.167 -0.5770  1.0957  0.4923
   16SAPS  H14R 2061   1.399   4.680   8.104 -0.0275 -1.6382 -0.2338
   16SAPS  C215 2062   1.510   4.773   8.260 -0.1362  0.2846  0.6079
   16SAPS  H15R 2063   1.427   4.838   8.288  0.1412  1.5340 -1.2624
   16SAPS  C216 2064   1.644   4.789   8.334 -0.6162  0.0172  0.5551
   16SAPS  H16R 2065   1.652   4.899   8.338 -0.0689 -0.0321  0.8198
   16SAPS  H16S 2066   1.732   4.758   8.273  0.2230  2.5417  0.3827
   16SAPS  C217 2067   1.654   4.745   8.477  0.0612  0.1441 -0.1873
   16SAPS  H17R 2068   1.562   4.773   8.534 -0.2192  1.8105 -1.3980
   16SAPS  H17S 2069   1.744   4.795   8.518 -0.3344  1.1646 -0.5370
   16SAPS  C218 2070   1.655   4.593   8.491 -0.5182 -0.2669 -0.4687
   16SAPS  H18R 2071   1.730   4.548   8.424 -0.6130 -1.6405  0.3190
   16SAPS  H18S 2072   1.559   4.546   8.461 -1.3769 -0.6160  2.5157
   16SAPS  C219 2073   1.695   4.546   8.634  0.0034 -1.0431  0.4541
   16SAPS  H19R 2074   1.627   4.598   8.705 -0.9141 -0.3139 -0.9153
   16SAPS  H19S 2075   1.798   4.586   8.647 -1.0257  1.6199  1.1413
   16SAPS  C220 2076   1.693   4.401   8.653  0.3400  0.6104  0.1014
   16SAPS  H20R 2077   1.725   4.363   8.752  0.5203 -3.9581 -1.4298
   16SAPS  H20S 2078   1.750   4.343   8.577 -1.0557 -0.0599 -0.4808
   16SAPS  H20T 2079   1.586   4.373   8.637  0.3340  1.6773 -2.0792
   16SAPS   C33 2080   1.498   4.921   7.389  0.1866 -0.4690  0.1201
   16SAPS   H3X 2081   1.492   4.815   7.358 -0.0770 -0.5723  0.5127
   16SAPS   H3Y 2082   1.406   4.977   7.360 -0.5957 -0.6651  2.0488
   16SAPS   C34 2083   1.505   4.930   7.542 -0.7773 -0.7219  0.4521
   16SAPS   H4X 2084   1.514   5.034   7.582 -1.0622 -0.0793 -1.0767
   16SAPS   H4Y 2085   1.595   4.877   7.578  1.7083  1.9805 -1.3224
   16SAPS   C35 2086   1.388   4.875   7.626 -0.5783  0.6023  0.8524
   16SAPS   H5X 2087   1.402   4.766   7.608 -0.3942  0.1789  3.2766
   16SAPS   H5Y 2088   1.287   4.915   7.599 -1.3491 -0.2223  2.3676
   16SAPS   C36 2089   1.404   4.897   7.778  0.6837  0.2797  0.3882
   16SAPS   H6X 2090   1.373   5.001   7.805  0.0173 -0.0834  1.0631
   16SAPS   H6Y 2091   1.509   4.886   7.812  0.4442 -2.9089  0.3120
   16SAPS   C37 2092   1.325   4.804   7.873 -0.3186  0.0621 -0.0582
   16SAPS   H7X 2093   1.342   4.847   7.973  0.1855  0.6199 -0.3779
   16SAPS   H7Y 2094   1.379   4.707   7.866  1.4751  1.0208  0.0799
   16SAPS   C38 2095   1.169   4.781   7.847  0.3424 -0.5368  0.0901
   16SAPS   H8X 2096   1.162   4.730   7.748 -1.8970  2.1307 -1.2597
   16SAPS   H8Y 2097   1.133   4.883   7.821  2.2138 -0.5227 -2.9233
   16SAPS   C39 2098   1.089   4.721   7.969 -0.3083 -0.0381  0.7157
   16SAPS   H9X 2099   1.129   4.625   8.006  0.3718 -0.0743 -0.0758
   16SAPS   H9Y 2100   0.983   4.711   7.936 -0.2088  3.0406 -0.8911
   16SAPS  C310 2101   1.081   4.819   8.087  0.3125  0.0336 -0.2362
   16SAPS  H10X 2102   1.032   4.914   8.057  1.2366  0.7604  0.4893
   16SAPS  H10Y 2103   1.181   4.858   8.115  0.0256  0.3874  0.3164
   16SAPS  C311 2104   1.005   4.759   8.208 -0.2249 -0.1927  0.3195
   16SAPS  H11X 2105   0.911   4.717   8.165 -0.6556 -2.0485  2.8121
   16SAPS  H11Y 2106   0.970   4.842   8.273 -3.4127 -1.6987  0.7668
   16SAPS  C312 2107   1.078   4.649   8.283  0.1500 -0.5629 -0.2964
   16SAPS  H12X 2108   1.134   4.578   8.218  0.7526  0.0477 -0.4598
   16SAPS  H12Y 2109   1.009   4.595   8.350  0.2392 -2.5098 -1.6783
   16SAPS  C313 2110   1.183   4.705   8.375  0.2952 -0.2097  0.2584
   16SAPS  H13X 2111   1.129   4.765   8.452 -0.7557 -0.1905 -0.4714
   16SAPS  H13Y 2112   1.246   4.773   8.314 -1.8066  0.9855 -0.7186
   16SAPS  C314 2113   1.269   4.602   8.452  0.9259 -0.7628 -0.1943
   16SAPS  H14X 2114   1.335   4.657   8.523  0.0758 -0.4055  0.3273
   16SAPS  H14Y 2115   1.335   4.543   8.385  1.7717 -0.1372  0.0575
   16SAPS  C315 2116   1.181   4.506   8.533  0.5316 -0.8058 -0.5157
   16SAPS  H15X 2117   1.136   4.427   8.471  1.1438 -1.1579 -0.5206
   16SAPS  H15Y 2118   1.098   4.561   8.582  2.5645  2.2583 -0.1847
   16SAPS  C316 2119   1.258   4.429   8.642 -0.5020 -0.6959  0.0061
   16SAPS  H16X 2120   1.280   4.507   8.718 -1.3504  0.6223 -1.0493
   16SAPS  H16Y 2121   1.352   4.383   8.605 -0.4185 -0.9484  0.5318
   16SAPS  C317 2122   1.170   4.311   8.703 -0.0819  0.2860 -0.0631
   16SAPS  H17X 2123   1.074   4.356   8.738 -0.9922 -1.9106  0.4125
   16SAPS  H17Y 2124   1.214   4.285   8.801 -1.1633 -1.4670 -0.0126
   16SAPS  C318 2125   1.134   4.191   8.618  0.3105  0.1357  0.3431
   16SAPS  H18X 2126   1.227   4.147   8.577 -0.8026  0.8587 -3.3442
   16SAPS  H18Y 2127   1.065   4.223   8.536 -0.0389  2.2507  1.3940
   16SAPS  H18Z 2128   1.080   4.109   8.670 -0.5605  0.5291  0.0950
   17SAPC     N 2129   0.682   2.473  10.644 -0.6140  0.3735 -0.5275
   17SAPC   C12 2130   0.701   2.324  10.667 -0.2945  0.0827  0.3068
   17SAPC  H12A 2131   0.631   2.298  10.745 -0.7827  1.5363  0.3751
   17SAPC  H12B 2132   0.798   2.318  10.714 -0.4704  1.6418  0.9184
   17SAPC   C13 2133   0.547   2.493  10.604 -0.0069  0.0079  0.2823
   17SAPC  H13A 2134   0.508   2.591  10.629 -1.2053 -0.5790  0.7611
   17SAPC  H13B 2135   0.539   2.466  10.500  3.6928 -2.4012  0.4095
   17SAPC  H13C 2136   0.492   2.419  10.659  2.1270 -0.4854  1.9145
   17SAPC   C14 2137   0.702   2.556  10.767 -0.1956  0.5608  0.0790
   17SAPC  H14A 2138   0.626   2.535  10.841  0.0529 -0.2544  0.1134
   17SAPC  H14B 2139   0.796   2.549  10.820 -1.0603  0.0696  1.5981
   17SAPC  H14C 2140   0.693   2.662  10.746 -0.8256  0.9573  2.1187
   17SAPC   C15 2141   0.783   2.521  10.542  0.3102  0.5186 -0.0083
   17SAPC  H15A 2142   0.885   2.504  10.575  0.1559  1.0526  0.7725
   17SAPC  H15B 2143   0.777   2.460  10.453  4.2632 -1.4102  0.8153
   17SAPC  H15C 2144   0.771   2.628  10.535  0.1533  0.5444  0.6486
   17SAPC   C11 2145   0.700   2.216  10.552  0.5329 -0.7421 -0.2174
   17SAPC  H11A 2146   0.601   2.219  10.503  0.1379 -3.5791  0.2391
   17SAPC  H11B 2147   0.700   2.116  10.600 -0.2306 -0.5516  0.1836
   17SAPC     P 2148   0.928   2.138  10.459 -0.0193  0.2568 -0.4575
   17SAPC   O13 2149   1.027   2.169  10.351 -0.8504 -0.1149 -0.9873
   17SAPC   O14 2150   0.990   2.139  10.595  0.2019 -0.8051 -0.3483
   17SAPC   O12 2151   0.803   2.237  10.456 -0.6452 -0.6503 -0.2731
   17SAPC   O11 2152   0.872   1.994  10.423  0.4800  0.2576 -0.1163
   17SAPC    C1 2153   0.764   1.970  10.337  0.0239 -0.1931 -0.8996
   17SAPC    HA 2154   0.693   1.902  10.389 -0.7495 -0.2673 -2.0144
   17SAPC    HB 2155   0.694   2.055  10.325  0.2739  0.5597  2.1421
   17SAPC    C2 2156   0.808   1.891  10.208  0.5516 -0.3304 -0.4347
   17SAPC    HS 2157   0.718   1.846  10.163  0.1652 -0.9989  0.9353
   17SAPC   O21 2158   0.904   1.785  10.238  0.7533 -0.1362 -0.2964
   17SAPC   C21 2159   0.841   1.680  10.302 -0.8705 -0.4298  0.4735
   17SAPC   O22 2160   0.726   1.671  10.328 -0.2178  0.1486  0.2543
   17SAPC   C22 2161   0.955   1.572  10.322  0.5791  0.1833 -0.3952
   17SAPC   H2R 2162   1.053   1.623  10.307 -0.3306  2.4413  0.7655
   17SAPC   H2S 2163   0.936   1.521  10.419  2.6394 -2.9382 -1.5072
   17SAPC    C3 2164   0.873   1.981  10.097 -0.3990 -0.1241  0.6158
   17SAPC    HX 2165   0.969   2.014  10.145 -0.1374  0.5207 -0.3317
   17SAPC    HY 2166   0.797   2.057  10.072  0.6160  1.4474  2.0688
   17SAPC   O31 2167   0.890   1.918   9.972 -0.0014 -0.4024  0.3556
   17SAPC   C31 2168   1.009   1.852   9.952  0.3319 -0.0751 -0.4166
   17SAPC   O32 2169   1.104   1.849  10.032 -0.4378  0.2397  0.4590
   17SAPC   C32 2170   1.009   1.791   9.813 -0.2047  0.0724 -0.4154
   17SAPC   H2X 2171   0.957   1.870   9.754  1.4551  2.0071  0.6309
   17SAPC   H2Y 2172   0.941   1.703   9.810  0.3598 -0.4832  1.6461
   17SAPC   C23 2173   0.947   1.460  10.221  0.1880  0.1751  0.2829
   17SAPC   H3R 2174   0.852   1.405  10.238  0.3838  0.1091  1.2075
   17SAPC   H3S 2175   1.027   1.384  10.239 -0.4491 -1.0212 -1.6275
   17SAPC   C24 2176   0.956   1.493  10.067 -0.5097  0.8537  0.4319
   17SAPC   H4R 2177   1.051   1.551  10.056 -0.3171  0.3614 -0.5575
   17SAPC   H4S 2178   0.877   1.569  10.047  0.4804  2.2086  1.4581
   17SAPC   C25 2179   0.940   1.372   9.981  0.8793 -0.2444  0.7302
   17SAPC   H5R 2180   0.998   1.286  10.018 -1.0044 -1.6081  0.6865
   17SAPC   C26 2181   0.861   1.361   9.868  0.1984 -0.3766  0.9494
   17SAPC   H6R 2182   0.850   1.268   9.810  1.8912  0.3365 -0.6091
   17SAPC   C27 2183   0.769   1.466   9.799 -0.0876  0.5051  0.3167
   17SAPC   H7R 2184   0.820   1.522   9.718 -3.4155  1.0082 -1.6210
   17SAPC   H7S 2185   0.739   1.546   9.870 -0.4727  0.8294 -0.2125
   17SAPC   C28 2186   0.632   1.404   9.759 -0.0790 -0.0191 -0.3069
   17SAPC   H8R 2187   0.566   1.391   9.846  2.1666  2.2811  1.9196
   17SAPC   C29 2188   0.584   1.359   9.641 -0.0577  0.1789 -0.2973
   17SAPC   H9R 2189   0.479   1.330   9.632 -0.0220  0.2037 -0.8331
   17SAPC  C210 2190   0.663   1.373   9.517  0.1344 -0.5166  0.4871
   17SAPC  H10R 2191   0.711   1.473   9.522  0.1717 -0.5460  0.6973
   17SAPC  H10S 2192   0.594   1.370   9.430 -1.3870  1.5922  1.5215
   17SAPC  C211 2193   0.773   1.270   9.507  0.6637  0.7345 -0.9152
   17SAPC  H11R 2194   0.800   1.229   9.605 -3.0172  0.3369  0.0777
   17SAPC  C212 2195   0.810   1.208   9.391 -0.2070  0.3004  0.4718
   17SAPC  H12R 2196   0.890   1.132   9.392 -1.7448 -1.5324 -2.2180
   17SAPC  C213 2197   0.762   1.239   9.250 -0.0666 -0.1840  0.6621
   17SAPC  H13R 2198   0.651   1.244   9.250 -0.0310  2.0042 -0.4718
   17SAPC  H13S 2199   0.790   1.159   9.179 -1.2695  0.2543 -0.3476
   17SAPC  C214 2200   0.803   1.379   9.214 -0.3842  0.5188 -1.2353
   17SAPC  H14R 2201   0.785   1.451   9.295  1.2645  1.3499 -1.5799
   17SAPC  C215 2202   0.853   1.426   9.100  0.2860  0.5195  0.0577
   17SAPC  H15R 2203   0.881   1.531   9.081  0.7789  0.0365 -2.1540
   17SAPC  C216 2204   0.870   1.352   8.970  0.3712 -0.4118 -0.3210
   17SAPC  H16R 2205   0.822   1.253   8.981 -1.2110  0.2546 -0.9501
   17SAPC  H16S 2206   0.978   1.337   8.948  0.7592  1.2906  0.2290
   17SAPC  C217 2207   0.791   1.411   8.855  0.5385 -0.5754  0.2596
   17SAPC  H17R 2208   0.859   1.491   8.817  0.4761 -0.5239  0.2567
   17SAPC  H17S 2209   0.695   1.457   8.885 -0.6194 -1.2386 -2.1439
   17SAPC  C218 2210   0.761   1.308   8.740  0.6937 -0.0995 -0.1818
   17SAPC  H18R 2211   0.671   1.252   8.775  0.3322 -0.1727 -1.1843
   17SAPC  H18S 2212   0.848   1.239   8.751  1.1284  0.4372 -0.2326
   17SAPC  C219 2213   0.748   1.352   8.595  0.1595 -0.0906  0.4991
   17SAPC  H19R 2214   0.846   1.392   8.562 -0.1983  0.9646  0.6552
   17SAPC  H19S 2215   0.666   1.427   8.589 -1.0563 -1.4884 -3.5833
   17SAPC  C220 2216   0.715   1.246   8.486  0.4321  0.3575 -0.8447
   17SAPC  H20R 2217   0.605   1.226   8.480  0.5346 -1.0250  0.9202
   17SAPC  H20S 2218   0.769   1.152   8.512  0.5702  0.8400  0.6993
   17SAPC  H20T 2219   0.763   1.267   8.388  2.5037 -0.5730 -0.0887
   17SAPC   C33 2220   1.152   1.745   9.772 -0.1015 -0.3998  0.1983
   17SAPC   H3X 2221   1.202   1.678   9.847 -1.7166 -0.1767  1.5268
   17SAPC   H3Y 2222   1.202   1.841   9.748 -0.6904 -0.8489 -3.4355
   17SAPC   C34 2223   1.153   1.665   9.645  0.4382  0.1794  0.3788
   17SAPC   H4X 2224   1.110   1.564   9.661 -0.0254 -0.1968 -2.6599
   17SAPC   H4Y 2225   1.259   1.677   9.616 -0.0271  2.2615 -0.6588
   17SAPC   C35 2226   1.079   1.722   9.529  0.5710 -0.6051  0.6473
   17SAPC   H5X 2227   1.101   1.830   9.519 -1.6815 -0.0539  1.1182
   17SAPC   H5Y 2228   0.968   1.718   9.530  0.4997  0.7120  1.7059
   17SAPC   C36 2229   1.131   1.661   9.403  0.2967 -0.1451 -0.1008
   17SAPC   H6X 2230   1.103   1.554   9.403 -0.8750  0.1537  0.1888
   17SAPC   H6Y 2231   1.242   1.662   9.404  0.5547 -1.7127 -4.5861
   17SAPC   C37 2232   1.089   1.733   9.274  0.2009 -0.0139 -0.3739
   17SAPC   H7X 2233   1.120   1.839   9.288  3.8281 -1.2543  2.3976
   17SAPC   H7Y 2234   0.978   1.723   9.274 -0.0098  1.9471  1.1393
   17SAPC   C38 2235   1.152   1.665   9.145  0.3208  0.3270 -0.6312
   17SAPC   H8X 2236   1.138   1.555   9.145 -3.2704  0.6015 -3.2294
   17SAPC   H8Y 2237   1.261   1.672   9.163  1.0741 -1.2503 -3.8446
   17SAPC   C39 2238   1.107   1.716   9.007  0.9729  0.5355 -0.5311
   17SAPC   H9X 2239   1.083   1.825   9.015  0.3103  0.5518 -2.3292
   17SAPC   H9Y 2240   1.010   1.665   8.991  1.9407 -1.7598  0.5922
   17SAPC  C310 2241   1.192   1.679   8.880  0.3408  0.4728  0.3395
   17SAPC  H10X 2242   1.215   1.571   8.894 -0.4763 -0.1179 -2.2700
   17SAPC  H10Y 2243   1.284   1.741   8.877  0.5067  0.2083 -1.3939
   17SAPC  C311 2244   1.118   1.688   8.746 -1.1023  0.2104  0.8110
   17SAPC  H11X 2245   1.021   1.634   8.747  0.7822 -3.5710 -0.9307
   17SAPC  H11Y 2246   1.188   1.647   8.670 -0.9566  0.8640  0.5796
   17SAPC  C312 2247   1.105   1.833   8.693 -0.4411  0.1931  0.2725
   17SAPC  H12X 2248   1.204   1.880   8.706 -0.9726  0.7491  2.8931
   17SAPC  H12Y 2249   1.037   1.874   8.771 -1.1639 -0.9775  0.2837
   17SAPC  C313 2250   1.049   1.848   8.555  0.1743 -0.8909 -0.0894
   17SAPC  H13X 2251   1.017   1.951   8.528 -0.0597 -0.6507  1.0477
   17SAPC  H13Y 2252   0.959   1.784   8.547 -0.6308  0.2012 -0.0058
   17SAPC  C314 2253   1.154   1.813   8.446 -0.5561  0.0098  0.4373
   17SAPC  H14X 2254   1.182   1.706   8.451 -1.6954 -0.3321 -0.0358
   17SAPC  H14Y 2255   1.244   1.875   8.468 -1.6792  1.2590  1.7555
   17SAPC  C315 2256   1.101   1.852   8.306  0.3299 -0.1713  0.1161
   17SAPC  H15X 2257   1.053   1.952   8.317  0.2920 -0.3051  1.3005
   17SAPC  H15Y 2258   1.014   1.789   8.277 -1.0303  2.0377 -0.9475
   17SAPC  C316 2259   1.209   1.855   8.198  0.3433 -1.2633 -0.4602
   17SAPC  H16X 2260   1.262   1.757   8.194  3.1518 -0.0166  2.1271
   17SAPC  H16Y 2261   1.283   1.931   8.229 -1.1164  0.1403 -0.2497
   17SAPC  C317 2262   1.166   1.891   8.061  0.1133  0.0188  0.3597
   17SAPC  H17X 2263   1.070   1.946   8.049  1.3038  2.0257 -0.5333
   17SAPC  H17Y 2264   1.152   1.790   8.016  1.8640 -0.0393 -0.1329
   17SAPC  C318 2265   1.280   1.963   7.988 -0.2351  0.1691  1.4131
   17SAPC  H18X 2266   1.375   1.908   8.004 -1.2777 -1.5634  2.0168
   17SAPC  H18Y 2267   1.258   1.968   7.879 -0.0733  0.4205  1.3906
   17SAPC  H18Z 2268   1.301   2.065   8.028  3.0340 -0.3896  1.3880
   18SAPC     N 2269   4.733   6.755  10.828  0.0334  0.3220  0.5820
   18SAPC   C12 2270   4.784   6.846  10.720 -0.0367 -0.1092  0.0960
   18SAPC  H12A 2271   4.850   6.792  10.653 -0.2797 -3.6591  2.4457
   18SAPC  H12B 2272   4.834   6.925  10.773 -0.6024  1.4165 -1.5527
   18SAPC   C13 2273   4.659   6.639  10.759  0.7928  0.0946  0.6079
   18SAPC  H13A 2274   4.627   6.571  10.837 -0.8993  0.5897  0.3917
   18SAPC  H13B 2275   4.569   6.689  10.727  0.5219 -0.5875  0.2781
   18SAPC  H13C 2276   4.704   6.604  10.668  0.9630  2.1775 -0.1646
   18SAPC   C14 2277   4.845   6.695  10.897  0.3165 -0.5525 -0.5833
   18SAPC  H14A 2278   4.817   6.624  10.973  0.0227 -0.0056 -0.1679
   18SAPC  H14B 2279   4.905   6.648  10.821 -0.5288 -2.9167  0.1218
   18SAPC  H14C 2280   4.905   6.770  10.948 -0.6170 -0.4653  0.4450
   18SAPC   C15 2281   4.633   6.824  10.917  0.4433  0.3377 -0.0484
   18SAPC  H15A 2282   4.556   6.756  10.949  0.5881 -0.1140 -0.6462
   18SAPC  H15B 2283   4.673   6.868  11.007  1.7025  2.6492 -1.6242
   18SAPC  H15C 2284   4.573   6.892  10.858  0.1907 -0.3727 -0.6170
   18SAPC   C11 2285   4.670   6.918  10.639 -1.0021 -0.7683  0.5613
   18SAPC  H11A 2286   4.724   6.986  10.568  0.6103 -1.7546  0.7877
   18SAPC  H11B 2287   4.614   6.987  10.706  1.2902  2.6854 -0.7494
   18SAPC     P 2288   4.436   6.883  10.515 -0.5022 -0.1947  0.0951
   18SAPC   O13 2289   4.343   6.779  10.548  0.4335  0.5557  0.0741
   18SAPC   O14 2290   4.409   7.019  10.558  0.0452 -0.0234 -0.1719
   18SAPC   O12 2291   4.581   6.836  10.561 -0.1065 -0.2413 -0.6412
   18SAPC   O11 2292   4.461   6.884  10.360 -0.2524 -0.1125  0.4991
   18SAPC    C1 2293   4.487   7.007  10.290  1.1036 -0.5210 -0.0481
   18SAPC    HA 2294   4.391   7.063  10.284  0.8295 -0.9833 -0.0242
   18SAPC    HB 2295   4.557   7.079  10.338 -2.5103  3.2808  0.0764
   18SAPC    C2 2296   4.539   6.974  10.152 -0.1334  0.0973  0.3643
   18SAPC    HS 2297   4.496   6.882  10.107  2.0340  0.1282 -1.9774
   18SAPC   O21 2298   4.677   6.962  10.153  0.3246  0.6224 -0.5643
   18SAPC   C21 2299   4.728   6.847  10.179 -0.2164  0.2130  0.4226
   18SAPC   O22 2300   4.665   6.745  10.206  0.6647 -0.4503  0.8841
   18SAPC   C22 2301   4.883   6.866  10.192 -0.0526  0.1314 -0.1908
   18SAPC   H2R 2302   4.916   6.921  10.100 -0.8537 -0.4970 -0.8620
   18SAPC   H2S 2303   4.894   6.941  10.273 -1.6824 -1.0214  1.1484
   18SAPC    C3 2304   4.502   7.087  10.048  0.2264 -0.9318  0.4507
   18SAPC    HX 2305   4.503   7.178  10.111 -1.9028 -1.7357  1.7600
   18SAPC    HY 2306   4.395   7.076  10.021  0.3974 -0.0518 -0.6799
   18SAPC   O31 2307   4.593   7.094   9.935  0.1509  0.1753  0.3803
   18SAPC   C31 2308   4.550   7.027   9.827  0.4197 -0.5395  1.1930
   18SAPC   O32 2309   4.443   6.972   9.822  0.0663  0.4001 -0.1327
   18SAPC   C32 2310   4.657   7.020   9.717  0.3394 -0.3279  0.7396
   18SAPC   H2X 2311   4.703   6.921   9.739 -1.5732 -1.2301  0.8467
   18SAPC   H2Y 2312   4.735   7.098   9.731 -1.0955  1.2891  0.0754
   18SAPC   C23 2313   4.954   6.736  10.218 -0.1803 -0.0255 -0.4753
   18SAPC   H3R 2314   4.909   6.695  10.310 -1.7135 -0.3411 -1.3290
   18SAPC   H3S 2315   5.059   6.764  10.242 -0.3033 -0.0590  0.1137
   18SAPC   C24 2316   4.945   6.642  10.103 -0.3240  0.5031  0.6529
   18SAPC   H4R 2317   4.931   6.700  10.010 -1.1512  1.7671  1.5285
   18SAPC   H4S 2318   4.851   6.585  10.118 -0.2913  0.0986 -0.5666
   18SAPC   C25 2319   5.060   6.542  10.087  0.3899 -0.3423  0.2228
   18SAPC   H5R 2320   5.097   6.502  10.183  1.1243 -0.4871 -0.1144
   18SAPC   C26 2321   5.123   6.506   9.973  0.5617 -0.1924 -0.0810
   18SAPC   H6R 2322   5.203   6.432   9.982 -0.2401 -1.3647 -1.8914
   18SAPC   C27 2323   5.078   6.548   9.838  0.9439  0.2881  0.2188
   18SAPC   H7R 2324   5.162   6.516   9.772 -0.4763 -1.7513 -0.7044
   18SAPC   H7S 2325   5.078   6.660   9.837  1.1315  0.3303  2.1350
   18SAPC   C28 2326   4.943   6.497   9.789 -0.3037 -0.0315  0.0864
   18SAPC   H8R 2327   4.902   6.431   9.867  2.9228  0.2632  2.2169
   18SAPC   C29 2328   4.880   6.509   9.675 -0.8980 -0.3226  0.2803
   18SAPC   H9R 2329   4.787   6.453   9.659  0.1352 -2.8612  2.2343
   18SAPC  C210 2330   4.936   6.592   9.561  0.2352 -0.1235 -0.1471
   18SAPC  H10R 2331   4.988   6.525   9.489 -2.1659  0.5812 -2.7311
   18SAPC  H10S 2332   5.010   6.669   9.589  2.2060 -1.9729  0.0170
   18SAPC  C211 2333   4.831   6.661   9.482  0.0538 -0.0618 -0.4213
   18SAPC  H11R 2334   4.829   6.769   9.499  2.0238 -0.2685  1.5990
   18SAPC  C212 2335   4.741   6.608   9.397  0.0083 -0.0833 -0.5047
   18SAPC  H12R 2336   4.674   6.676   9.342 -1.6823 -1.3795 -0.1149
   18SAPC  C213 2337   4.730   6.462   9.353 -0.1137 -0.1997  0.1687
   18SAPC  H13R 2338   4.652   6.403   9.407 -0.8344  1.3239  0.8355
   18SAPC  H13S 2339   4.829   6.422   9.384  1.3366  1.1838 -2.3656
   18SAPC  C214 2340   4.719   6.459   9.204  0.3440  0.5512 -0.2258
   18SAPC  H14R 2341   4.807   6.492   9.148  0.0843 -0.2275 -1.1118
   18SAPC  C215 2342   4.613   6.405   9.139 -0.4885 -1.0337 -0.2218
   18SAPC  H15R 2343   4.621   6.422   9.031 -0.1519 -1.5504 -0.2812
   18SAPC  C216 2344   4.483   6.339   9.192 -0.7466 -0.0019 -0.1609
   18SAPC  H16R 2345   4.467   6.368   9.298  1.0925 -0.6442  0.3267
   18SAPC  H16S 2346   4.504   6.229   9.193  0.7831  0.1931  3.2195
   18SAPC  C217 2347   4.348   6.375   9.107 -0.1984 -0.1593 -0.1983
   18SAPC  H17R 2348   4.331   6.483   9.131  1.3207  0.4433 -1.6332
   18SAPC  H17S 2349   4.265   6.308   9.139  0.3837 -0.2444  1.2197
   18SAPC  C218 2350   4.359   6.342   8.958  0.1841  0.4307  0.9043
   18SAPC  H18R 2351   4.332   6.235   8.962  1.8721 -0.0667 -0.2030
   18SAPC  H18S 2352   4.457   6.339   8.906 -0.3960  2.3738 -0.4268
   18SAPC  C219 2353   4.269   6.419   8.858 -0.0499 -0.3748  0.1918
   18SAPC  H19R 2354   4.261   6.379   8.755 -1.2685  0.6718 -0.1409
   18SAPC  H19S 2355   4.310   6.522   8.856 -1.5263  0.2264 -0.6851
   18SAPC  C220 2356   4.124   6.419   8.904  0.1972 -0.2709  0.0282
   18SAPC  H20R 2357   4.053   6.466   8.833  0.8145  0.6198 -0.0217
   18SAPC  H20S 2358   4.109   6.472   9.000 -1.5176 -0.7762  0.0695
   18SAPC  H20T 2359   4.076   6.319   8.911 -0.5531 -0.0451 -1.4768
   18SAPC   C33 2360   4.602   7.022   9.573  0.6330 -0.2407  0.0580
   18SAPC   H3X 2361   4.509   7.081   9.558  1.2700  0.2337 -2.3948
   18SAPC   H3Y 2362   4.569   6.916   9.565 -4.2346  1.1273 -1.4102
   18SAPC   C34 2363   4.691   7.065   9.458 -0.5503 -0.3976 -0.1846
   18SAPC   H4X 2364   4.783   7.004   9.445  0.1684  1.1295 -3.1719
   18SAPC   H4Y 2365   4.725   7.170   9.476 -0.8966 -0.4732  1.0235
   18SAPC   C35 2366   4.616   7.059   9.322  0.2190  0.4330  0.1017
   18SAPC   H5X 2367   4.685   7.114   9.254  1.2240 -1.3214 -0.3722
   18SAPC   H5Y 2368   4.516   7.106   9.314 -0.6803 -1.6704 -2.6911
   18SAPC   C36 2369   4.595   6.920   9.262 -0.5830 -0.4909  0.4792
   18SAPC   H6X 2370   4.517   6.862   9.316 -3.8595 -0.3094 -3.6251
   18SAPC   H6Y 2371   4.692   6.866   9.259 -0.0513  0.4773 -0.6370
   18SAPC   C37 2372   4.550   6.938   9.118  0.3771 -0.5015 -0.5181
   18SAPC   H7X 2373   4.629   6.998   9.067 -0.1024 -0.1754 -0.8867
   18SAPC   H7Y 2374   4.449   6.982   9.121 -0.0075 -1.3701  2.0126
   18SAPC   C38 2375   4.524   6.798   9.060  0.0898  0.1534  0.0747
   18SAPC   H8X 2376   4.456   6.737   9.123 -1.8893  1.5259 -0.6319
   18SAPC   H8Y 2377   4.620   6.744   9.047 -0.2324 -0.4979  0.3408
   18SAPC   C39 2378   4.483   6.800   8.911  0.0562 -0.4502  0.4469
   18SAPC   H9X 2379   4.488   6.690   8.894 -2.1265 -0.8500  1.9365
   18SAPC   H9Y 2380   4.569   6.849   8.861 -0.7975  0.9218  0.2751
   18SAPC  C310 2381   4.350   6.840   8.872  0.4644  0.7258 -0.1126
   18SAPC  H10X 2382   4.326   6.946   8.894  0.2118  0.6708 -0.1105
   18SAPC  H10Y 2383   4.268   6.785   8.924 -1.5801  1.7883 -2.0339
   18SAPC  C311 2384   4.312   6.794   8.727 -0.2297 -0.9337  0.4459
   18SAPC  H11X 2385   4.303   6.684   8.719  3.3135 -1.5035  2.3297
   18SAPC  H11Y 2386   4.392   6.829   8.659  0.5561  3.6388  3.2292
   18SAPC  C312 2387   4.177   6.839   8.684  0.7392  0.3432  0.4156
   18SAPC  H12X 2388   4.163   6.821   8.575 -0.2698 -1.7860  0.8328
   18SAPC  H12Y 2389   4.157   6.948   8.691 -0.9798  0.0786  0.1283
   18SAPC  C313 2390   4.049   6.770   8.734  0.2123  0.1803  0.6905
   18SAPC  H13X 2391   4.054   6.761   8.845 -0.2859 -0.2237  0.6872
   18SAPC  H13Y 2392   4.045   6.663   8.704 -2.9263  0.3021  0.3237
   18SAPC  C314 2393   3.912   6.840   8.708 -0.1791  0.2704  0.1388
   18SAPC  H14X 2394   3.894   6.826   8.599 -1.7082  0.3236  0.3684
   18SAPC  H14Y 2395   3.932   6.948   8.725 -0.9707  0.7099 -1.5624
   18SAPC  C315 2396   3.785   6.791   8.783 -0.5770  0.0032  0.8886
   18SAPC  H15X 2397   3.700   6.861   8.773 -0.8626 -0.4044  0.4290
   18SAPC  H15Y 2398   3.827   6.799   8.886  3.1001  0.0027 -0.4550
   18SAPC  C316 2399   3.734   6.655   8.730 -0.2780  0.2403 -0.0546
   18SAPC  H16X 2400   3.654   6.624   8.802 -0.8227  3.0284  0.6729
   18SAPC  H16Y 2401   3.821   6.586   8.729  0.3936  0.9474  2.3988
   18SAPC  C317 2402   3.671   6.660   8.590  0.4081  0.2184  0.5147
   18SAPC  H17X 2403   3.672   6.552   8.564  1.5652  0.6294 -1.2874
   18SAPC  H17Y 2404   3.730   6.710   8.510  1.3757 -0.2077  0.9457
   18SAPC  C318 2405   3.528   6.716   8.587  0.5128 -0.1928  0.0274
   18SAPC  H18X 2406   3.535   6.825   8.610  1.2357 -0.3848  0.7461
   18SAPC  H18Y 2407   3.465   6.681   8.671 -0.9556  1.5007 -0.2928
   18SAPC  H18Z 2408   3.473   6.692   8.493 -1.1985 -1.6700  1.3374
   19SAPC     N 2409   6.704   2.519  10.744  0.0747  0.5969  0.0653
   19SAPC   C12 2410   6.841   2.548  10.686 -0.3549  0.3750 -0.0449
   19SAPC  H12A 2411   6.862   2.654  10.688  1.8423 -0.0221  0.9156
   19SAPC  H12B 2412   6.850   2.521  10.582  1.4897  3.3797 -0.7839
   19SAPC   C13 2413   6.678   2.373  10.741  0.1976 -0.2700 -0.0657
   19SAPC  H13A 2414   6.769   2.322  10.768  0.2039 -1.0237 -1.4317
   19SAPC  H13B 2415   6.599   2.342  10.808 -0.5526  0.9008 -0.3700
   19SAPC  H13C 2416   6.647   2.336  10.644 -0.4422  0.8274 -0.2994
   19SAPC   C14 2417   6.699   2.567  10.885  0.1709  0.0481  0.3371
   19SAPC  H14A 2418   6.714   2.674  10.885 -0.5298  0.1494  0.6190
   19SAPC  H14B 2419   6.605   2.572  10.936 -0.4055  1.8431 -0.7790
   19SAPC  H14C 2420   6.770   2.506  10.939 -1.2963 -1.4158  0.6674
   19SAPC   C15 2421   6.605   2.598  10.672 -0.4346  0.2863 -0.5982
   19SAPC  H15A 2422   6.507   2.571  10.708  0.2243  0.2111  1.2482
   19SAPC  H15B 2423   6.617   2.705  10.672  1.5844  0.1117 -1.8009
   19SAPC  H15C 2424   6.604   2.574  10.567  0.3510 -0.4254 -0.4568
   19SAPC   C11 2425   6.971   2.506  10.765 -0.0521 -0.6286 -0.1759
   19SAPC  H11A 2426   6.966   2.575  10.852  2.0584 -0.3876 -0.2018
   19SAPC  H11B 2427   7.064   2.544  10.718 -1.0373  0.9551 -0.9509
   19SAPC     P 2428   7.032   2.264  10.720 -0.0934  0.5608  0.2037
   19SAPC   O13 2429   7.129   2.318  10.619 -0.0737  0.2355 -0.5755
   19SAPC   O14 2430   7.102   2.161  10.799 -0.7373 -0.3933  0.0816
   19SAPC   O12 2431   6.971   2.369  10.813  0.1366  0.1393 -0.3695
   19SAPC   O11 2432   6.908   2.201  10.637  0.2841 -0.0219 -0.5055
   19SAPC    C1 2433   6.868   2.060  10.658 -0.5202 -0.2287 -0.7724
   19SAPC    HA 2434   6.958   1.995  10.671  0.4505  1.0090 -1.0751
   19SAPC    HB 2435   6.802   2.042  10.745 -0.2093 -1.0843 -0.7074
   19SAPC    C2 2436   6.805   1.992  10.533  0.2526  0.0007  0.1738
   19SAPC    HS 2437   6.821   1.883  10.544 -0.3588 -0.1287 -0.1793
   19SAPC   O21 2438   6.862   2.044  10.409  0.4207 -0.2544  0.2314
   19SAPC   C21 2439   6.980   2.002  10.373 -0.2071 -0.3894  0.3110
   19SAPC   O22 2440   7.038   1.909  10.419 -0.1690  0.3402  0.1233
   19SAPC   C22 2441   7.040   2.091  10.266 -0.8224  0.0267 -0.7011
   19SAPC   H2R 2442   6.974   2.082  10.177 -0.1673  1.7743 -1.3992
   19SAPC   H2S 2443   7.042   2.191  10.313  1.2423 -0.1531 -0.2685
   19SAPC    C3 2444   6.649   2.010  10.537 -0.3565 -0.6857 -0.0778
   19SAPC    HX 2445   6.629   2.102  10.595  1.6791 -0.1679 -0.1244
   19SAPC    HY 2446   6.612   1.935  10.611  2.2439 -0.3909  1.6789
   19SAPC   O31 2447   6.584   1.987  10.411 -0.0874  0.0360  0.4327
   19SAPC   C31 2448   6.554   2.090  10.337 -0.9886 -0.7416  0.4435
   19SAPC   O32 2449   6.586   2.208  10.365 -0.1611  0.3756 -0.1852
   19SAPC   C32 2450   6.482   2.036  10.211  0.0859  0.1873  0.0115
   19SAPC   H2X 2451   6.377   2.022  10.243  0.8696 -2.1336  1.8330
   19SAPC   H2Y 2452   6.510   1.929  10.198  0.4991  0.3244 -0.2795
   19SAPC   C23 2453   7.180   2.038  10.251  0.3477  0.2985  0.1036
   19SAPC   H3R 2454   7.184   1.928  10.237 -0.8969  0.1629  0.7335
   19SAPC   H3S 2455   7.239   2.064  10.341 -0.6109 -2.6526  1.6940
   19SAPC   C24 2456   7.255   2.098  10.132  1.0214  0.0659 -0.2275
   19SAPC   H4R 2457   7.253   2.026  10.048  2.3199  0.1237 -0.3163
   19SAPC   H4S 2458   7.359   2.094  10.170  0.2536 -1.6519  1.8619
   19SAPC   C25 2459   7.217   2.233  10.088  0.1395  0.6874 -0.3885
   19SAPC   H5R 2460   7.169   2.300  10.161 -1.4885  0.3447 -1.1086
   19SAPC   C26 2461   7.251   2.278   9.970 -0.7054 -0.1138 -0.4623
   19SAPC   H6R 2462   7.235   2.386   9.959  3.2659  1.4381  5.0799
   19SAPC   C27 2463   7.324   2.200   9.859 -0.0951  0.5333  0.2389
   19SAPC   H7R 2464   7.261   2.158   9.777  1.5891 -4.6053  1.2065
   19SAPC   H7S 2465   7.372   2.108   9.897  1.0091  1.3139  0.7936
   19SAPC   C28 2466   7.439   2.273   9.801 -0.5886 -0.1172 -0.3038
   19SAPC   H8R 2467   7.529   2.284   9.865 -0.0142 -0.0553 -1.1106
   19SAPC   C29 2468   7.443   2.336   9.686  0.3732 -0.5005  0.2858
   19SAPC   H9R 2469   7.534   2.381   9.644 -0.4971  1.1794  0.1204
   19SAPC  C210 2470   7.329   2.334   9.582  0.2415 -0.1033 -0.7812
   19SAPC  H10R 2471   7.331   2.434   9.532  3.1515 -0.3567 -1.3555
   19SAPC  H10S 2472   7.224   2.325   9.617  0.6638  0.6615  0.8238
   19SAPC  C211 2473   7.339   2.226   9.481  0.3399  0.0587  0.4668
   19SAPC  H11R 2474   7.308   2.128   9.520 -1.4734 -0.2240 -1.4887
   19SAPC  C212 2475   7.373   2.226   9.352  0.2623 -0.0693 -0.9318
   19SAPC  H12R 2476   7.352   2.133   9.298 -0.7487 -0.3847 -0.0351
   19SAPC  C213 2477   7.413   2.340   9.262 -0.2438 -0.0498  0.4739
   19SAPC  H13R 2478   7.513   2.316   9.220 -1.1863 -1.1070 -1.3162
   19SAPC  H13S 2479   7.409   2.444   9.300  0.5654  0.8026 -1.6179
   19SAPC  C214 2480   7.316   2.341   9.144  0.1347 -0.2527  0.5674
   19SAPC  H14R 2481   7.225   2.399   9.166  0.5879  0.2581  1.1542
   19SAPC  C215 2482   7.329   2.292   9.021 -0.5158 -0.1633  0.0368
   19SAPC  H15R 2483   7.244   2.302   8.953 -0.9193 -2.9731  0.0214
   19SAPC  C216 2484   7.449   2.220   8.960  0.1555  0.2919 -0.0973
   19SAPC  H16R 2485   7.407   2.122   8.931 -1.3958  0.3794  1.6540
   19SAPC  H16S 2486   7.527   2.190   9.033  1.9489  1.1367 -1.5976
   19SAPC  C217 2487   7.525   2.293   8.855  1.0259  0.1892  0.4103
   19SAPC  H17R 2488   7.450   2.326   8.780  1.6226  0.3258 -0.1343
   19SAPC  H17S 2489   7.593   2.219   8.807 -1.8193 -3.1061  1.0927
   19SAPC  C218 2490   7.607   2.414   8.903  0.0395  0.3262  0.9129
   19SAPC  H18R 2491   7.682   2.391   8.981 -0.1723 -1.3426  0.6664
   19SAPC  H18S 2492   7.537   2.487   8.948 -0.9589  1.6287 -2.4515
   19SAPC  C219 2493   7.681   2.494   8.793 -0.5320 -0.3262 -0.3246
   19SAPC  H19R 2494   7.775   2.444   8.760  0.4045  1.3062 -0.2604
   19SAPC  H19S 2495   7.717   2.586   8.845 -1.5507  0.0492 -0.2671
   19SAPC  C220 2496   7.598   2.528   8.666 -0.3611  0.3044 -0.6915
   19SAPC  H20R 2497   7.513   2.594   8.695  1.9973  2.1546  2.7122
   19SAPC  H20S 2498   7.553   2.438   8.620 -3.5567  0.4768  1.7348
   19SAPC  H20T 2499   7.665   2.584   8.597  0.6995 -1.9584 -1.5980
   19SAPC   C33 2500   6.508   2.120  10.082 -1.0128  0.1756  0.0641
   19SAPC   H3X 2501   6.477   2.225  10.102  1.1362  0.8163  0.2496
   19SAPC   H3Y 2502   6.452   2.075   9.998  0.7464 -1.3420 -0.3656
   19SAPC   C34 2503   6.659   2.103  10.051  0.3731 -0.2316 -0.1430
   19SAPC   H4X 2504   6.681   1.995  10.060  2.1244  0.2093  1.4095
   19SAPC   H4Y 2505   6.723   2.144  10.132 -0.8950  2.1057 -0.2285
   19SAPC   C35 2506   6.701   2.139   9.914  0.4680 -0.2464 -0.6191
   19SAPC   H5X 2507   6.687   2.245   9.884  1.0539  0.3254  1.0082
   19SAPC   H5Y 2508   6.648   2.081   9.836 -1.3811  3.4908 -2.4461
   19SAPC   C36 2509   6.855   2.108   9.901 -0.4229  0.4041 -0.5501
   19SAPC   H6X 2510   6.858   1.997   9.909 -1.3845  0.1995 -2.5292
   19SAPC   H6Y 2511   6.908   2.155   9.986 -0.0510 -1.4382  0.2782
   19SAPC   C37 2512   6.921   2.159   9.773  0.1664 -1.1396  0.0855
   19SAPC   H7X 2513   7.012   2.217   9.799 -0.1142  0.8300 -2.8434
   19SAPC   H7Y 2514   6.852   2.239   9.738  3.0552  0.7061 -1.7516
   19SAPC   C38 2515   6.930   2.058   9.663 -0.2632 -0.0297  0.5213
   19SAPC   H8X 2516   6.829   2.017   9.641  0.2093 -0.7351 -0.4265
   19SAPC   H8Y 2517   6.985   1.966   9.692 -1.2875 -1.2809 -1.2632
   19SAPC   C39 2518   6.978   2.114   9.527 -0.0834  0.5520  0.2043
   19SAPC   H9X 2519   7.080   2.157   9.536  1.0367 -2.1420  1.2878
   19SAPC   H9Y 2520   6.898   2.187   9.500  0.7247  0.7885 -1.7216
   19SAPC  C310 2521   6.976   2.005   9.415  0.4568  0.2012 -0.6468
   19SAPC  H10X 2522   6.876   1.957   9.422  1.2203 -1.3404  0.6050
   19SAPC  H10Y 2523   7.049   1.927   9.447  0.9246  1.0817  0.5398
   19SAPC  C311 2524   7.020   2.051   9.275  0.3463 -0.5434  0.2736
   19SAPC  H11X 2525   7.126   2.083   9.276  0.5864 -1.3245  0.9220
   19SAPC  H11Y 2526   6.979   2.149   9.243  3.3875  0.4558 -0.8331
   19SAPC  C312 2527   7.010   1.936   9.172  0.5894 -0.2170 -0.2093
   19SAPC  H12X 2528   6.909   1.891   9.176  1.3043 -2.4709 -3.4731
   19SAPC  H12Y 2529   7.078   1.858   9.213  0.2050  0.1037  1.1004
   19SAPC  C313 2530   7.047   1.967   9.030 -0.0513 -0.1034  0.5741
   19SAPC  H13X 2531   7.015   1.886   8.962 -1.1081  0.6738  0.1145
   19SAPC  H13Y 2532   7.157   1.983   9.034  0.5723 -3.0465 -1.5945
   19SAPC  C314 2533   6.969   2.094   8.971 -0.3280  0.0918 -0.4987
   19SAPC  H14X 2534   6.999   2.177   9.038  0.0025 -0.4072 -0.0242
   19SAPC  H14Y 2535   6.858   2.090   8.980 -0.3552 -0.2966 -0.9263
   19SAPC  C315 2536   7.020   2.129   8.825 -0.4869  0.0357  0.0640
   19SAPC  H15X 2537   7.131   2.122   8.821 -0.5274 -1.2032  0.8277
   19SAPC  H15Y 2538   7.004   2.233   8.789  2.4172  1.0718  1.4180
   19SAPC  C316 2539   6.969   2.031   8.727  0.2433 -0.5270  0.1383
   19SAPC  H16X 2540   6.977   1.924   8.756 -0.9793 -0.1432  2.0330
   19SAPC  H16Y 2541   7.029   2.045   8.634 -0.2303  1.1815  0.0651
   19SAPC  C317 2542   6.823   2.058   8.683 -0.4435  0.2412  0.8108
   19SAPC  H17X 2543   6.823   2.168   8.668 -0.4203  0.2163  0.6199
   19SAPC  H17Y 2544   6.753   2.027   8.763 -1.0696 -1.4444 -0.3133
   19SAPC  C318 2545   6.785   1.992   8.554 -0.4385  0.6845  0.1316
   19SAPC  H18X 2546   6.738   1.893   8.568 -0.3650  0.6572  0.1822
   19SAPC  H18Y 2547   6.874   1.987   8.487  0.2856 -3.3089  1.1700
   19SAPC  H18Z 2548   6.717   2.053   8.489 -0.5801  0.5363  0.1402
   20SAPC     N 2549   2.057   6.070  10.860  0.0676 -0.4284 -1.1463
   20SAPC   C12 2550   1.984   6.202  10.851 -1.1187 -0.6794  0.3848
   20SAPC  H12A 2551   1.961   6.232  10.952  1.4883  0.8591  0.6004
   20SAPC  H12B 2552   1.889   6.178  10.805 -1.3953 -1.3782  1.2791
   20SAPC   C13 2553   2.055   6.007  10.723  0.0566  0.2489 -0.5781
   20SAPC  H13A 2554   2.093   5.906  10.721  2.0803  0.9616 -1.9877
   20SAPC  H13B 2555   1.957   6.002  10.678 -0.8374 -1.3862  1.4246
   20SAPC  H13C 2556   2.126   6.063  10.663  0.8531  0.1094  0.2048
   20SAPC   C14 2557   2.199   6.083  10.914 -0.6974 -0.2410  0.3909
   20SAPC  H14A 2558   2.254   6.146  10.845  1.1059 -0.7281  1.3157
   20SAPC  H14B 2559   2.207   6.132  11.010  1.3762  0.0183  0.1473
   20SAPC  H14C 2560   2.248   5.987  10.923  0.0918  0.0977 -0.1252
   20SAPC   C15 2561   1.980   5.976  10.950 -0.0054 -0.0868  0.0012
   20SAPC  H15A 2562   2.023   5.879  10.933 -0.1153  0.3177 -3.1235
   20SAPC  H15B 2563   1.982   5.993  11.057 -1.6459 -0.4167  0.1104
   20SAPC  H15C 2564   1.874   5.974  10.929 -0.3778  2.5101  1.1736
   20SAPC   C11 2565   2.041   6.321  10.775  0.5817 -0.9450  0.2793
   20SAPC  H11A 2566   1.973   6.402  10.809  1.2434 -0.6200  0.8486
   20SAPC  H11B 2567   2.046   6.301  10.666 -0.3515  0.0282  0.0485
   20SAPC     P 2568   2.208   6.457  10.926 -0.0687 -0.3642  0.0149
   20SAPC   O13 2569   2.193   6.400  11.062 -0.6343 -0.0258  0.0063
   20SAPC   O14 2570   2.340   6.511  10.901 -0.7338  0.2742 -0.2736
   20SAPC   O12 2571   2.170   6.352  10.817  0.1907 -0.3584  0.3955
   20SAPC   O11 2572   2.096   6.577  10.914 -0.4202  0.1992  0.5346
   20SAPC    C1 2573   2.120   6.699  10.836  0.1661  0.3255 -0.3953
   20SAPC    HA 2574   2.033   6.763  10.862  0.1965  0.2656 -0.1451
   20SAPC    HB 2575   2.214   6.750  10.864  0.1580  0.3465 -0.4065
   20SAPC    C2 2576   2.124   6.688  10.677  0.5540  0.9380 -0.1500
   20SAPC    HS 2577   2.034   6.625  10.656 -1.1911  3.7785 -1.8733
   20SAPC   O21 2578   2.248   6.630  10.635 -0.5297  0.0982  0.1307
   20SAPC   C21 2579   2.244   6.570  10.513  0.0566 -0.7575  0.7335
   20SAPC   O22 2580   2.153   6.578  10.435 -0.2521 -0.4506  0.9178
   20SAPC   C22 2581   2.383   6.506  10.486 -0.3295 -0.0890 -0.0108
   20SAPC   H2R 2582   2.460   6.585  10.471 -0.4388 -0.0379 -0.3116
   20SAPC   H2S 2583   2.412   6.454  10.579 -0.0667  1.9086  1.0847
   20SAPC    C3 2584   2.105   6.831  10.619 -0.2558  0.0775  0.0513
   20SAPC    HX 2585   2.207   6.874  10.608 -1.2667  2.3709 -1.0312
   20SAPC    HY 2586   2.040   6.887  10.689  0.7903 -0.2216  1.2953
   20SAPC   O31 2587   2.060   6.841  10.479  0.3261 -0.1709  0.4104
   20SAPC   C31 2588   1.934   6.821  10.460  0.7624  0.8694 -0.4768
   20SAPC   O32 2589   1.856   6.775  10.541  0.1106  0.2547 -0.2984
   20SAPC   C32 2590   1.882   6.870  10.325 -0.3168 -0.6137  0.3370
   20SAPC   H2X 2591   1.950   6.951  10.291 -0.6483  0.7632  2.7498
   20SAPC   H2Y 2592   1.794   6.935  10.343 -1.6168 -2.3852  0.5949
   20SAPC   C23 2593   2.379   6.421  10.352 -0.3828  0.1940 -0.1654
   20SAPC   H3R 2594   2.365   6.482  10.260  0.4069 -0.1536 -0.5296
   20SAPC   H3S 2595   2.306   6.341  10.375  2.8172 -2.0871  3.1817
   20SAPC   C24 2596   2.510   6.330  10.329 -0.1540 -0.5226  0.0761
   20SAPC   H4R 2597   2.481   6.266  10.242 -0.0633 -0.0534 -0.3040
   20SAPC   H4S 2598   2.526   6.265  10.417  1.1908 -0.8729 -0.4029
   20SAPC   C25 2599   2.621   6.424  10.288  0.6274  0.2072  0.2581
   20SAPC   H5R 2600   2.683   6.468  10.367  0.7575 -2.9115  2.0388
   20SAPC   C26 2601   2.656   6.439  10.160  1.1131 -0.0683  0.1475
   20SAPC   H6R 2602   2.728   6.520  10.146 -0.4105  1.6194  1.6252
   20SAPC   C27 2603   2.590   6.384  10.038  0.9935  0.2738  0.2823
   20SAPC   H7R 2604   2.480   6.377  10.055  1.3166 -1.0634  2.1254
   20SAPC   H7S 2605   2.625   6.281  10.018  1.6892  0.1548  1.9314
   20SAPC   C28 2606   2.606   6.478   9.918 -0.2310 -0.0507  0.1975
   20SAPC   H8R 2607   2.639   6.581   9.937  0.5375 -0.0864 -0.8321
   20SAPC   C29 2608   2.612   6.441   9.787 -0.1993  0.4873  0.1976
   20SAPC   H9R 2609   2.641   6.512   9.708 -2.3949  2.7550  1.2796
   20SAPC  C210 2610   2.601   6.303   9.732  0.3956 -0.2413  0.3200
   20SAPC  H10R 2611   2.552   6.240   9.809 -1.6081 -0.8123 -1.3479
   20SAPC  H10S 2612   2.702   6.261   9.711  0.4075  0.2917 -0.7670
   20SAPC  C211 2613   2.521   6.284   9.609  0.7630 -0.3524  0.9477
   20SAPC  H11R 2614   2.430   6.225   9.621  1.2561 -1.1395  0.8644
   20SAPC  C212 2615   2.552   6.328   9.480  1.3233 -0.0655 -0.7294
   20SAPC  H12R 2616   2.480   6.292   9.406  0.5276 -1.8537  0.8300
   20SAPC  C213 2617   2.660   6.412   9.432 -0.1970  0.4899 -0.1468
   20SAPC  H13R 2618   2.746   6.393   9.499 -1.4509 -0.1588  1.3298
   20SAPC  H13S 2619   2.631   6.517   9.456 -2.0517 -0.3407  1.5057
   20SAPC  C214 2620   2.692   6.417   9.283 -0.1337 -1.0402 -0.3492
   20SAPC  H14R 2621   2.780   6.353   9.260 -0.9283 -1.3511 -2.8312
   20SAPC  C215 2622   2.609   6.453   9.181 -0.0026 -0.4348  0.0197
   20SAPC  H15R 2623   2.650   6.442   9.080 -1.3104  0.9447 -0.6893
   20SAPC  C216 2624   2.465   6.493   9.197  0.0265  0.7116 -0.7673
   20SAPC  H16R 2625   2.468   6.552   9.291  0.1616 -1.8954  0.9858
   20SAPC  H16S 2626   2.411   6.398   9.217  1.6910 -0.2162 -0.4720
   20SAPC  C217 2627   2.409   6.583   9.084 -0.4051  0.3013  0.1754
   20SAPC  H17R 2628   2.474   6.671   9.067 -1.4033  1.0912  0.3727
   20SAPC  H17S 2629   2.310   6.619   9.120  0.4916  1.2886  1.7110
   20SAPC  C218 2630   2.383   6.503   8.957  0.5023 -0.3908  0.3342
   20SAPC  H18R 2631   2.484   6.485   8.913  0.0647 -2.2924  0.0389
   20SAPC  H18S 2632   2.324   6.562   8.884 -1.6548 -0.6462  1.7713
   20SAPC  C219 2633   2.309   6.367   8.972  0.0302 -0.4693  0.4695
   20SAPC  H19R 2634   2.375   6.302   9.033  2.9948  1.4598 -0.5011
   20SAPC  H19S 2635   2.297   6.319   8.872 -0.9706  0.3230  0.1873
   20SAPC  C220 2636   2.166   6.369   9.024 -0.0730 -0.2716  0.0379
   20SAPC  H20R 2637   2.110   6.448   8.969  4.4393  1.5441 -2.4844
   20SAPC  H20S 2638   2.149   6.386   9.132 -0.8357  2.5296 -0.4579
   20SAPC  H20T 2639   2.115   6.273   9.000  1.1479 -1.0788  0.5808
   20SAPC   C33 2640   1.878   6.751  10.229 -0.4299  0.0010 -0.8644
   20SAPC   H3X 2641   1.784   6.694  10.245 -0.4953  0.6742  1.5666
   20SAPC   H3Y 2642   1.963   6.679  10.234 -1.5323 -1.3628 -1.2239
   20SAPC   C34 2643   1.883   6.796  10.080 -0.3281 -0.2158  0.7650
   20SAPC   H4X 2644   1.953   6.881  10.067 -0.9633  0.3774  1.1667
   20SAPC   H4Y 2645   1.778   6.825  10.057  0.8866  2.8662 -1.5935
   20SAPC   C35 2646   1.954   6.691   9.988  0.5697  0.0470  0.1322
   20SAPC   H5X 2647   1.916   6.588  10.009  0.1346  0.1610 -0.0774
   20SAPC   H5Y 2648   2.062   6.682  10.010  0.1276  1.8980  3.7870
   20SAPC   C36 2649   1.935   6.725   9.838 -0.8763  0.2135 -0.0901
   20SAPC   H6X 2650   2.002   6.669   9.770 -1.3443 -0.3884 -0.0636
   20SAPC   H6Y 2651   1.959   6.831   9.815  2.2877 -0.9967 -3.5110
   20SAPC   C37 2652   1.786   6.693   9.798 -0.2189  0.0458  0.0109
   20SAPC   H7X 2653   1.719   6.755   9.861  0.1484  0.3279  0.1369
   20SAPC   H7Y 2654   1.785   6.590   9.838  1.0844  0.8986  2.4653
   20SAPC   C38 2655   1.760   6.715   9.651 -0.1407 -0.0892 -0.0308
   20SAPC   H8X 2656   1.785   6.817   9.616 -0.1522  0.2054  0.8153
   20SAPC   H8Y 2657   1.652   6.689   9.641 -0.0312 -1.6469  2.2199
   20SAPC   C39 2658   1.824   6.603   9.566  0.1988 -0.1426  0.5504
   20SAPC   H9X 2659   1.780   6.510   9.607 -1.4647  0.4010  0.0686
   20SAPC   H9Y 2660   1.934   6.605   9.580  0.0021  0.5539  2.2542
   20SAPC  C310 2661   1.784   6.610   9.418 -0.4409  0.0051  0.0724
   20SAPC  H10X 2662   1.831   6.698   9.368 -0.5316  0.3307  0.5583
   20SAPC  H10Y 2663   1.676   6.638   9.413 -0.9241 -1.0906  2.7201
   20SAPC  C311 2664   1.818   6.483   9.349  0.0432  0.1063  0.6096
   20SAPC  H11X 2665   1.766   6.398   9.398 -2.1040  0.9242 -0.1125
   20SAPC  H11Y 2666   1.928   6.467   9.353  0.5684  2.7221 -0.8212
   20SAPC  C312 2667   1.775   6.471   9.201 -0.0779 -0.3908  0.4613
   20SAPC  H12X 2668   1.832   6.533   9.129  0.8424 -0.7655  0.8502
   20SAPC  H12Y 2669   1.666   6.493   9.194  0.0629  0.1338 -0.2408
   20SAPC  C313 2670   1.804   6.331   9.144  0.6588  0.9016  0.2998
   20SAPC  H13X 2671   1.759   6.258   9.214  0.8599  1.7760  1.3828
   20SAPC  H13Y 2672   1.914   6.313   9.145  0.5224  0.0340  0.7253
   20SAPC  C314 2673   1.764   6.324   8.995  0.0409  0.1421  0.2878
   20SAPC  H14X 2674   1.831   6.397   8.945  1.2276 -1.2399 -0.2081
   20SAPC  H14Y 2675   1.662   6.360   8.972 -0.6436 -1.3855  0.7505
   20SAPC  C315 2676   1.801   6.194   8.928  0.3278 -0.0495  0.7764
   20SAPC  H15X 2677   1.738   6.108   8.961 -2.0381  1.6626  0.9574
   20SAPC  H15Y 2678   1.911   6.184   8.941  0.4652  0.9120  0.4605
   20SAPC  C316 2679   1.778   6.196   8.775  0.2132  0.0458  0.2212
   20SAPC  H16X 2680   1.842   6.118   8.728  2.2093  1.2884  0.7638
   20SAPC  H16Y 2681   1.818   6.295   8.746  0.5056  0.1692  1.0363
   20SAPC  C317 2682   1.632   6.175   8.729  0.4393 -0.6320 -0.2216
   20SAPC  H17X 2683   1.563   6.251   8.770 -1.3166 -1.9137 -0.6981
   20SAPC  H17Y 2684   1.598   6.080   8.776 -1.1122  0.1709  0.3194
   20SAPC  C318 2685   1.617   6.176   8.577  0.3578 -0.1336  1.4224
   20SAPC  H18X 2686   1.641   6.074   8.540 -2.5811  0.3538 -2.6477
   20SAPC  H18Y 2687   1.684   6.254   8.536 -1.4765  2.1870  2.5864
   20SAPC  H18Z 2688   1.513   6.186   8.539 -0.0813 -3.2585  1.5308
   21SAPC     N 2689   1.469   5.780  11.020  0.2380  0.1168  0.0973
   21SAPC   C12 2690   1.483   5.931  10.995  0.3178  0.0080  0.2990
   21SAPC  H12A 2691   1.428   5.982  11.073  0.4123  0.3689  0.1348
   21SAPC  H12B 2692   1.442   5.963  10.900  0.9411  0.7796  0.2767
   21SAPC   C13 2693   1.329   5.750  10.993 -0.1308 -0.1506 -0.3383
   21SAPC  H13A 2694   1.260   5.817  11.042 -0.5166 -1.7361  1.4143
   21SAPC  H13B 2695   1.309   5.757  10.887  1.3664  0.4306 -0.6103
   21SAPC  H13C 2696   1.294   5.658  11.037  0.2074 -0.4025 -0.5914
   21SAPC   C14 2697   1.557   5.691  10.943  0.1110 -0.0893  0.5278
   21SAPC  H14A 2698   1.536   5.691  10.838  2.4259 -0.1372  0.0054
   21SAPC  H14B 2699   1.661   5.722  10.941 -0.0457  0.3908 -0.2855
   21SAPC  H14C 2700   1.559   5.588  10.976  1.7849 -0.2808 -0.0703
   21SAPC   C15 2701   1.504   5.759  11.169 -0.2021  1.0509  0.3768
   21SAPC  H15A 2702   1.512   5.653  11.189  1.6623  1.1087  0.1261
   21SAPC  H15B 2703   1.606   5.793  11.182  0.4212 -0.6261  0.1966
   21SAPC  H15C 2704   1.434   5.801  11.239 -1.9613 -1.8367  0.5373
   21SAPC   C11 2705   1.621   5.995  10.986 -0.2287 -0.0678 -0.4018
   21SAPC  H11A 2706   1.679   5.963  11.076 -0.0741  0.7311 -0.2095
   21SAPC  H11B 2707   1.624   6.105  11.000  0.3640  0.1324 -1.8605
   21SAPC     P 2708   1.658   6.042  10.733 -0.2655  0.2631 -0.3439
   21SAPC   O13 2709   1.741   5.986  10.622 -0.0432 -1.0641  0.5045
   21SAPC   O14 2710   1.514   6.048  10.702  0.2631  0.1172  0.2810
   21SAPC   O12 2711   1.689   5.968  10.866  0.1938 -0.3913 -0.6403
   21SAPC   O11 2712   1.698   6.192  10.764  0.0120 -0.3125 -0.1299
   21SAPC    C1 2713   1.644   6.296  10.692  0.1889  0.5955 -0.1815
   21SAPC    HA 2714   1.534   6.289  10.686  0.2220  0.5056 -0.7242
   21SAPC    HB 2715   1.676   6.390  10.742  0.8205  0.5876 -0.5583
   21SAPC    C2 2716   1.687   6.310  10.538 -0.0739  0.3327  0.2699
   21SAPC    HS 2717   1.623   6.230  10.495  1.6942 -1.5805  1.0232
   21SAPC   O21 2718   1.827   6.275  10.517  0.4497  0.5403  0.3167
   21SAPC   C21 2719   1.846   6.210  10.397  1.0097 -0.9804  0.7800
   21SAPC   O22 2720   1.764   6.195  10.309  1.0762 -0.0443  0.0080
   21SAPC   C22 2721   1.995   6.175  10.385 -0.0572 -1.2494 -0.0502
   21SAPC   H2R 2722   2.045   6.251  10.448 -0.8196  0.3115 -1.2378
   21SAPC   H2S 2723   2.003   6.075  10.432 -0.4764 -1.7396 -0.9941
   21SAPC    C3 2724   1.645   6.448  10.493 -0.6814  0.5839 -0.3992
   21SAPC    HX 2725   1.707   6.521  10.549  2.4726 -1.8438 -0.4393
   21SAPC    HY 2726   1.539   6.465  10.521 -1.0410  0.0956 -1.4095
   21SAPC   O31 2727   1.663   6.475  10.356  0.0106  0.7074  0.2972
   21SAPC   C31 2728   1.564   6.427  10.284 -0.2453 -1.0359  0.6948
   21SAPC   O32 2729   1.469   6.363  10.324  0.3288 -0.2122  0.0624
   21SAPC   C32 2730   1.596   6.466  10.131  0.2854  0.0874 -0.1718
   21SAPC   H2X 2731   1.683   6.405  10.100 -0.3412 -0.0674 -1.7401
   21SAPC   H2Y 2732   1.615   6.575  10.117 -1.7882  0.3959 -1.1147
   21SAPC   C23 2733   2.047   6.180  10.239  0.3768 -0.2934  0.1981
   21SAPC   H3R 2734   2.157   6.169  10.243  0.3842 -1.1542 -1.4250
   21SAPC   H3S 2735   2.029   6.278  10.191  1.2617 -0.5672 -0.7186
   21SAPC   C24 2736   1.993   6.070  10.146  0.4513 -0.4570 -0.0977
   21SAPC   H4R 2737   2.029   6.095  10.044  0.2368  0.5261  0.0535
   21SAPC   H4S 2738   1.883   6.061  10.142  0.5502 -1.6396 -0.4369
   21SAPC   C25 2739   2.047   5.933  10.175  0.9294 -0.9630 -0.1107
   21SAPC   H5R 2740   2.076   5.923  10.281  1.1134 -0.2063 -0.0871
   21SAPC   C26 2741   2.049   5.827  10.097 -0.1573  0.3675  0.6049
   21SAPC   H6R 2742   2.090   5.729  10.128  0.5306 -0.4544 -2.5095
   21SAPC   C27 2743   1.998   5.814   9.956 -0.3058  0.4434  0.5641
   21SAPC   H7R 2744   2.087   5.827   9.890 -0.0650  0.7649  0.9404
   21SAPC   H7S 2745   1.932   5.898   9.927  1.6000  1.4881 -1.0778
   21SAPC   C28 2746   1.925   5.683   9.927 -0.6809 -0.2372 -0.5934
   21SAPC   H8R 2747   1.927   5.615  10.014 -0.0924  1.7609  1.0103
   21SAPC   C29 2748   1.867   5.640   9.813  0.7078 -0.0005  0.1056
   21SAPC   H9R 2749   1.834   5.535   9.811  1.3293 -0.2229 -2.7890
   21SAPC  C210 2750   1.849   5.718   9.690 -0.5054  0.2527 -0.3064
   21SAPC  H10R 2751   1.873   5.825   9.710 -1.4439  0.4935 -0.4047
   21SAPC  H10S 2752   1.742   5.718   9.659 -0.5883  2.2000 -0.1772
   21SAPC  C211 2753   1.938   5.650   9.581 -0.0516  0.5121 -0.0807
   21SAPC  H11R 2754   2.029   5.596   9.609  1.8671  2.7596 -1.5798
   21SAPC  C212 2755   1.915   5.657   9.449 -0.0328  1.1239  0.4605
   21SAPC  H12R 2756   1.982   5.612   9.375 -1.6476 -0.9096  0.1307
   21SAPC  C213 2757   1.804   5.730   9.389  0.1370 -0.5312  0.1680
   21SAPC  H13R 2758   1.726   5.755   9.464  2.4098  0.4502  2.3508
   21SAPC  H13S 2759   1.751   5.667   9.316 -1.5858  1.3042 -0.2621
   21SAPC  C214 2760   1.840   5.868   9.345  0.0864 -0.7538 -0.1800
   21SAPC  H14R 2761   1.874   5.942   9.419 -0.2117  0.3389 -1.0972
   21SAPC  C215 2762   1.831   5.910   9.215  0.0873  0.0057  0.3403
   21SAPC  H15R 2763   1.860   6.015   9.196 -2.5331  0.9052  0.7823
   21SAPC  C216 2764   1.781   5.828   9.100 -0.4257  0.2045 -0.4531
   21SAPC  H16R 2765   1.697   5.882   9.052 -1.3028  0.7164  1.5742
   21SAPC  H16S 2766   1.761   5.720   9.117  0.4571  0.2215  0.7997
   21SAPC  C217 2767   1.889   5.836   8.983  0.0331  0.5697 -0.1516
   21SAPC  H17R 2768   1.980   5.782   9.017 -0.8022 -1.0168 -0.3401
   21SAPC  H17S 2769   1.924   5.941   8.968 -0.3041  1.1507  2.5730
   21SAPC  C218 2770   1.847   5.759   8.858 -0.2886  0.3881  0.4904
   21SAPC  H18R 2771   1.747   5.786   8.817 -0.0032  1.6732  0.5972
   21SAPC  H18S 2772   1.839   5.650   8.878  1.7975 -0.2159 -1.4709
   21SAPC  C219 2773   1.951   5.784   8.747 -0.0748 -0.1890 -0.3846
   21SAPC  H19R 2774   2.054   5.764   8.784  0.2141  2.1786  0.2499
   21SAPC  H19S 2775   1.942   5.891   8.718 -0.0472  0.3359  1.4289
   21SAPC  C220 2776   1.925   5.684   8.637 -0.1367 -0.1238 -0.7924
   21SAPC  H20R 2777   1.948   5.581   8.674  2.0241  0.4880 -0.2644
   21SAPC  H20S 2778   1.992   5.706   8.550  0.8731  1.2955  0.2974
   21SAPC  H20T 2779   1.820   5.675   8.603 -0.9908 -3.4693  2.1313
   21SAPC   C33 2780   1.483   6.434  10.026 -0.1736  0.2057 -0.2052
   21SAPC   H3X 2781   1.389   6.491  10.037 -1.7940 -2.0858 -1.1318
   21SAPC   H3Y 2782   1.454   6.327  10.039  0.5837 -0.0870 -0.7481
   21SAPC   C34 2783   1.528   6.464   9.887  0.4996  0.5605  0.1676
   21SAPC   H4X 2784   1.613   6.400   9.854 -0.5077  0.6507 -2.8592
   21SAPC   H4Y 2785   1.567   6.567   9.873  0.2003  0.9288  1.8155
   21SAPC   C35 2786   1.410   6.444   9.795 -0.3026  0.2243  0.0266
   21SAPC   H5X 2787   1.316   6.493   9.826 -0.5467  0.8678 -1.6069
   21SAPC   H5Y 2788   1.401   6.334   9.786 -0.5142  0.0922  1.6437
   21SAPC   C36 2789   1.443   6.492   9.648  0.6050  0.4258  0.2758
   21SAPC   H6X 2790   1.543   6.450   9.626 -0.1925 -2.9438  2.3483
   21SAPC   H6Y 2791   1.444   6.603   9.649 -0.2392  0.4391  0.7011
   21SAPC   C37 2792   1.340   6.436   9.556  0.5967  0.4624 -0.3225
   21SAPC   H7X 2793   1.239   6.476   9.577 -0.8898 -3.0642 -0.0536
   21SAPC   H7Y 2794   1.342   6.326   9.570 -1.2386  0.3564 -0.7685
   21SAPC   C38 2795   1.371   6.480   9.410 -0.3934  0.1307 -0.7511
   21SAPC   H8X 2796   1.473   6.452   9.377 -0.5223 -0.7553 -0.4467
   21SAPC   H8Y 2797   1.357   6.590   9.416  0.3349  0.1615  0.7528
   21SAPC   C39 2798   1.267   6.417   9.312  0.2312 -0.1207 -0.1848
   21SAPC   H9X 2799   1.163   6.441   9.344  0.9177  3.4076 -0.1731
   21SAPC   H9Y 2800   1.262   6.306   9.303 -1.1297 -0.2044  1.2930
   21SAPC  C310 2801   1.283   6.484   9.173 -0.2461 -0.3735 -0.0981
   21SAPC  H10X 2802   1.382   6.471   9.124 -0.6397 -0.3431 -0.9286
   21SAPC  H10Y 2803   1.267   6.594   9.178 -2.2291 -0.6701  1.0957
   21SAPC  C311 2804   1.171   6.435   9.071  0.0382  0.7610 -0.5043
   21SAPC  H11X 2805   1.070   6.448   9.114  0.7475 -0.8132  1.8812
   21SAPC  H11Y 2806   1.186   6.327   9.047 -0.5746  0.9383 -1.7488
   21SAPC  C312 2807   1.178   6.504   8.938 -1.0241 -0.1846 -0.0353
   21SAPC  H12X 2808   1.219   6.431   8.865 -1.8469 -2.1220  1.3382
   21SAPC  H12Y 2809   1.251   6.587   8.930 -1.3228  0.0064 -0.9487
   21SAPC  C313 2810   1.048   6.556   8.885 -0.1235 -0.3215  0.0461
   21SAPC  H13X 2811   1.024   6.637   8.957 -0.9166  0.8867 -1.5039
   21SAPC  H13Y 2812   0.978   6.471   8.898  1.6095 -1.5277  2.2719
   21SAPC  C314 2813   1.064   6.608   8.742  0.0416  0.2239  0.0409
   21SAPC  H14X 2814   1.087   6.521   8.677 -1.7993 -1.1768  1.2020
   21SAPC  H14Y 2815   1.152   6.674   8.760  0.8588 -0.7620 -0.2040
   21SAPC  C315 2816   0.941   6.687   8.695  0.9162 -0.7065  0.5287
   21SAPC  H15X 2817   0.911   6.761   8.772  1.6397  1.4939 -1.2307
   21SAPC  H15Y 2818   0.855   6.617   8.686  1.3126 -1.3077  1.2474
   21SAPC  C316 2819   0.953   6.744   8.560  0.3646 -0.3025  1.2536
   21SAPC  H16X 2820   0.989   6.669   8.487  0.6066  0.1969  0.8528
   21SAPC  H16Y 2821   1.020   6.833   8.565  0.5846 -0.3214 -0.6784
   21SAPC  C317 2822   0.819   6.804   8.514 -0.2690 -0.2989 -0.0205
   21SAPC  H17X 2823   0.772   6.880   8.580  1.3024 -0.1195  0.9541
   21SAPC  H17Y 2824   0.750   6.718   8.498  0.2842 -0.8718  0.6119
   21SAPC  C318 2825   0.835   6.871   8.379 -0.8657  0.0890  0.4230
   21SAPC  H18X 2826   0.735   6.905   8.343 -1.4765 -1.7672  0.2050
   21SAPC  H18Y 2827   0.871   6.799   8.302  0.9876 -0.4001  1.6769
   21SAPC  H18Z 2828   0.904   6.956   8.394  3.3282 -3.0756  0.8007
   22SAPC     N 2829   1.467   2.698  10.760  0.0268 -0.5795  0.2175
   22SAPC   C12 2830   1.395   2.812  10.697 -0.5785  0.0456  0.0285
   22SAPC  H12A 2831   1.463   2.896  10.707 -1.4476  0.6951  0.6032
   22SAPC  H12B 2832   1.316   2.848  10.760 -1.6851 -2.5281  0.2149
   22SAPC   C13 2833   1.400   2.568  10.739  0.3060 -0.3644  0.0773
   22SAPC  H13A 2834   1.389   2.542  10.635  3.0177  2.3035 -1.0011
   22SAPC  H13B 2835   1.452   2.487  10.788  2.8250  1.1058 -0.0079
   22SAPC  H13C 2836   1.299   2.565  10.779 -0.3296  1.4173 -1.2591
   22SAPC   C14 2837   1.604   2.688  10.707  0.3873  0.6953  0.6796
   22SAPC  H14A 2838   1.604   2.633  10.614 -2.7772  1.5113  0.0555
   22SAPC  H14B 2839   1.633   2.788  10.679 -1.6707  1.1751  0.0243
   22SAPC  H14C 2840   1.671   2.638  10.775 -0.1087 -0.4701  0.3314
   22SAPC   C15 2841   1.480   2.722  10.907  0.4835  0.2974 -0.0034
   22SAPC  H15A 2842   1.524   2.642  10.964  0.7961  0.7263  0.3729
   22SAPC  H15B 2843   1.558   2.797  10.915 -0.9471  1.7697  0.5748
   22SAPC  H15C 2844   1.386   2.744  10.954  0.2539 -1.6227  0.4812
   22SAPC   C11 2845   1.357   2.813  10.547  0.6034 -0.6834  0.4741
   22SAPC  H11A 2846   1.448   2.806  10.483  0.9640 -0.6414  0.9762
   22SAPC  H11B 2847   1.308   2.909  10.520 -0.0223 -1.2228 -0.3697
   22SAPC     P 2848   1.128   2.684  10.579  0.0714 -0.2561  0.2835
   22SAPC   O13 2849   1.125   2.541  10.610 -0.3365  0.1145  0.4785
   22SAPC   O14 2850   1.104   2.773  10.697 -0.1089 -0.1362 -0.1352
   22SAPC   O12 2851   1.269   2.711  10.508 -0.0856 -0.5410 -0.3047
   22SAPC   O11 2852   1.020   2.703  10.468 -0.0985  0.0722 -0.7522
   22SAPC    C1 2853   1.012   2.639  10.342 -0.2463  0.6820 -0.5938
   22SAPC    HA 2854   1.032   2.530  10.353 -2.4558  0.3613  0.9633
   22SAPC    HB 2855   0.907   2.650  10.310 -0.3944  0.6056 -0.1405
   22SAPC    C2 2856   1.099   2.710  10.233 -0.4795  0.2089 -0.1225
   22SAPC    HS 2857   1.205   2.698  10.264 -1.0752 -0.4549  1.8481
   22SAPC   O21 2858   1.058   2.849  10.227 -0.2086 -0.3193 -0.1120
   22SAPC   C21 2859   1.151   2.932  10.192 -0.4395  0.0475  0.1607
   22SAPC   O22 2860   1.266   2.897  10.171  0.4892 -0.3237 -0.3008
   22SAPC   C22 2861   1.103   3.077  10.182  0.2694 -0.4518 -0.6074
   22SAPC   H2R 2862   0.999   3.096  10.149  0.8443  2.9868 -0.7822
   22SAPC   H2S 2863   1.098   3.100  10.290 -1.4158 -3.5768  0.1065
   22SAPC    C3 2864   1.084   2.638  10.103 -0.6069  0.2016  0.6233
   22SAPC    HX 2865   0.976   2.645  10.077 -0.4215  0.2367 -0.1877
   22SAPC    HY 2866   1.105   2.529  10.108  1.7373  0.4576 -1.5632
   22SAPC   O31 2867   1.165   2.693   9.995  0.0804  0.0881 -0.5075
   22SAPC   C31 2868   1.292   2.665   9.988  0.2635 -0.2972  0.7835
   22SAPC   O32 2869   1.357   2.594  10.063  0.2081  1.1038  0.0331
   22SAPC   C32 2870   1.359   2.743   9.873 -0.0570  0.0202 -0.1376
   22SAPC   H2X 2871   1.448   2.677   9.864  0.2815  0.2174  1.4705
   22SAPC   H2Y 2872   1.392   2.843   9.910  2.5361 -0.4546 -0.9811
   22SAPC   C23 2873   1.210   3.167  10.122 -0.1928  0.3867  0.5521
   22SAPC   H3R 2874   1.300   3.180  10.186 -0.1788 -0.1446  0.6453
   22SAPC   H3S 2875   1.171   3.269  10.106  1.9066  0.9296 -1.6465
   22SAPC   C24 2876   1.268   3.126   9.986 -0.7424 -0.3374 -0.7204
   22SAPC   H4R 2877   1.328   3.033   9.997 -0.0386  0.2665  0.9300
   22SAPC   H4S 2878   1.338   3.205   9.951  1.8096 -1.5967  1.1680
   22SAPC   C25 2879   1.156   3.090   9.888 -0.3800  0.4436  0.6928
   22SAPC   H5R 2880   1.092   3.011   9.929 -4.3835  2.8399 -0.4466
   22SAPC   C26 2881   1.138   3.132   9.763 -0.2313 -0.2847  0.9140
   22SAPC   H6R 2882   1.055   3.091   9.703  1.9190  0.0280 -2.5584
   22SAPC   C27 2883   1.218   3.224   9.679  0.0192 -0.0342 -0.4422
   22SAPC   H7R 2884   1.215   3.321   9.733  0.3598  0.6007 -1.5377
   22SAPC   H7S 2885   1.173   3.245   9.580 -1.1541  1.2542  0.3272
   22SAPC   C28 2886   1.367   3.182   9.663  0.1762  0.3002  1.0296
   22SAPC   H8R 2887   1.421   3.155   9.755  0.1233  0.4375  1.1012
   22SAPC   C29 2888   1.438   3.188   9.555 -0.1328  0.5525 -0.3614
   22SAPC   H9R 2889   1.537   3.139   9.556 -0.9489 -1.1595 -0.1279
   22SAPC  C210 2890   1.389   3.231   9.419 -0.2569 -0.7704 -0.1150
   22SAPC  H10R 2891   1.483   3.246   9.361  0.5644 -0.3861  1.2632
   22SAPC  H10S 2892   1.346   3.332   9.436  1.5594  0.5081 -2.5180
   22SAPC  C211 2893   1.287   3.132   9.359  0.3374 -0.7918 -0.3628
   22SAPC  H11R 2894   1.209   3.088   9.423  0.0952 -2.2344 -1.6032
   22SAPC  C212 2895   1.270   3.118   9.223  0.0615  0.4056 -0.7413
   22SAPC  H12R 2896   1.184   3.054   9.197  1.1786 -1.2758 -0.4637
   22SAPC  C213 2897   1.355   3.185   9.113 -0.2328 -0.5943 -0.0247
   22SAPC  H13R 2898   1.346   3.295   9.130 -0.1850 -0.0984 -2.7549
   22SAPC  H13S 2899   1.309   3.165   9.014  1.1570 -1.2773 -0.5573
   22SAPC  C214 2900   1.501   3.143   9.100  0.7788 -0.0349 -0.6276
   22SAPC  H14R 2901   1.521   3.047   9.148  1.9353  1.2680  1.6566
   22SAPC  C215 2902   1.600   3.201   9.031  0.5935  0.4637 -0.7115
   22SAPC  H15R 2903   1.700   3.155   9.036  1.4529  2.3552  3.0204
   22SAPC  C216 2904   1.580   3.329   8.952  0.1110 -0.1135 -0.0592
   22SAPC  H16R 2905   1.663   3.401   8.967  1.8094 -1.9251 -0.3953
   22SAPC  H16S 2906   1.494   3.383   8.997 -1.2078 -1.7495 -0.5106
   22SAPC  C217 2907   1.580   3.313   8.802  0.0485 -0.7221 -0.4686
   22SAPC  H17R 2908   1.649   3.230   8.773 -0.6831 -0.6970 -2.4778
   22SAPC  H17S 2909   1.610   3.407   8.752 -0.9092  0.2219  0.6931
   22SAPC  C218 2910   1.438   3.272   8.750  0.0308  0.2229  0.1933
   22SAPC  H18R 2911   1.364   3.349   8.783  3.1532  2.3364  2.9486
   22SAPC  H18S 2912   1.413   3.169   8.784  1.2243 -0.9530 -2.2468
   22SAPC  C219 2913   1.434   3.265   8.592 -0.1265  0.0070 -0.2054
   22SAPC  H19R 2914   1.533   3.223   8.564  0.7057  2.4475 -1.1883
   22SAPC  H19S 2915   1.431   3.364   8.543  0.6177 -0.6063 -1.5623
   22SAPC  C220 2916   1.310   3.183   8.554 -0.3472  0.1506  0.7366
   22SAPC  H20R 2917   1.304   3.198   8.444  3.2369  0.2606  0.4460
   22SAPC  H20S 2918   1.223   3.231   8.603 -0.0539  0.8789  0.5496
   22SAPC  H20T 2919   1.314   3.074   8.575 -0.2813 -0.3951 -1.8299
   22SAPC   C33 2920   1.281   2.750   9.738  0.4690  0.1311 -0.2136
   22SAPC   H3X 2921   1.191   2.813   9.762  0.4454 -0.4390  1.3129
   22SAPC   H3Y 2922   1.252   2.652   9.696  2.0517 -0.3057 -0.3350
   22SAPC   C34 2923   1.360   2.826   9.624 -0.0905 -0.2525 -0.0222
   22SAPC   H4X 2924   1.425   2.901   9.673 -0.8170  0.0967  0.4446
   22SAPC   H4Y 2925   1.289   2.881   9.558  0.8599 -0.7633 -1.5166
   22SAPC   C35 2926   1.456   2.731   9.548  1.0759  0.7256  0.1085
   22SAPC   H5X 2927   1.406   2.638   9.514 -0.3654  1.4258  0.2243
   22SAPC   H5Y 2928   1.531   2.703   9.624 -0.8427  0.4649  1.9846
   22SAPC   C36 2929   1.516   2.801   9.427 -0.8027  0.2581  0.1576
   22SAPC   H6X 2930   1.563   2.896   9.460  0.5693 -1.0942  2.3683
   22SAPC   H6Y 2931   1.435   2.839   9.361 -0.5222  0.4911 -0.0583
   22SAPC   C37 2932   1.622   2.714   9.343  0.2448  0.0756  0.2788
   22SAPC   H7X 2933   1.579   2.612   9.332 -2.2432  1.0686  0.1226
   22SAPC   H7Y 2934   1.711   2.708   9.410  0.2259 -1.9467  0.1966
   22SAPC   C38 2935   1.659   2.786   9.208 -0.1786  0.3471 -0.1735
   22SAPC   H8X 2936   1.714   2.879   9.235  1.0703 -0.4873  0.2635
   22SAPC   H8Y 2937   1.566   2.820   9.157 -0.2709  1.6867  0.8510
   22SAPC   C39 2938   1.755   2.702   9.125 -0.4547 -0.2890 -0.8161
   22SAPC   H9X 2939   1.698   2.613   9.093  0.1763 -1.8547  2.0548
   22SAPC   H9Y 2940   1.833   2.663   9.193  0.3209  0.5240 -1.2096
   22SAPC  C310 2941   1.812   2.777   9.008 -0.4532 -0.3108 -0.3464
   22SAPC  H10X 2942   1.900   2.730   8.959 -0.0208  0.5449 -0.4055
   22SAPC  H10Y 2943   1.864   2.870   9.038  0.2145 -1.4544  2.3406
   22SAPC  C311 2944   1.716   2.804   8.896 -0.5465  0.0752 -0.4851
   22SAPC  H11X 2945   1.635   2.875   8.923 -2.0577 -1.7110 -0.1496
   22SAPC  H11Y 2946   1.665   2.708   8.874 -0.5377 -1.4784  4.8464
   22SAPC  C312 2947   1.779   2.870   8.769 -0.0272 -0.1888  0.1926
   22SAPC  H12X 2948   1.832   2.961   8.801  1.0027 -2.0061  4.3127
   22SAPC  H12Y 2949   1.696   2.895   8.700  1.3423  0.9767 -1.0941
   22SAPC  C313 2950   1.880   2.784   8.697  0.6052 -0.2397  0.3692
   22SAPC  H13X 2951   1.843   2.682   8.675  1.0383 -0.1611 -0.8451
   22SAPC  H13Y 2952   1.970   2.766   8.759  1.9876 -1.5063 -1.8687
   22SAPC  C314 2953   1.919   2.848   8.567 -0.4692 -0.2000 -0.0140
   22SAPC  H14X 2954   1.942   2.954   8.589  0.3827 -0.1316 -1.1194
   22SAPC  H14Y 2955   1.836   2.851   8.494 -2.2961 -2.3598  1.8301
   22SAPC  C315 2956   2.056   2.802   8.508 -0.0752 -0.2065 -0.0395
   22SAPC  H15X 2957   2.122   2.794   8.598 -0.8621  1.2294  0.6996
   22SAPC  H15Y 2958   2.100   2.881   8.443 -0.7259 -0.0445 -0.2837
   22SAPC  C316 2959   2.060   2.663   8.438 -0.4503 -0.1375  0.1503
   22SAPC  H16X 2960   2.043   2.589   8.519  0.4948  0.1769  0.6481
   22SAPC  H16Y 2961   2.160   2.649   8.393 -1.3995 -0.4418 -1.9977
   22SAPC  C317 2962   1.960   2.633   8.323  0.0100  0.0881  0.1205
   22SAPC  H17X 2963   1.854   2.654   8.350  0.8082  1.5079  2.4123
   22SAPC  H17Y 2964   1.968   2.524   8.302 -0.4199  0.5648 -2.9141
   22SAPC  C318 2965   1.976   2.709   8.195 -0.5275 -0.4595  0.6654
   22SAPC  H18X 2966   1.976   2.819   8.212 -0.3452 -0.4435  0.5646
   22SAPC  H18Y 2967   1.885   2.671   8.143 -0.3795  0.0870 -0.0160
   22SAPC  H18Z 2968   2.073   2.695   8.142 -1.3148 -1.5026 -0.5895
   23SAPC     N 2969   3.689   3.968  10.724  0.2366  0.3739  0.2940
   23SAPC   C12 2970   3.567   4.051  10.716 -0.5961 -0.1991  0.0206
   23SAPC  H12A 2971   3.596   4.153  10.696  0.2623 -0.4533 -0.0626
   23SAPC  H12B 2972   3.521   4.049  10.813 -1.6839 -0.0854 -0.4850
   23SAPC   C13 2973   3.721   3.938  10.575 -0.1566 -0.5385 -0.3945
   23SAPC  H13A 2974   3.747   4.028  10.521 -2.2509 -0.8554 -2.0862
   23SAPC  H13B 2975   3.807   3.873  10.565 -0.0661 -0.4525 -0.1680
   23SAPC  H13C 2976   3.642   3.890  10.518  0.0701 -2.0050  0.4609
   23SAPC   C14 2977   3.806   4.026  10.794 -0.4940 -0.7976 -0.3326
   23SAPC  H14A 2978   3.888   3.956  10.804 -0.2427 -0.6261 -1.1305
   23SAPC  H14B 2979   3.852   4.109  10.743 -1.1217 -0.5353 -0.4798
   23SAPC  H14C 2980   3.784   4.063  10.893 -0.3691 -0.1139 -0.5597
   23SAPC   C15 2981   3.661   3.837  10.782  0.2268 -0.6314 -0.2784
   23SAPC  H15A 2982   3.577   3.785  10.739  1.0139 -2.6292  0.4760
   23SAPC  H15B 2983   3.752   3.779  10.778  0.7818  0.2347 -0.4959
   23SAPC  H15C 2984   3.625   3.849  10.883 -0.3955 -1.6877 -0.3683
   23SAPC   C11 2985   3.455   4.018  10.612 -0.6250 -0.2886  0.0920
   23SAPC  H11A 2986   3.414   3.917  10.636  0.3353 -0.1420  2.6522
   23SAPC  H11B 2987   3.495   4.020  10.508 -1.0920 -2.2117 -0.1615
   23SAPC     P 2988   3.361   4.264  10.585 -0.0799 -0.2749 -0.4844
   23SAPC   O13 2989   3.364   4.346  10.711  0.7303  0.0814  0.4335
   23SAPC   O14 2990   3.476   4.281  10.494 -0.3099 -0.2038 -0.2701
   23SAPC   O12 2991   3.352   4.111  10.632 -0.4738 -0.4539 -0.0256
   23SAPC   O11 2992   3.225   4.289  10.506 -0.4216  0.2653 -0.4949
   23SAPC    C1 2993   3.211   4.228  10.376 -0.1491 -0.3574  0.1969
   23SAPC    HA 2994   3.245   4.305  10.304 -0.6011 -0.5491 -0.2219
   23SAPC    HB 2995   3.279   4.142  10.359  0.0197 -0.0082 -0.9439
   23SAPC    C2 2996   3.067   4.177  10.364 -0.0690 -0.5517  0.5997
   23SAPC    HS 2997   3.050   4.147  10.259  0.4590 -0.5046  0.4992
   23SAPC   O21 2998   2.978   4.283  10.408  0.2908 -0.4497  0.2704
   23SAPC   C21 2999   2.973   4.393  10.326  0.6578 -0.6129  1.0441
   23SAPC   O22 3000   3.033   4.402  10.218 -0.0791  0.2435  0.2314
   23SAPC   C22 3001   2.856   4.482  10.369 -0.3669 -0.2584 -0.4058
   23SAPC   H2R 3002   2.760   4.430  10.388 -1.3604  2.2383  2.0289
   23SAPC   H2S 3003   2.880   4.518  10.471  1.9189 -0.3335 -0.8656
   23SAPC    C3 3004   3.052   4.048  10.453  0.3679 -0.3481 -0.1455
   23SAPC    HX 3005   2.947   4.012  10.449  0.1343  0.0968  1.3342
   23SAPC    HY 3006   3.077   4.071  10.559  2.1074 -2.0603 -0.1318
   23SAPC   O31 3007   3.147   3.948  10.406  0.1768 -0.0134 -0.6198
   23SAPC   C31 3008   3.126   3.829  10.460 -0.2898 -0.1783  0.4680
   23SAPC   O32 3009   3.047   3.804  10.546  0.2845  0.2503 -0.5291
   23SAPC   C32 3010   3.213   3.718  10.401 -0.3352 -0.1605  0.0850
   23SAPC   H2X 3011   3.160   3.622  10.415 -1.9771  0.6870 -0.0696
   23SAPC   H2Y 3012   3.302   3.721  10.468  0.2091 -0.0375 -0.6291
   23SAPC   C23 3013   2.830   4.611  10.289 -0.1348  0.0264 -0.5488
   23SAPC   H3R 3014   2.918   4.639  10.226  0.0556  1.2306  0.2219
   23SAPC   H3S 3015   2.811   4.691  10.363  0.6104  1.3545 -1.7383
   23SAPC   C24 3016   2.705   4.603  10.202  0.5938 -0.5274 -0.7035
   23SAPC   H4R 3017   2.663   4.701  10.169  0.5667 -0.2586  0.1143
   23SAPC   H4S 3018   2.627   4.553  10.263  1.1057  0.3541  0.7116
   23SAPC   C25 3019   2.725   4.511  10.085 -0.7208  0.5806  0.5439
   23SAPC   H5R 3020   2.709   4.404  10.102 -0.0427  0.1975 -1.0083
   23SAPC   C26 3021   2.754   4.545   9.959  1.0727  0.2034 -0.3324
   23SAPC   H6R 3022   2.763   4.468   9.881  1.3627  0.7756 -0.8739
   23SAPC   C27 3023   2.774   4.685   9.900 -0.1554 -0.1445  0.4909
   23SAPC   H7R 3024   2.773   4.759   9.982  0.2051 -0.5405  0.8643
   23SAPC   H7S 3025   2.694   4.704   9.825  2.3714 -0.8210 -2.6093
   23SAPC   C28 3026   2.900   4.715   9.830  0.0386  0.5796  0.4597
   23SAPC   H8R 3027   2.983   4.710   9.902  0.4543 -1.2956 -0.0972
   23SAPC   C29 3028   2.916   4.739   9.699  0.4238 -0.3101  0.1232
   23SAPC   H9R 3029   3.019   4.734   9.660  0.7885 -1.3178  1.1601
   23SAPC  C210 3030   2.807   4.750   9.594 -0.0570  0.2122  0.1065
   23SAPC  H10R 3031   2.830   4.824   9.515 -2.7724 -0.2785 -1.2688
   23SAPC  H10S 3032   2.717   4.799   9.637  0.5576  1.7062 -0.2381
   23SAPC  C211 3033   2.786   4.610   9.533  0.5312  0.1720 -0.2607
   23SAPC  H11R 3034   2.738   4.528   9.589 -1.2245  0.6162 -1.0539
   23SAPC  C212 3035   2.808   4.580   9.407 -0.0178 -0.6243  0.8108
   23SAPC  H12R 3036   2.780   4.478   9.376  0.3342 -0.7384  0.8613
   23SAPC  C213 3037   2.862   4.670   9.297 -0.2393 -0.2795 -0.7096
   23SAPC  H13R 3038   2.864   4.776   9.331  0.3958 -1.0339  1.8411
   23SAPC  H13S 3039   2.793   4.665   9.210 -1.2467 -0.0920  0.0536
   23SAPC  C214 3040   2.993   4.629   9.250 -0.8213  0.9194 -0.7647
   23SAPC  H14R 3041   3.059   4.610   9.337 -0.3059  0.5841 -1.2195
   23SAPC  C215 3042   3.045   4.617   9.126  0.9366 -0.5421 -0.4246
   23SAPC  H15R 3043   3.150   4.588   9.114  0.4858 -4.8608  3.0578
   23SAPC  C216 3044   2.963   4.643   9.010  0.2581 -0.6784  0.4831
   23SAPC  H16R 3045   2.953   4.754   9.008  2.5595 -0.4202  0.7067
   23SAPC  H16S 3046   2.857   4.610   8.999  0.9971 -3.2798  0.5627
   23SAPC  C217 3047   3.028   4.620   8.870 -0.1560  0.0944  0.0563
   23SAPC  H17R 3048   2.965   4.659   8.787  0.6779  1.0730 -0.1498
   23SAPC  H17S 3049   3.020   4.510   8.858 -2.4636 -0.0503  2.1831
   23SAPC  C218 3050   3.165   4.675   8.845  0.4646  0.4819  0.2919
   23SAPC  H18R 3051   3.245   4.628   8.907 -1.5807 -1.0096  1.9599
   23SAPC  H18S 3052   3.164   4.784   8.865 -0.2056  0.3974  0.7863
   23SAPC  C219 3053   3.198   4.671   8.689  0.0615  0.1933  0.1528
   23SAPC  H19R 3054   3.198   4.560   8.682  0.8974  0.1207  1.0309
   23SAPC  H19S 3055   3.302   4.705   8.667  0.5514 -1.1296  0.3291
   23SAPC  C220 3056   3.098   4.736   8.586 -0.2888 -0.9462  0.4683
   23SAPC  H20R 3057   3.075   4.841   8.614 -2.0536 -0.7740 -1.3931
   23SAPC  H20S 3058   3.004   4.677   8.584  0.4962 -2.2920  1.5808
   23SAPC  H20T 3059   3.138   4.755   8.484 -0.1979  0.1188  0.6949
   23SAPC   C33 3060   3.264   3.730  10.254 -0.1300  0.2741  0.2726
   23SAPC   H3X 3061   3.350   3.660  10.245 -0.2732  0.1019  0.2358
   23SAPC   H3Y 3062   3.304   3.834  10.249  1.5413 -0.3282  0.3288
   23SAPC   C34 3063   3.166   3.696  10.138  1.3264 -0.3204 -0.3964
   23SAPC   H4X 3064   3.059   3.715  10.162  0.7139 -1.5660 -1.9261
   23SAPC   H4Y 3065   3.175   3.585  10.140  0.7731 -0.4373 -2.1738
   23SAPC   C35 3066   3.201   3.748  10.000 -0.1998  0.7041  0.4580
   23SAPC   H5X 3067   3.299   3.709   9.967 -0.5554  2.4972 -3.2028
   23SAPC   H5Y 3068   3.207   3.859  10.004 -0.1823  0.6817  1.2107
   23SAPC   C36 3069   3.103   3.708   9.899 -0.5142 -0.5315  0.2303
   23SAPC   H6X 3070   3.010   3.768   9.899 -1.9359 -2.6328  1.0060
   23SAPC   H6Y 3071   3.055   3.609   9.916 -2.7980  0.2192 -1.4315
   23SAPC   C37 3072   3.168   3.716   9.760 -0.1770 -0.2614 -0.9136
   23SAPC   H7X 3073   3.245   3.636   9.753 -0.2384 -0.5500  1.1904
   23SAPC   H7Y 3074   3.217   3.815   9.748 -1.2660  0.2590 -1.1817
   23SAPC   C38 3075   3.079   3.700   9.637  0.1573  0.1008  0.5352
   23SAPC   H8X 3076   2.989   3.764   9.645 -1.5013 -2.2157  1.6914
   23SAPC   H8Y 3077   3.046   3.594   9.630  0.3278  0.1729 -3.4499
   23SAPC   C39 3078   3.146   3.731   9.500 -0.8011  0.3602 -0.1230
   23SAPC   H9X 3079   3.246   3.684   9.503 -1.8997 -2.0675  1.4470
   23SAPC   H9Y 3080   3.182   3.836   9.488  0.7401 -0.1955 -0.4697
   23SAPC  C310 3081   3.066   3.687   9.377  0.0546  0.1247  1.0299
   23SAPC  H10X 3082   2.966   3.734   9.390  0.2483  1.8342 -2.3700
   23SAPC  H10Y 3083   3.061   3.578   9.360 -0.7273  0.4044 -0.7553
   23SAPC  C311 3084   3.131   3.746   9.246 -0.5009  0.1229  0.2511
   23SAPC  H11X 3085   3.238   3.720   9.234  0.6432  3.9985  0.6449
   23SAPC  H11Y 3086   3.147   3.855   9.263  1.0177  0.1883 -1.3331
   23SAPC  C312 3087   3.054   3.718   9.120 -0.3946 -0.1893 -0.4785
   23SAPC  H12X 3088   2.957   3.771   9.124  0.0906  0.8208 -1.6246
   23SAPC  H12Y 3089   3.047   3.608   9.108 -0.2008 -0.2968  0.3622
   23SAPC  C313 3090   3.142   3.784   9.010 -0.3422  0.3934 -0.1163
   23SAPC  H13X 3091   3.247   3.751   9.023 -0.9433 -1.4140  0.4827
   23SAPC  H13Y 3092   3.159   3.892   9.029  1.0419  0.0316  0.8866
   23SAPC  C314 3093   3.096   3.743   8.869 -0.1424 -0.4987  0.0137
   23SAPC  H14X 3094   3.159   3.792   8.792 -0.6953  1.9423  1.0373
   23SAPC  H14Y 3095   2.993   3.786   8.869  1.4661  4.1563  3.2423
   23SAPC  C315 3096   3.090   3.594   8.831 -0.0801  0.1853  0.7203
   23SAPC  H15X 3097   2.998   3.549   8.875 -0.8159 -2.4817 -3.1347
   23SAPC  H15Y 3098   3.189   3.555   8.864  0.3755  2.6519  2.6339
   23SAPC  C316 3099   3.077   3.575   8.673 -0.4910 -0.4509 -0.0565
   23SAPC  H16X 3100   3.153   3.637   8.621  1.6341 -0.9913  2.2138
   23SAPC  H16Y 3101   2.972   3.594   8.643 -0.7649 -0.8913  0.5895
   23SAPC  C317 3102   3.093   3.427   8.641 -0.4277 -0.4536  0.4277
   23SAPC  H17X 3103   3.176   3.393   8.706 -0.2450  0.2941  0.5892
   23SAPC  H17Y 3104   3.115   3.427   8.532 -1.5348 -0.5098  0.1877
   23SAPC  C318 3105   2.970   3.340   8.656  0.1322  0.2784 -0.2491
   23SAPC  H18X 3106   2.884   3.363   8.590 -0.7949 -1.3602  0.3175
   23SAPC  H18Y 3107   2.933   3.363   8.758 -0.4854  0.5925 -0.5383
   23SAPC  H18Z 3108   2.994   3.231   8.653  0.3702  0.2372  1.6234
   24SAPC     N 3109   5.583   2.317  11.167  0.0669  0.4469 -0.6540
   24SAPC   C12 3110   5.500   2.438  11.195  0.4953  0.2646 -0.0653
   24SAPC  H12A 3111   5.570   2.508  11.238 -0.0805  1.0613 -0.4214
   24SAPC  H12B 3112   5.424   2.411  11.267 -1.1886  0.6043 -1.6586
   24SAPC   C13 3113   5.647   2.253  11.291  0.4664 -0.4031 -0.4297
   24SAPC  H13A 3114   5.717   2.175  11.266  1.2914  0.5678 -1.1801
   24SAPC  H13B 3115   5.694   2.329  11.351  0.3956  0.1831 -1.1033
   24SAPC  H13C 3116   5.567   2.203  11.344 -0.6107 -0.2933 -1.8898
   24SAPC   C14 3117   5.499   2.206  11.097 -0.0818  0.3364  0.4618
   24SAPC  H14A 3118   5.558   2.117  11.080 -0.6975 -0.3609  1.8674
   24SAPC  H14B 3119   5.421   2.175  11.165 -0.2888 -0.3378 -0.0603
   24SAPC  H14C 3120   5.454   2.250  11.008 -0.5689 -0.5447  0.2618
   24SAPC   C15 3121   5.703   2.344  11.081 -0.2548  0.4429 -0.1850
   24SAPC  H15A 3122   5.671   2.379  10.984  2.4444  0.1218 -1.3002
   24SAPC  H15B 3123   5.772   2.413  11.127  0.5169 -1.8834  2.4178
   24SAPC  H15C 3124   5.761   2.254  11.068  2.4027  2.0094  0.0070
   24SAPC   C11 3125   5.434   2.507  11.079  0.1298 -0.1594  0.3456
   24SAPC  H11A 3126   5.362   2.580  11.122  0.3065 -1.5420  3.2372
   24SAPC  H11B 3127   5.360   2.441  11.029 -0.9439 -0.4927  2.2738
   24SAPC     P 3128   5.595   2.695  11.009 -0.0056 -0.0777  0.2329
   24SAPC   O13 3129   5.626   2.713  11.153 -0.2494  1.0525  0.0853
   24SAPC   O14 3130   5.705   2.714  10.912  0.1626  0.3040 -0.0562
   24SAPC   O12 3131   5.519   2.563  10.978 -0.2861  0.0941  0.1423
   24SAPC   O11 3132   5.489   2.803  10.977 -0.0586  0.3374 -0.2171
   24SAPC    C1 3133   5.363   2.789  10.920  0.4851 -0.6504  0.1773
   24SAPC    HA 3134   5.292   2.734  10.987  0.1816 -1.2306 -0.6050
   24SAPC    HB 3135   5.308   2.884  10.905 -0.7575 -1.5804 -1.5089
   24SAPC    C2 3136   5.364   2.735  10.772  0.0279  0.2738 -0.3927
   24SAPC    HS 3137   5.393   2.628  10.780 -0.2574  0.2846  1.0859
   24SAPC   O21 3138   5.472   2.804  10.710 -0.4078 -0.7642  0.2443
   24SAPC   C21 3139   5.531   2.742  10.604 -0.5296 -0.2588 -0.1993
   24SAPC   O22 3140   5.515   2.623  10.580 -0.1608 -0.5337 -0.4646
   24SAPC   C22 3141   5.630   2.833  10.533 -0.1384 -0.2461 -0.6716
   24SAPC   H2R 3142   5.702   2.867  10.611  1.2385 -1.0089 -1.5528
   24SAPC   H2S 3143   5.680   2.764  10.462  0.2073 -1.3866  0.6311
   24SAPC    C3 3144   5.217   2.752  10.714 -0.8173 -1.5303  0.3891
   24SAPC    HX 3145   5.184   2.858  10.711  1.2573 -0.8031  1.4291
   24SAPC    HY 3146   5.155   2.717  10.799 -1.4194  0.9253  1.0386
   24SAPC   O31 3147   5.201   2.679  10.592  0.4691 -0.1686  0.2599
   24SAPC   C31 3148   5.084   2.643  10.573 -0.0428  0.2659  0.0388
   24SAPC   O32 3149   4.983   2.674  10.638  0.2020  0.2553  0.1396
   24SAPC   C32 3150   5.079   2.539  10.458  0.5920 -0.4503 -0.3740
   24SAPC   H2X 3151   5.012   2.454  10.485  4.2245 -2.9374  1.7275
   24SAPC   H2Y 3152   5.180   2.503  10.428  0.5871 -0.3266 -0.5400
   24SAPC   C23 3153   5.560   2.944  10.450 -0.4467  0.1145 -0.4456
   24SAPC   H3R 3154   5.644   2.985  10.391 -1.0321  0.1958 -1.2408
   24SAPC   H3S 3155   5.517   3.018  10.522  1.8111 -1.6345  2.9778
   24SAPC   C24 3156   5.449   2.886  10.354  0.4838  0.6446  0.4489
   24SAPC   H4R 3157   5.390   2.962  10.299 -2.9382 -2.4481 -0.5695
   24SAPC   H4S 3158   5.371   2.834  10.414 -0.3064  0.7135 -0.5029
   24SAPC   C25 3159   5.504   2.776  10.262 -0.2070 -0.7676 -0.1204
   24SAPC   H5R 3160   5.522   2.678  10.308  2.5040  0.4775  1.7527
   24SAPC   C26 3161   5.523   2.793  10.128  0.0499  0.2813 -0.3573
   24SAPC   H6R 3162   5.568   2.708  10.075  0.2999 -0.2529  0.6850
   24SAPC   C27 3163   5.506   2.921  10.050 -0.6704 -0.1828  0.3341
   24SAPC   H7R 3164   5.590   2.927   9.978  0.1621  0.8350  1.3685
   24SAPC   H7S 3165   5.505   3.014  10.110 -4.9705  1.0896 -1.3584
   24SAPC   C28 3166   5.380   2.923   9.964 -0.8074  0.8643  0.0076
   24SAPC   H8R 3167   5.286   2.895  10.015 -0.5869 -0.1103 -0.0986
   24SAPC   C29 3168   5.385   2.949   9.832  0.2408 -0.3661 -1.0226
   24SAPC   H9R 3169   5.298   2.927   9.769 -1.4906  1.2093  0.6718
   24SAPC  C210 3170   5.501   2.983   9.744  0.2403  0.2646  0.6263
   24SAPC  H10R 3171   5.581   3.043   9.792  1.3544 -0.8408  0.2098
   24SAPC  H10S 3172   5.467   3.044   9.658  0.2169 -1.1513 -0.3910
   24SAPC  C211 3173   5.562   2.857   9.690  0.3169 -0.2409  0.8218
   24SAPC  H11R 3174   5.615   2.806   9.771  0.2109 -0.7691  0.5636
   24SAPC  C212 3175   5.541   2.799   9.567 -0.0640 -0.3887 -0.5610
   24SAPC  H12R 3176   5.595   2.707   9.540  0.8831  0.3485 -1.2279
   24SAPC  C213 3177   5.442   2.844   9.469 -0.2470  0.3110 -0.2676
   24SAPC  H13R 3178   5.345   2.866   9.518 -0.4021  0.5168 -0.6562
   24SAPC  H13S 3179   5.418   2.754   9.409  0.0691  1.1403 -1.6931
   24SAPC  C214 3180   5.486   2.958   9.387 -0.5304 -0.0917 -0.7075
   24SAPC  H14R 3181   5.536   3.038   9.444  1.4253 -2.2628  0.7928
   24SAPC  C215 3182   5.467   2.982   9.259  0.0960  0.4972 -0.3455
   24SAPC  H15R 3183   5.496   3.075   9.209 -0.7277 -0.0678 -1.9508
   24SAPC  C216 3184   5.412   2.886   9.157 -0.7320  0.4311 -0.1725
   24SAPC  H16R 3185   5.312   2.846   9.187 -1.0550  1.5427  0.2839
   24SAPC  H16S 3186   5.485   2.805   9.134  0.6855  1.6889 -0.1745
   24SAPC  C217 3187   5.388   2.956   9.019 -0.0185  0.0709 -0.6298
   24SAPC  H17R 3188   5.302   3.026   9.023 -1.1811 -1.3370  0.5516
   24SAPC  H17S 3189   5.352   2.876   8.952 -1.4767  0.5242 -0.4210
   24SAPC  C218 3190   5.524   3.005   8.968  0.4495  1.0057  0.0364
   24SAPC  H18R 3191   5.594   2.934   9.017 -0.0374 -0.5540 -1.4481
   24SAPC  H18S 3192   5.546   3.106   9.008  0.5839  1.1189 -0.3208
   24SAPC  C219 3193   5.540   3.014   8.813  0.2530  0.3605 -0.3947
   24SAPC  H19R 3194   5.463   2.943   8.777  0.3544 -0.9349  1.7618
   24SAPC  H19S 3195   5.631   2.975   8.762  0.0291 -2.2996  1.0663
   24SAPC  C220 3196   5.512   3.163   8.767 -0.3217 -0.3234  0.5824
   24SAPC  H20R 3197   5.415   3.190   8.814 -0.5457 -0.2487  0.0828
   24SAPC  H20S 3198   5.498   3.164   8.657 -2.3526  0.3391  0.8075
   24SAPC  H20T 3199   5.590   3.238   8.792 -2.1024  1.7202  0.2998
   24SAPC   C33 3200   5.011   2.599  10.328 -0.5198 -0.5091  0.0049
   24SAPC   H3X 3201   4.906   2.632  10.345 -0.3242 -0.3437  0.9544
   24SAPC   H3Y 3202   5.014   2.516  10.254 -1.6355  0.6702 -1.4154
   24SAPC   C34 3203   5.095   2.714  10.260 -0.8066  0.7732 -1.0053
   24SAPC   H4X 3204   5.199   2.680  10.243 -1.4782 -1.9163 -0.2822
   24SAPC   H4Y 3205   5.100   2.796  10.336  0.3027  0.2815 -0.5361
   24SAPC   C35 3206   5.032   2.765  10.129  0.5903 -0.7236 -0.6056
   24SAPC   H5X 3207   5.065   2.871  10.116 -0.3074  0.0171  2.3347
   24SAPC   H5Y 3208   4.921   2.765  10.135  0.6420  0.4699  1.0536
   24SAPC   C36 3209   5.074   2.683  10.008  0.5661  0.3463 -0.4573
   24SAPC   H6X 3210   5.051   2.575  10.015  0.8910  0.3488  0.7707
   24SAPC   H6Y 3211   5.184   2.680   9.994  0.8260 -0.3511  1.5059
   24SAPC   C37 3212   5.010   2.750   9.883 -0.0433  0.0362  0.1002
   24SAPC   H7X 3213   5.062   2.849   9.885  0.5256 -0.2026 -1.4240
   24SAPC   H7Y 3214   4.900   2.758   9.888 -0.2627 -2.5288  0.6139
   24SAPC   C38 3215   5.043   2.691   9.750  0.4670 -0.0248  0.6653
   24SAPC   H8X 3216   4.997   2.591   9.739  0.6667  0.1105 -2.0872
   24SAPC   H8Y 3217   5.154   2.685   9.739  0.5828  2.8539 -0.7312
   24SAPC   C39 3218   4.975   2.774   9.646 -0.3541  0.4959  0.3149
   24SAPC   H9X 3219   4.998   2.881   9.666  0.3707  0.6572 -1.2677
   24SAPC   H9Y 3220   4.867   2.750   9.646 -0.4321  0.6228 -2.0449
   24SAPC  C310 3221   5.026   2.736   9.501  0.0857 -0.8082 -0.1568
   24SAPC  H10X 3222   5.066   2.633   9.494  1.6046 -0.2714  0.2144
   24SAPC  H10Y 3223   5.108   2.809   9.483 -1.2086  0.4267 -1.3712
   24SAPC  C311 3224   4.919   2.759   9.394 -0.2922 -0.4095  0.2493
   24SAPC  H11X 3225   4.901   2.868   9.384 -1.1655 -0.6505 -1.1150
   24SAPC  H11Y 3226   4.825   2.707   9.422 -0.0986 -0.4344  0.8563
   24SAPC  C312 3227   4.964   2.717   9.254  0.0315  0.0853 -0.0307
   24SAPC  H12X 3228   5.011   2.616   9.248  0.3347  0.2998 -2.2253
   24SAPC  H12Y 3229   5.043   2.789   9.223 -0.8304  1.4337  0.8024
   24SAPC  C313 3230   4.851   2.723   9.152 -0.1379  0.1195  0.8952
   24SAPC  H13X 3231   4.783   2.805   9.183 -0.5141  1.2748 -2.4963
   24SAPC  H13Y 3232   4.793   2.628   9.145 -0.0163  0.0148  1.2913
   24SAPC  C314 3233   4.903   2.758   9.006 -0.0558  0.4475  0.1312
   24SAPC  H14X 3234   4.928   2.656   8.968  0.2599  0.9093 -0.9529
   24SAPC  H14Y 3235   4.995   2.820   8.997 -0.2932  0.5226 -2.7237
   24SAPC  C315 3236   4.800   2.813   8.909  0.4980  0.4049  0.0150
   24SAPC  H15X 3237   4.794   2.922   8.932  1.5945  0.0587  2.1767
   24SAPC  H15Y 3238   4.703   2.765   8.933  1.7945 -1.8518  1.0170
   24SAPC  C316 3239   4.844   2.804   8.761  0.2039  0.4284  0.3416
   24SAPC  H16X 3240   4.850   2.700   8.721  1.2914  1.0117 -1.0906
   24SAPC  H16Y 3241   4.939   2.856   8.736  0.4297 -0.3454 -0.4442
   24SAPC  C317 3242   4.746   2.874   8.662 -0.1507 -0.3924  0.2713
   24SAPC  H17X 3243   4.789   2.858   8.561  1.1205  1.4256  0.4810
   24SAPC  H17Y 3244   4.763   2.984   8.665 -2.5228  0.2434 -3.6224
   24SAPC  C318 3245   4.604   2.843   8.653 -0.1184 -0.8569  0.4211
   24SAPC  H18X 3246   4.590   2.750   8.594  2.7304 -2.0182  1.3943
   24SAPC  H18Y 3247   4.560   2.932   8.603 -0.0277 -1.1522 -0.1997
   24SAPC  H18Z 3248   4.549   2.824   8.747  2.5068 -0.7585  2.0738
   25SAPC     N 3249   1.754   0.275   6.381  0.0442  0.2068 -0.2029
   25SAPC   C12 3250   1.874   0.220   6.450  0.1235 -0.0343  0.0234
   25SAPC  H12A 3251   1.845   0.123   6.489 -1.8631 -0.4050 -2.1604
   25SAPC  H12B 3252   1.884   0.277   6.541 -1.9789 -1.0432  0.9605
   25SAPC   C13 3253   1.719   0.199   6.258 -0.5331 -0.2475  0.1908
   25SAPC  H13A 3254   1.695   0.096   6.284 -2.6397 -0.3035 -1.6782
   25SAPC  H13B 3255   1.639   0.248   6.205 -0.0009 -1.2690 -1.6386
   25SAPC  H13C 3256   1.801   0.203   6.189 -1.7150 -1.2298 -1.3381
   25SAPC   C14 3257   1.636   0.253   6.471 -0.2821  0.0392 -0.5136
   25SAPC  H14A 3258   1.622   0.147   6.477  0.6314 -0.0704 -0.1194
   25SAPC  H14B 3259   1.647   0.273   6.577 -0.2554 -0.8202 -0.3500
   25SAPC  H14C 3260   1.550   0.300   6.426 -0.5683  2.0155  1.8679
   25SAPC   C15 3261   1.775   0.422   6.356 -0.3303  0.1273  1.1010
   25SAPC  H15A 3262   1.851   0.439   6.282 -0.5705  2.2687  1.2944
   25SAPC  H15B 3263   1.687   0.462   6.308 -1.4244 -0.2986  2.6789
   25SAPC  H15C 3264   1.800   0.479   6.444  2.8154  0.5650  0.0620
   25SAPC   C11 3265   2.008   0.204   6.379 -0.6443 -0.3125  0.3518
   25SAPC  H11A 3266   2.089   0.189   6.453 -1.6535  2.9778  2.3320
   25SAPC  H11B 3267   2.024   0.303   6.329 -0.8242 -1.0287 -1.1902
   25SAPC     P 3268   2.097   0.096   6.160  0.0350  0.2311  0.2910
   25SAPC   O13 3269   2.177  -0.033   6.148 -0.0301 -0.3107 -0.2788
   25SAPC   O14 3270   2.026   0.128   6.034 -0.3287  0.0225  0.7816
   25SAPC   O12 3271   2.004   0.096   6.283 -0.0315 -0.1079  0.0392
   25SAPC   O11 3272   2.199   0.209   6.187  0.1351 -0.4721  0.0384
   25SAPC    C1 3273   2.342   0.182   6.190 -0.6216 -0.3113  0.5081
   25SAPC    HA 3274   2.371   0.115   6.107  1.5941  1.9571 -0.6870
   25SAPC    HB 3275   2.393   0.279   6.169 -0.1468 -0.3355  1.5194
   25SAPC    C2 3276   2.405   0.127   6.322  0.2403 -0.2982 -0.1739
   25SAPC    HS 3277   2.352   0.033   6.352 -1.3016  0.8191  0.7302
   25SAPC   O21 3278   2.375   0.233   6.421 -0.8656 -0.0704  0.0568
   25SAPC   C21 3279   2.360   0.197   6.542  0.4134  0.8561 -0.5305
   25SAPC   O22 3280   2.365   0.080   6.583  0.2431 -0.3965  0.3888
   25SAPC   C22 3281   2.354   0.322   6.634  0.0128  0.1787 -0.3358
   25SAPC   H2R 3282   2.414   0.402   6.584 -0.9688  0.2405 -1.4699
   25SAPC   H2S 3283   2.247   0.352   6.633 -0.1429 -0.3740 -1.0037
   25SAPC    C3 3284   2.557   0.090   6.307  0.0248  0.7761 -0.6864
   25SAPC    HX 3285   2.606   0.174   6.253 -0.4091  1.1286 -0.5411
   25SAPC    HY 3286   2.583   0.003   6.244  1.1205 -0.7860  1.8015
   25SAPC   O31 3287   2.622   0.076   6.432 -0.3743 -0.3071 -0.2002
   25SAPC   C31 3288   2.630  -0.047   6.492 -0.0826 -0.0203 -0.1059
   25SAPC   O32 3289   2.588  -0.150   6.437 -0.4705  0.3429 -0.3519
   25SAPC   C32 3290   2.697  -0.029   6.626  0.1375 -0.0787  0.4821
   25SAPC   H2X 3291   2.695   0.079   6.652  1.6637  0.4369 -1.3217
   25SAPC   H2Y 3292   2.801  -0.063   6.607 -0.4951 -1.6243 -0.4185
   25SAPC   C23 3293   2.401   0.278   6.775  0.5986  0.3887 -0.0564
   25SAPC   H3R 3294   2.507   0.253   6.754  0.4135 -0.6112  0.1467
   25SAPC   H3S 3295   2.347   0.191   6.818  0.4697  1.3825  1.9191
   25SAPC   C24 3296   2.380   0.403   6.867  0.1255  0.0617 -0.3941
   25SAPC   H4R 3297   2.401   0.494   6.807 -1.5695  0.1486 -0.9000
   25SAPC   H4S 3298   2.451   0.389   6.951 -0.9834  2.4046  1.0315
   25SAPC   C25 3299   2.234   0.399   6.925 -0.3609  0.5372  0.4682
   25SAPC   H5R 3300   2.148   0.396   6.857 -0.6735  0.0780  0.8785
   25SAPC   C26 3301   2.213   0.409   7.053  0.0210  0.3536 -0.1555
   25SAPC   H6R 3302   2.106   0.415   7.079 -0.5030 -0.4190 -1.9890
   25SAPC   C27 3303   2.303   0.426   7.178  0.3204 -0.9337  0.1509
   25SAPC   H7R 3304   2.258   0.509   7.235 -0.1435 -0.5892 -0.6870
   25SAPC   H7S 3305   2.404   0.465   7.153 -0.1371  0.2805  0.1234
   25SAPC   C28 3306   2.317   0.296   7.246 -0.5194  0.3127 -0.2281
   25SAPC   H8R 3307   2.334   0.203   7.189 -1.7105 -1.1194  1.6578
   25SAPC   C29 3308   2.300   0.276   7.373  0.6689  0.1378 -0.2361
   25SAPC   H9R 3309   2.320   0.175   7.412  0.8537  0.9044  1.8320
   25SAPC  C210 3310   2.263   0.371   7.485  0.7762 -0.5475  0.7349
   25SAPC  H10R 3311   2.174   0.328   7.537  2.3189 -2.4313  1.9857
   25SAPC  H10S 3312   2.238   0.472   7.447  4.0455  0.5775  1.2373
   25SAPC  C211 3313   2.376   0.367   7.581 -0.3517  0.2413  0.1329
   25SAPC  H11R 3314   2.471   0.337   7.535 -0.7849 -1.5460  0.3312
   25SAPC  C212 3315   2.367   0.373   7.713 -0.4702  0.3974 -0.1859
   25SAPC  H12R 3316   2.464   0.387   7.763 -0.1632 -2.7293  0.2928
   25SAPC  C213 3317   2.248   0.406   7.793 -0.0793  0.6812  0.5866
   25SAPC  H13R 3318   2.151   0.421   7.741 -0.0634  0.8567  0.6086
   25SAPC  H13S 3319   2.260   0.505   7.842  0.9813  0.4642  0.8026
   25SAPC  C214 3320   2.216   0.297   7.892  0.8517 -0.1097  0.6811
   25SAPC  H14R 3321   2.153   0.212   7.865  0.6209  0.2499  0.0776
   25SAPC  C215 3322   2.242   0.309   8.025 -0.1755 -0.2506 -0.0670
   25SAPC  H15R 3323   2.193   0.239   8.094 -0.0861 -0.5821 -0.3398
   25SAPC  C216 3324   2.314   0.420   8.098  0.6295 -0.2590 -0.1759
   25SAPC  H16R 3325   2.272   0.445   8.198  0.2373 -1.0011 -0.1518
   25SAPC  H16S 3326   2.302   0.523   8.058  1.5786  0.6988  1.8385
   25SAPC  C217 3327   2.464   0.396   8.127 -0.0154  0.5032 -0.7277
   25SAPC  H17R 3328   2.519   0.413   8.032 -1.6515 -0.3441 -1.8798
   25SAPC  H17S 3329   2.477   0.289   8.153  1.0704  1.0835  1.3099
   25SAPC  C218 3330   2.524   0.465   8.250  0.0758 -0.1771 -0.3137
   25SAPC  H18R 3331   2.502   0.573   8.243 -4.1255 -0.9509 -1.6415
   25SAPC  H18S 3332   2.635   0.458   8.242  0.0816  0.4704 -0.9227
   25SAPC  C219 3333   2.481   0.427   8.390 -0.4689 -0.5408 -0.3917
   25SAPC  H19R 3334   2.372   0.432   8.414 -0.3833  1.4238 -0.2583
   25SAPC  H19S 3335   2.529   0.496   8.463  0.7513 -0.6308 -1.0885
   25SAPC  C220 3336   2.515   0.276   8.427  0.0486 -0.2977  0.2445
   25SAPC  H20R 3337   2.517   0.201   8.345  3.2821 -0.0542 -0.0439
   25SAPC  H20S 3338   2.442   0.235   8.500 -0.0961 -3.3648 -1.4586
   25SAPC  H20T 3339   2.619   0.266   8.465 -0.2217 -2.2084  0.5883
   25SAPC   C33 3340   2.634  -0.126   6.733  0.2287  0.0372  0.2793
   25SAPC   H3X 3341   2.696  -0.215   6.755  0.2854  0.0584  0.2067
   25SAPC   H3Y 3342   2.528  -0.155   6.716  0.2347 -0.9576  1.7660
   25SAPC   C34 3343   2.614  -0.050   6.860  0.1550 -0.2786 -0.6738
   25SAPC   H4X 3344   2.519   0.007   6.851  0.8597  1.3233  1.1646
   25SAPC   H4Y 3345   2.702   0.015   6.879 -0.6907  0.1230  2.5038
   25SAPC   C35 3346   2.599  -0.141   6.984  0.2821 -0.2237 -0.4353
   25SAPC   H5X 3347   2.688  -0.205   6.993 -0.9732 -1.7958  1.8449
   25SAPC   H5Y 3348   2.524  -0.220   6.963  0.9591 -1.0355  0.1722
   25SAPC   C36 3349   2.579  -0.058   7.112  0.2429  0.0301 -0.2408
   25SAPC   H6X 3350   2.487   0.004   7.109  0.3220  0.1508 -0.1940
   25SAPC   H6Y 3351   2.662   0.015   7.125  0.4839 -0.5256  1.7576
   25SAPC   C37 3352   2.577  -0.158   7.235  0.4958 -0.6539  0.5392
   25SAPC   H7X 3353   2.666  -0.225   7.239  0.1783 -1.1482 -0.2792
   25SAPC   H7Y 3354   2.480  -0.209   7.219  0.2782  0.5953 -3.2326
   25SAPC   C38 3355   2.586  -0.087   7.373 -0.1503 -0.2955  1.2440
   25SAPC   H8X 3356   2.527   0.005   7.355 -3.0658 -1.9600  1.5717
   25SAPC   H8Y 3357   2.691  -0.075   7.406  0.3222  0.5401 -0.4599
   25SAPC   C39 3358   2.532  -0.179   7.487  0.1216 -0.5486 -0.4048
   25SAPC   H9X 3359   2.604  -0.263   7.501  0.0137 -0.5840 -0.0510
   25SAPC   H9Y 3360   2.432  -0.219   7.461 -1.1532  2.0080  0.2070
   25SAPC  C310 3361   2.548  -0.108   7.627  0.2050  0.5928 -0.9680
   25SAPC  H10X 3362   2.501  -0.008   7.617 -0.1911  0.3775 -1.2570
   25SAPC  H10Y 3363   2.654  -0.094   7.659 -0.0114 -0.5407  0.3094
   25SAPC  C311 3364   2.483  -0.182   7.749 -0.3511 -0.0634 -0.3645
   25SAPC  H11X 3365   2.546  -0.272   7.767  0.4542  1.0876  3.4140
   25SAPC  H11Y 3366   2.381  -0.218   7.724 -0.8981  0.8471  0.4988
   25SAPC  C312 3367   2.493  -0.094   7.871  0.2196  0.0224 -0.0049
   25SAPC  H12X 3368   2.444   0.006   7.874 -0.4039 -0.2624 -0.6779
   25SAPC  H12Y 3369   2.602  -0.077   7.889 -0.1032  3.5236 -0.5634
   25SAPC  C313 3370   2.450  -0.171   7.997 -0.2726  1.0015  0.2767
   25SAPC  H13X 3371   2.520  -0.257   8.008 -0.4865  0.5384 -1.7334
   25SAPC  H13Y 3372   2.346  -0.211   8.000 -0.1617  0.7012  0.1911
   25SAPC  C314 3373   2.471  -0.090   8.134  0.1312  0.5985  0.4343
   25SAPC  H14X 3374   2.409   0.002   8.137  1.1110  1.2585  1.9709
   25SAPC  H14Y 3375   2.579  -0.068   8.144  0.4180  0.1276 -1.3560
   25SAPC  C315 3376   2.437  -0.181   8.253  0.5878  0.1572 -0.2462
   25SAPC  H15X 3377   2.461  -0.144   8.355  0.8364 -0.6453 -0.0020
   25SAPC  H15Y 3378   2.489  -0.279   8.256  0.7969  0.2878  2.0260
   25SAPC  C316 3379   2.284  -0.215   8.256 -0.6398 -1.1350  0.3221
   25SAPC  H16X 3380   2.254  -0.270   8.165 -2.1817  0.3377 -0.1142
   25SAPC  H16Y 3381   2.224  -0.121   8.265  0.5759 -0.3934  0.9535
   25SAPC  C317 3382   2.242  -0.308   8.368 -0.0936 -0.1017 -0.3446
   25SAPC  H17X 3383   2.282  -0.272   8.465  0.1871 -0.0773 -0.4697
   25SAPC  H17Y 3384   2.288  -0.407   8.346 -0.7737 -0.4593 -0.1965
   25SAPC  C318 3385   2.088  -0.326   8.387 -0.8953 -0.0983 -0.2911
   25SAPC  H18X 3386   2.038  -0.369   8.297  1.1423 -3.1233 -0.1327
   25SAPC  H18Y 3387   2.038  -0.228   8.404 -3.7590 -1.6213  0.7653
   25SAPC  H18Z 3388   2.071  -0.386   8.479  1.8909  1.5528  1.4643
   26SAPC     N 3389   1.190   3.989   6.061 -0.6509  0.4162  0.0179
   26SAPC   C12 3390   1.304   4.012   6.158  0.5164 -0.3105 -0.1657
   26SAPC  H12A 3391   1.397   4.038   6.110  0.1227 -1.3036 -1.5322
   26SAPC  H12B 3392   1.330   3.913   6.195 -1.9869 -0.8711  0.2236
   26SAPC   C13 3393   1.211   3.880   5.964  0.1544  0.6448 -0.1803
   26SAPC  H13A 3394   1.213   3.779   6.003 -0.3651  0.2167 -1.2203
   26SAPC  H13B 3395   1.134   3.875   5.888  0.1932  0.0899 -0.1896
   26SAPC  H13C 3396   1.307   3.888   5.914  1.2032 -1.4562  1.3305
   26SAPC   C14 3397   1.073   3.968   6.150  0.8703 -0.1869 -0.1466
   26SAPC  H14A 3398   1.094   3.886   6.217  0.5552 -0.0072  0.1763
   26SAPC  H14B 3399   1.053   4.053   6.213  2.2293 -0.8402  1.2104
   26SAPC  H14C 3400   0.982   3.933   6.104 -1.1074 -0.6723  3.7186
   26SAPC   C15 3401   1.153   4.111   5.987 -0.3920 -0.4428 -0.2359
   26SAPC  H15A 3402   1.109   4.183   6.055  1.8276 -2.2233  3.4141
   26SAPC  H15B 3403   1.237   4.161   5.943 -0.9585 -0.1384 -0.9884
   26SAPC  H15C 3404   1.079   4.088   5.912 -0.5570  1.1783 -0.5989
   26SAPC   C11 3405   1.284   4.107   6.283  0.4483 -0.1692  0.7156
   26SAPC  H11A 3406   1.380   4.118   6.337 -0.6583  2.2673  2.3549
   26SAPC  H11B 3407   1.216   4.063   6.359 -1.2155  2.8338  1.1368
   26SAPC     P 3408   1.316   4.365   6.238  0.0927 -0.3022  0.0277
   26SAPC   O13 3409   1.440   4.335   6.160  0.6414 -0.0923  0.1977
   26SAPC   O14 3410   1.238   4.480   6.196  0.5210  0.3124  0.9978
   26SAPC   O12 3411   1.227   4.236   6.246 -0.2874  0.2772  0.1767
   26SAPC   O11 3412   1.352   4.380   6.393  0.4838  0.3303  0.2985
   26SAPC    C1 3413   1.247   4.364   6.487 -0.1526  0.3295 -0.1407
   26SAPC    HA 3414   1.155   4.416   6.453  0.7198  1.4440 -0.8649
   26SAPC    HB 3415   1.233   4.261   6.526  1.0875  1.3559  3.3954
   26SAPC    C2 3416   1.276   4.449   6.613  0.6816 -0.3554 -0.0013
   26SAPC    HS 3417   1.285   4.556   6.588 -1.0099 -0.0568  0.5119
   26SAPC   O21 3418   1.390   4.404   6.680  0.4225  0.4102  0.1908
   26SAPC   C21 3419   1.512   4.449   6.642 -0.0601  0.2486 -0.0365
   26SAPC   O22 3420   1.528   4.552   6.583  0.1769 -0.3649  0.4849
   26SAPC   C22 3421   1.622   4.359   6.701  0.4594 -0.6851  0.2618
   26SAPC   H2R 3422   1.716   4.411   6.676  0.6722 -2.1948 -2.4264
   26SAPC   H2S 3423   1.597   4.355   6.809 -0.6223 -0.8309  0.0279
   26SAPC    C3 3424   1.150   4.430   6.702  0.2459 -0.4824 -0.2312
   26SAPC    HX 3425   1.132   4.321   6.716 -1.4841 -0.4598 -1.8377
   26SAPC    HY 3426   1.067   4.487   6.654 -0.3494 -0.4404  0.8082
   26SAPC   O31 3427   1.156   4.492   6.829  0.0512  0.0939 -0.2542
   26SAPC   C31 3428   1.208   4.434   6.936 -0.3759 -0.4816 -0.0547
   26SAPC   O32 3429   1.244   4.320   6.938  0.0056 -0.3725  0.2720
   26SAPC   C32 3430   1.223   4.533   7.054 -0.1228  0.3051 -0.1066
   26SAPC   H2X 3431   1.318   4.590   7.044  0.0113  0.0163 -0.5089
   26SAPC   H2Y 3432   1.234   4.463   7.139  4.1641  0.1052 -0.6017
   26SAPC   C23 3433   1.630   4.218   6.633 -1.1635 -0.0845 -0.0020
   26SAPC   H3R 3434   1.645   4.224   6.523 -2.5449 -0.5240 -0.2439
   26SAPC   H3S 3435   1.531   4.172   6.656 -1.2164 -1.1031 -2.0220
   26SAPC   C24 3436   1.756   4.139   6.678  0.0782  0.4649 -0.5418
   26SAPC   H4R 3437   1.759   4.130   6.788  0.2357 -1.0765 -0.6477
   26SAPC   H4S 3438   1.845   4.197   6.647 -0.3223  1.6249  0.4042
   26SAPC   C25 3439   1.772   4.003   6.617 -0.4114 -0.5518  0.7465
   26SAPC   H5R 3440   1.690   3.986   6.546  0.2850 -1.0262  0.0316
   26SAPC   C26 3441   1.883   3.929   6.624 -0.3411  0.2542 -0.1918
   26SAPC   H6R 3442   1.879   3.827   6.582  0.7844 -0.1046  0.5108
   26SAPC   C27 3443   2.010   3.963   6.706  0.3382  0.1781 -0.4713
   26SAPC   H7R 3444   1.986   3.957   6.815 -0.7284 -0.6527 -0.7370
   26SAPC   H7S 3445   2.045   4.064   6.676  1.5206 -0.4753 -1.3543
   26SAPC   C28 3446   2.125   3.868   6.685  0.2499  0.3864 -0.1834
   26SAPC   H8R 3447   2.153   3.854   6.580 -0.4663  1.1435 -0.4870
   26SAPC   C29 3448   2.193   3.799   6.779  0.3998  0.0260  0.0763
   26SAPC   H9R 3449   2.268   3.730   6.736  1.3102  1.7066 -1.1302
   26SAPC  C210 3450   2.175   3.793   6.928 -0.2393  0.3892 -0.2644
   26SAPC  H10R 3451   2.114   3.702   6.941  0.7950 -0.2118  0.6219
   26SAPC  H10S 3452   2.116   3.881   6.961 -1.2756  0.1846 -1.5349
   26SAPC  C211 3453   2.297   3.778   7.011 -0.2067  0.6041  0.0631
   26SAPC  H11R 3454   2.393   3.791   6.960 -1.3698  1.3855 -2.0772
   26SAPC  C212 3455   2.299   3.760   7.143  0.1668 -0.5406 -0.2107
   26SAPC  H12R 3456   2.398   3.765   7.189 -0.9698  2.2596  2.2366
   26SAPC  C213 3457   2.183   3.753   7.233  0.5478 -0.0554  0.2306
   26SAPC  H13R 3458   2.091   3.760   7.172  0.5568 -0.1019  0.2114
   26SAPC  H13S 3459   2.190   3.845   7.295  2.0671  0.5580 -0.8133
   26SAPC  C214 3460   2.181   3.627   7.310 -0.0697  0.0030  0.4219
   26SAPC  H14R 3461   2.142   3.545   7.248  1.3608  1.1597 -2.1711
   26SAPC  C215 3462   2.245   3.599   7.426 -0.4006  0.1799  0.5455
   26SAPC  H15R 3463   2.241   3.493   7.456 -3.0741 -0.2910 -1.1931
   26SAPC  C216 3464   2.327   3.688   7.515  0.3516  0.1460  0.2700
   26SAPC  H16R 3465   2.289   3.791   7.497  1.1654  0.4995  0.5487
   26SAPC  H16S 3466   2.431   3.689   7.475  0.2679 -0.5755  0.0184
   26SAPC  C217 3467   2.331   3.658   7.663 -0.4456 -0.4665 -0.0054
   26SAPC  H17R 3468   2.373   3.555   7.671  0.3180 -0.1562  0.0912
   26SAPC  H17S 3469   2.235   3.636   7.715  0.2808  0.0953  1.6489
   26SAPC  C218 3470   2.397   3.773   7.741 -0.1054 -0.7571  0.3537
   26SAPC  H18R 3471   2.331   3.862   7.751  2.1677  1.2340 -1.2429
   26SAPC  H18S 3472   2.489   3.813   7.693  0.7648  0.2625  2.7313
   26SAPC  C219 3473   2.424   3.733   7.885  0.0870  1.6230 -0.0732
   26SAPC  H19R 3474   2.342   3.680   7.939  0.6953  2.5434  1.8409
   26SAPC  H19S 3475   2.444   3.824   7.946 -1.3606  0.3525  2.4737
   26SAPC  C220 3476   2.546   3.635   7.902 -0.0306 -0.4683 -1.1923
   26SAPC  H20R 3477   2.643   3.671   7.861  1.1123 -1.2179  0.7292
   26SAPC  H20S 3478   2.515   3.542   7.850 -1.3512 -1.5019  1.2844
   26SAPC  H20T 3479   2.564   3.602   8.006  0.0974 -2.5307 -1.8278
   26SAPC   C33 3480   1.097   4.630   7.071 -0.0441  0.5056 -0.1093
   26SAPC   H3X 3481   0.999   4.579   7.085 -0.6787  2.3850  3.6069
   26SAPC   H3Y 3482   1.095   4.695   6.981  0.7266  0.7296  0.0284
   26SAPC   C34 3483   1.119   4.715   7.195 -0.4919  0.7542 -0.3249
   26SAPC   H4X 3484   1.228   4.737   7.198 -0.2397  0.0339 -2.4253
   26SAPC   H4Y 3485   1.110   4.656   7.289 -1.2649  0.2674 -0.7022
   26SAPC   C35 3486   1.027   4.832   7.219  0.2737  0.1259 -0.6133
   26SAPC   H5X 3487   0.919   4.810   7.235  0.3432 -0.3899 -0.8480
   26SAPC   H5Y 3488   1.036   4.897   7.129 -1.9274  3.3916  1.2925
   26SAPC   C36 3489   1.067   4.924   7.340 -0.4031  0.0544  0.3573
   26SAPC   H6X 3490   1.178   4.926   7.342 -0.2247 -1.4950 -2.4426
   26SAPC   H6Y 3491   1.042   4.877   7.438 -0.5335 -1.2059 -0.2626
   26SAPC   C37 3492   0.993   5.058   7.329 -0.1494  0.4020 -0.6064
   26SAPC   H7X 3493   0.886   5.053   7.357 -0.1897 -0.7928 -0.9113
   26SAPC   H7Y 3494   0.997   5.094   7.224  1.7944  0.8652 -0.4116
   26SAPC   C38 3495   1.071   5.160   7.415 -0.0396 -0.0171  0.7497
   26SAPC   H8X 3496   1.025   5.254   7.379 -1.7154 -1.0281  0.1178
   26SAPC   H8Y 3497   1.180   5.150   7.395 -0.8542 -2.7794 -4.0184
   26SAPC   C39 3498   1.040   5.140   7.559  0.0765  0.4960  0.1118
   26SAPC   H9X 3499   1.095   5.050   7.592 -1.6480 -0.7854 -0.3773
   26SAPC   H9Y 3500   0.933   5.115   7.570  0.0723  0.0128 -0.9133
   26SAPC  C310 3501   1.090   5.252   7.658 -0.4995  0.2784  0.8154
   26SAPC  H10X 3502   1.021   5.339   7.667  0.0489  0.9973 -1.3410
   26SAPC  H10Y 3503   1.187   5.287   7.618 -0.9866 -0.0753 -0.7371
   26SAPC  C311 3504   1.108   5.186   7.793  0.2403  0.1979 -0.2084
   26SAPC  H11X 3505   1.165   5.092   7.776 -0.5451 -0.0255 -1.8367
   26SAPC  H11Y 3506   1.007   5.163   7.833  0.5018 -1.7994 -0.5755
   26SAPC  C312 3507   1.180   5.273   7.891  0.0824  0.6137  0.1967
   26SAPC  H12X 3508   1.139   5.373   7.866  1.1757  0.9723 -0.2505
   26SAPC  H12Y 3509   1.289   5.281   7.869 -0.2343 -1.7417 -3.1191
   26SAPC  C313 3510   1.162   5.239   8.037 -0.2770 -0.0947 -0.0761
   26SAPC  H13X 3511   1.214   5.142   8.057  0.3887  0.6603  2.1471
   26SAPC  H13Y 3512   1.055   5.225   8.064 -0.0508 -0.6698  0.5603
   26SAPC  C314 3513   1.211   5.352   8.124 -0.1406 -0.5474 -0.6791
   26SAPC  H14X 3514   1.155   5.447   8.113 -1.3044 -0.9426  1.3274
   26SAPC  H14Y 3515   1.318   5.369   8.101  0.7970 -0.3135  3.1480
   26SAPC  C315 3516   1.207   5.321   8.272  0.4050 -0.4699  0.6535
   26SAPC  H15X 3517   1.298   5.369   8.313  0.6156 -1.3119  1.1927
   26SAPC  H15Y 3518   1.201   5.210   8.281  0.7469 -0.6067 -0.6122
   26SAPC  C316 3519   1.084   5.384   8.333 -0.0664  0.0599  0.3002
   26SAPC  H16X 3520   0.995   5.372   8.266 -0.2431  1.0640  0.3417
   26SAPC  H16Y 3521   1.094   5.495   8.334 -1.0532  0.1659  0.0900
   26SAPC  C317 3522   1.058   5.329   8.477  0.7119  0.6178 -0.1850
   26SAPC  H17X 3523   0.979   5.390   8.525 -0.5675 -1.8850  1.0755
   26SAPC  H17Y 3524   1.148   5.338   8.541 -0.3180  0.6401  1.2954
   26SAPC  C318 3525   1.006   5.183   8.493 -0.1973 -0.2756  0.8538
   26SAPC  H18X 3526   1.061   5.117   8.563 -0.0812 -0.5723  0.4897
   26SAPC  H18Y 3527   1.022   5.127   8.398 -0.6939 -0.5717  0.9398
   26SAPC  H18Z 3528   0.899   5.179   8.522 -0.5434 -0.3024 -0.3749
   27SAPC     N 3529   6.392   2.959   6.347 -0.0721 -0.3371  0.3229
   27SAPC   C12 3530   6.485   2.912   6.452  0.6553 -0.6832 -0.1320
   27SAPC  H12A 3531   6.444   2.937   6.549  2.0013 -0.3104  0.3613
   27SAPC  H12B 3532   6.580   2.963   6.442 -1.2879  3.1445 -0.8496
   27SAPC   C13 3533   6.276   2.871   6.340  0.4789 -0.0046 -0.1605
   27SAPC  H13A 3534   6.245   2.835   6.437 -1.4793  1.1395 -0.3034
   27SAPC  H13B 3535   6.187   2.912   6.295  0.4688  0.6819  0.4672
   27SAPC  H13C 3536   6.305   2.783   6.284 -0.8591 -0.2894 -0.4428
   27SAPC   C14 3537   6.350   3.103   6.372 -0.2906 -0.6462  0.0648
   27SAPC  H14A 3538   6.295   3.150   6.292 -1.3451  1.3839  1.8985
   27SAPC  H14B 3539   6.307   3.113   6.470  2.1023 -0.7597  1.2134
   27SAPC  H14C 3540   6.438   3.165   6.377 -2.0600  2.1626 -1.4714
   27SAPC   C15 3541   6.469   2.959   6.221 -0.6998 -0.0276 -0.0957
   27SAPC  H15A 3542   6.419   3.014   6.142 -1.0231  0.8181  0.6773
   27SAPC  H15B 3543   6.567   3.004   6.227 -0.9418  0.3853  1.0855
   27SAPC  H15C 3544   6.467   2.858   6.185  0.9840 -0.3650  0.6704
   27SAPC   C11 3545   6.520   2.765   6.449  0.9851  0.6935  0.1293
   27SAPC  H11A 3546   6.618   2.745   6.499  0.5556 -2.4120 -0.0811
   27SAPC  H11B 3547   6.535   2.732   6.344  2.3827  0.4978  0.3713
   27SAPC     P 3548   6.395   2.674   6.666  0.3273 -0.2077  0.2780
   27SAPC   O13 3549   6.364   2.810   6.721  0.3265  0.4111 -0.2294
   27SAPC   O14 3550   6.294   2.574   6.697  0.2310 -0.2968 -0.2176
   27SAPC   O12 3551   6.416   2.685   6.509  0.2111  0.1896 -0.3353
   27SAPC   O11 3552   6.538   2.628   6.716 -0.1675  1.0837  0.3436
   27SAPC    C1 3553   6.606   2.510   6.663 -0.2707 -0.2876 -0.8153
   27SAPC    HA 3554   6.547   2.417   6.678 -1.2934  0.5299  0.3060
   27SAPC    HB 3555   6.622   2.527   6.554  1.2343 -2.0100 -0.9229
   27SAPC    C2 3556   6.743   2.494   6.725  0.2420  0.8209 -0.1837
   27SAPC    HS 3557   6.773   2.388   6.714 -4.3029 -0.9562  2.1151
   27SAPC   O21 3558   6.739   2.523   6.866 -0.2190  0.4359  0.3616
   27SAPC   C21 3559   6.651   2.450   6.924  0.0283 -0.1521 -0.3454
   27SAPC   O22 3560   6.620   2.336   6.902 -0.4031  0.5573 -0.5306
   27SAPC   C22 3561   6.583   2.524   7.043  0.1708  0.0431  0.0560
   27SAPC   H2R 3562   6.633   2.623   7.054  1.1651 -0.4267 -0.1274
   27SAPC   H2S 3563   6.475   2.534   7.020 -0.2596 -1.2782  1.4097
   27SAPC    C3 3564   6.857   2.570   6.644  0.5994  0.5331 -1.0674
   27SAPC    HX 3565   6.849   2.680   6.631  0.4496  0.4623 -1.5869
   27SAPC    HY 3566   6.855   2.541   6.537  1.4959 -1.4000 -0.6217
   27SAPC   O31 3567   6.986   2.543   6.708 -0.2118  0.6268 -0.0438
   27SAPC   C31 3568   7.013   2.614   6.814 -0.1263 -0.1524  1.4724
   27SAPC   O32 3569   6.949   2.710   6.849 -0.1757 -0.1150 -0.0298
   27SAPC   C32 3570   7.132   2.549   6.881  0.1690  0.3785  0.0846
   27SAPC   H2X 3571   7.228   2.590   6.843  1.3271  0.0817  2.4968
   27SAPC   H2Y 3572   7.140   2.441   6.856  0.1078  0.6432 -1.1785
   27SAPC   C23 3573   6.607   2.444   7.172  0.0116  0.2185 -0.3882
   27SAPC   H3R 3574   6.581   2.337   7.156  2.6003 -0.2072 -2.4214
   27SAPC   H3S 3575   6.546   2.479   7.258  0.8108 -0.6831  0.5714
   27SAPC   C24 3576   6.758   2.440   7.218 -0.2322  0.0671  0.5707
   27SAPC   H4R 3577   6.776   2.547   7.239 -2.1137  0.8233 -1.2722
   27SAPC   H4S 3578   6.829   2.405   7.140  1.5229  1.1544  1.6120
   27SAPC   C25 3579   6.778   2.348   7.332 -0.1184 -0.1335  0.1924
   27SAPC   H5R 3580   6.762   2.240   7.317  2.9565 -0.5126 -1.0189
   27SAPC   C26 3581   6.807   2.389   7.454  1.0489  0.3789 -0.2153
   27SAPC   H6R 3582   6.836   2.310   7.525  0.8867 -1.1661 -1.7879
   27SAPC   C27 3583   6.819   2.534   7.497  0.5128  0.1851  0.6205
   27SAPC   H7R 3584   6.793   2.526   7.605 -0.7075  0.1473  0.3355
   27SAPC   H7S 3585   6.730   2.587   7.456  1.1362 -0.5363 -1.8400
   27SAPC   C28 3586   6.949   2.601   7.468 -0.0224 -0.5680 -0.5238
   27SAPC   H8R 3587   6.987   2.596   7.365  2.0746 -2.8664  0.2479
   27SAPC   C29 3588   7.008   2.701   7.534  0.0127 -0.0903 -0.0399
   27SAPC   H9R 3589   7.102   2.742   7.495  0.1919 -2.8237 -2.8481
   27SAPC  C210 3590   6.964   2.755   7.664  0.1473  0.5824 -0.5655
   27SAPC  H10R 3591   6.899   2.679   7.713  1.5624  0.5978  1.4689
   27SAPC  H10S 3592   6.900   2.846   7.662 -0.2478  0.3883  1.3708
   27SAPC  C211 3593   7.079   2.774   7.762 -0.3326 -0.4813 -0.3386
   27SAPC  H11R 3594   7.176   2.749   7.717 -0.1150 -0.0362 -0.1231
   27SAPC  C212 3595   7.074   2.811   7.886 -0.4791  0.4613 -0.2681
   27SAPC  H12R 3596   7.171   2.813   7.939 -0.9492  0.8368  0.6073
   27SAPC  C213 3597   6.962   2.853   7.974 -0.2671  0.1879 -0.0018
   27SAPC  H13R 3598   6.893   2.894   7.897 -1.0858 -2.8798 -1.0508
   27SAPC  H13S 3599   6.991   2.945   8.029 -0.7676  0.6296 -0.4604
   27SAPC  C214 3600   6.884   2.754   8.065  0.6719  0.2195 -0.1971
   27SAPC  H14R 3601   6.881   2.648   8.037 -1.3564  0.2068 -0.0921
   27SAPC  C215 3602   6.824   2.788   8.179 -0.6682 -0.1246 -0.1984
   27SAPC  H15R 3603   6.767   2.708   8.229 -0.4987 -1.3793 -1.9116
   27SAPC  C216 3604   6.819   2.929   8.233 -0.1554  0.0226 -0.4735
   27SAPC  H16R 3605   6.717   2.968   8.211 -0.3873 -0.6677 -0.6228
   27SAPC  H16S 3606   6.890   3.003   8.190  0.3414 -1.8211 -2.9966
   27SAPC  C217 3607   6.825   2.939   8.394  0.1903  0.0694  0.2096
   27SAPC  H17R 3608   6.927   2.930   8.438 -0.2760 -0.7318  1.1644
   27SAPC  H17S 3609   6.761   2.863   8.443 -0.5210 -0.7026 -1.8418
   27SAPC  C218 3610   6.764   3.081   8.429 -0.2479  0.2826 -0.1213
   27SAPC  H18R 3611   6.685   3.108   8.357  0.8101  2.1248 -0.6489
   27SAPC  H18S 3612   6.848   3.152   8.414  0.4874  0.0349  2.2608
   27SAPC  C219 3613   6.706   3.088   8.568 -0.0810  0.2176  0.0871
   27SAPC  H19R 3614   6.780   3.057   8.644 -1.8254  0.1514  1.8296
   27SAPC  H19S 3615   6.622   3.015   8.564  0.5636 -0.5411  0.1866
   27SAPC  C220 3616   6.639   3.223   8.596 -0.2845  0.0175  0.0040
   27SAPC  H20R 3617   6.717   3.301   8.605 -1.4067  1.2978 -0.8504
   27SAPC  H20S 3618   6.561   3.219   8.675 -0.6156 -0.1297 -0.3223
   27SAPC  H20T 3619   6.583   3.252   8.504  0.7337  1.4164 -0.2028
   27SAPC   C33 3620   7.127   2.561   7.035  0.1320 -0.4711 -0.3988
   27SAPC   H3X 3621   7.034   2.521   7.080  1.0590  1.0827  3.2490
   27SAPC   H3Y 3622   7.116   2.670   7.049 -0.9268 -0.3275 -2.0897
   27SAPC   C34 3623   7.253   2.518   7.113 -0.2061  0.1011 -0.4943
   27SAPC   H4X 3624   7.343   2.565   7.067 -0.1341 -0.3679 -0.8353
   27SAPC   H4Y 3625   7.261   2.408   7.101 -1.5564 -0.4016  2.5581
   27SAPC   C35 3626   7.246   2.552   7.265  0.1377  0.0432  0.6146
   27SAPC   H5X 3627   7.182   2.481   7.322  0.8336 -0.7167  0.4632
   27SAPC   H5Y 3628   7.208   2.656   7.276 -2.9823 -0.6415 -2.0921
   27SAPC   C36 3629   7.382   2.538   7.337 -0.3295  0.0985 -0.1554
   27SAPC   H6X 3630   7.447   2.623   7.308 -3.3679  2.4909 -0.5118
   27SAPC   H6Y 3631   7.423   2.442   7.299 -0.7439  0.8597 -2.7258
   27SAPC   C37 3632   7.375   2.523   7.486  0.0946  0.0815 -0.6566
   27SAPC   H7X 3633   7.298   2.449   7.518 -0.5838  0.8077 -0.5634
   27SAPC   H7Y 3634   7.329   2.618   7.521 -0.5540 -0.7183  0.7441
   27SAPC   C38 3635   7.507   2.498   7.555  0.1220  0.5971 -0.1497
   27SAPC   H8X 3636   7.587   2.556   7.504  0.5090 -0.4412 -0.7567
   27SAPC   H8Y 3637   7.533   2.394   7.525 -1.0606 -0.0839  1.0434
   27SAPC   C39 3638   7.508   2.518   7.709 -0.1032  0.5988 -0.2838
   27SAPC   H9X 3639   7.500   2.627   7.731  2.5877  0.4356  2.0612
   27SAPC   H9Y 3640   7.608   2.486   7.745 -0.0419  0.3041 -0.7143
   27SAPC  C310 3641   7.399   2.442   7.792 -0.5853 -0.6018  0.4595
   27SAPC  H10X 3642   7.408   2.335   7.763 -0.0190 -0.7006  0.9964
   27SAPC  H10Y 3643   7.299   2.483   7.767 -0.2713  1.4809  2.3540
   27SAPC  C311 3644   7.427   2.460   7.941 -0.2404  0.0679  0.0040
   27SAPC  H11X 3645   7.536   2.446   7.955 -0.4667 -3.1630 -0.5252
   27SAPC  H11Y 3646   7.369   2.385   8.000 -0.5832  0.4485  0.1541
   27SAPC  C312 3647   7.383   2.593   8.000  0.5304 -0.4970  0.0513
   27SAPC  H12X 3648   7.277   2.602   7.968  0.5760 -2.8166 -0.9239
   27SAPC  H12Y 3649   7.443   2.683   7.974  1.8490 -1.4560 -0.2894
   27SAPC  C313 3650   7.383   2.606   8.155 -1.2575  0.5289  0.1083
   27SAPC  H13X 3651   7.317   2.521   8.184  1.1934 -2.1930 -1.6785
   27SAPC  H13Y 3652   7.352   2.708   8.185  1.9291  1.2023  1.5638
   27SAPC  C314 3653   7.518   2.580   8.221  0.5072 -0.0242 -0.9974
   27SAPC  H14X 3654   7.574   2.495   8.175 -0.4984 -0.7494 -0.9159
   27SAPC  H14Y 3655   7.515   2.539   8.324  3.4149  0.8846 -0.4445
   27SAPC  C315 3656   7.601   2.709   8.235 -0.3716 -0.5623 -0.2224
   27SAPC  H15X 3657   7.549   2.781   8.302  2.1423  1.4044 -0.1895
   27SAPC  H15Y 3658   7.627   2.750   8.135  0.0316 -0.6201 -0.1431
   27SAPC  C316 3659   7.730   2.695   8.306  0.2889  0.4399 -0.6813
   27SAPC  H16X 3660   7.804   2.643   8.241 -3.2170 -3.9684 -1.6411
   27SAPC  H16Y 3661   7.707   2.636   8.397  0.2797  2.7768  0.9243
   27SAPC  C317 3662   7.795   2.823   8.350  0.1760 -0.3048 -0.3986
   27SAPC  H17X 3663   7.864   2.795   8.433 -0.2845  1.0644  0.4790
   27SAPC  H17Y 3664   7.721   2.893   8.394 -1.2540 -1.5227 -0.7823
   27SAPC  C318 3665   7.872   2.905   8.244  0.0970  0.8839 -0.2385
   27SAPC  H18X 3666   7.940   2.840   8.185 -0.3097 -0.5215  0.7899
   27SAPC  H18Y 3667   7.926   2.989   8.291  0.9987  0.1127  0.1379
   27SAPC  H18Z 3668   7.799   2.947   8.171 -0.8652  0.5244  0.4989
   28SAPC     N 3669   6.041   4.916   6.176  0.0841 -0.4236  0.0329
   28SAPC   C12 3670   6.137   4.933   6.288  0.7544 -0.0936 -0.4737
   28SAPC  H12A 3671   6.230   4.975   6.253 -0.4560  2.6158 -0.7355
   28SAPC  H12B 3672   6.159   4.836   6.330  0.5189 -0.8555 -2.0714
   28SAPC   C13 3673   6.026   5.040   6.096 -0.1275  0.0444  0.3730
   28SAPC  H13A 3674   5.975   5.014   6.004  3.1815 -1.3519 -1.2923
   28SAPC  H13B 3675   5.964   5.113   6.145 -0.8065 -0.8851  0.9156
   28SAPC  H13C 3676   6.123   5.085   6.078 -0.4896  1.1303  1.0557
   28SAPC   C14 3677   6.088   4.819   6.077  0.4343 -0.7274 -0.6699
   28SAPC  H14A 3678   6.177   4.848   6.024  1.3723 -5.1525 -1.8859
   28SAPC  H14B 3679   6.129   4.737   6.135  1.4805 -0.5628 -1.1563
   28SAPC  H14C 3680   6.009   4.784   6.013 -0.8829 -1.7563  1.3992
   28SAPC   C15 3681   5.905   4.867   6.229 -1.1417  0.5882 -0.2173
   28SAPC  H15A 3682   5.866   4.936   6.302 -0.1560  0.9427 -0.0003
   28SAPC  H15B 3683   5.843   4.870   6.142 -0.6281 -0.3646 -0.6407
   28SAPC  H15C 3684   5.898   4.770   6.278 -0.8675  1.6192  2.0200
   28SAPC   C11 3685   6.091   5.022   6.414 -0.3419  0.4488  0.1904
   28SAPC  H11A 3686   6.163   4.997   6.495  0.4319 -2.6468 -1.2896
   28SAPC  H11B 3687   5.991   4.995   6.454 -1.0487  2.9258  0.2485
   28SAPC     P 3688   6.216   5.259   6.434  0.3087 -0.1941 -0.1741
   28SAPC   O13 3689   6.348   5.226   6.375 -0.2303 -0.6891  0.0752
   28SAPC   O14 3690   6.159   5.397   6.423 -0.1319  0.3489 -0.0515
   28SAPC   O12 3691   6.102   5.160   6.376  0.6383 -0.3544  0.8706
   28SAPC   O11 3692   6.228   5.214   6.585  0.5053 -0.3718 -0.1897
   28SAPC    C1 3693   6.095   5.205   6.653 -0.7020 -0.2100 -0.3717
   28SAPC    HA 3694   6.003   5.247   6.605 -2.3393  0.4121  3.0019
   28SAPC    HB 3695   6.058   5.101   6.663 -1.2686  0.1053  1.0994
   28SAPC    C2 3696   6.093   5.266   6.797 -0.5339 -0.2424 -0.5142
   28SAPC    HS 3697   5.993   5.264   6.846  0.9664 -2.9045  2.8583
   28SAPC   O21 3698   6.148   5.404   6.790  0.0015  0.0155 -0.1292
   28SAPC   C21 3699   6.061   5.496   6.751  0.3709 -0.1506  0.4934
   28SAPC   O22 3700   5.943   5.474   6.717 -0.0856  0.0783 -0.5243
   28SAPC   C22 3701   6.122   5.637   6.759 -0.5340 -0.2818  0.4447
   28SAPC   H2R 3702   6.227   5.616   6.787 -0.3383  1.0578  0.7969
   28SAPC   H2S 3703   6.111   5.685   6.660 -0.6364  0.9185  1.0169
   28SAPC    C3 3704   6.185   5.181   6.882 -0.2531 -0.4176  0.2861
   28SAPC    HX 3705   6.283   5.168   6.831 -0.2573 -0.3815  0.2690
   28SAPC    HY 3706   6.137   5.081   6.874 -1.2063  0.1096 -0.8480
   28SAPC   O31 3707   6.217   5.225   7.018 -0.3825 -0.1436  0.0534
   28SAPC   C31 3708   6.275   5.126   7.087  0.6225 -0.1304  0.5000
   28SAPC   O32 3709   6.251   5.007   7.067 -0.1709 -0.8845  0.0597
   28SAPC   C32 3710   6.353   5.179   7.206 -0.1278  0.2645 -0.6089
   28SAPC   H2X 3711   6.301   5.270   7.243  0.9083 -0.2836  2.4979
   28SAPC   H2Y 3712   6.457   5.197   7.171  1.3441  0.0248  3.1486
   28SAPC   C23 3713   6.045   5.720   6.865  0.3779 -0.5472 -0.0040
   28SAPC   H3R 3714   5.937   5.727   6.841  0.3270 -1.6859 -0.1745
   28SAPC   H3S 3715   6.079   5.826   6.865  1.3604 -0.8216  1.5858
   28SAPC   C24 3716   6.047   5.656   7.007  0.6758 -0.4592 -0.0835
   28SAPC   H4R 3717   6.006   5.736   7.072  0.3639  0.5521 -1.4512
   28SAPC   H4S 3718   5.975   5.572   7.011 -1.9245  1.5443 -1.8045
   28SAPC   C25 3719   6.178   5.596   7.059  0.1343 -0.0003  0.3631
   28SAPC   H5R 3720   6.203   5.500   7.013  0.3262  1.3086 -2.4511
   28SAPC   C26 3721   6.244   5.633   7.168 -0.0018 -0.3543 -1.0943
   28SAPC   H6R 3722   6.338   5.577   7.181  0.7926  0.1510 -4.0199
   28SAPC   C27 3723   6.214   5.749   7.264  0.7874 -0.1785  0.4183
   28SAPC   H7R 3724   6.112   5.742   7.307  1.5989  1.1186  2.7223
   28SAPC   H7S 3725   6.209   5.844   7.206 -1.3596 -0.8747 -0.6487
   28SAPC   C28 3726   6.317   5.753   7.376 -0.1008 -0.4292  0.2208
   28SAPC   H8R 3727   6.416   5.740   7.330 -1.2632 -3.8153 -1.6766
   28SAPC   C29 3728   6.293   5.784   7.506 -0.2304 -0.2228 -0.9693
   28SAPC   H9R 3729   6.381   5.777   7.572  0.6284 -2.0243 -2.2156
   28SAPC  C210 3730   6.165   5.820   7.577  0.0508  0.7786 -0.1189
   28SAPC  H10R 3731   6.076   5.793   7.516  1.0431 -0.6653 -0.9914
   28SAPC  H10S 3732   6.171   5.929   7.596 -0.9874  0.9269 -0.5873
   28SAPC  C211 3733   6.159   5.733   7.702 -0.4129 -0.0069 -0.0217
   28SAPC  H11R 3734   6.191   5.628   7.693  1.7741  0.4750  1.4220
   28SAPC  C212 3735   6.127   5.775   7.829  1.1173  0.0048  0.3432
   28SAPC  H12R 3736   6.133   5.697   7.907  0.6474 -0.8360 -0.4458
   28SAPC  C213 3737   6.091   5.912   7.873 -0.5784 -0.5713  0.2726
   28SAPC  H13R 3738   6.147   5.990   7.817 -0.5658  0.4733  1.7083
   28SAPC  H13S 3739   6.117   5.926   7.980  1.3707 -2.2205  0.0813
   28SAPC  C214 3740   5.942   5.930   7.847  0.0177  0.4238 -0.1256
   28SAPC  H14R 3741   5.907   5.897   7.748 -0.4347  1.2018 -0.2295
   28SAPC  C215 3742   5.842   5.957   7.939  0.2876 -0.2467  0.5855
   28SAPC  H15R 3743   5.746   5.982   7.893  1.0381  1.5932 -0.0761
   28SAPC  C216 3744   5.863   6.002   8.087 -0.4225  0.4983 -0.5691
   28SAPC  H16R 3745   5.936   5.937   8.140 -1.8664 -0.1682  0.6716
   28SAPC  H16S 3746   5.770   5.985   8.146 -0.5442  2.3943 -0.1548
   28SAPC  C217 3747   5.922   6.144   8.090 -0.2346  0.0083 -0.5465
   28SAPC  H17R 3748   5.840   6.209   8.052 -0.6581 -0.4439 -0.4169
   28SAPC  H17S 3749   6.016   6.147   8.030  0.4349  2.4087  0.4877
   28SAPC  C218 3750   5.966   6.195   8.221 -0.1150  0.3380  0.0757
   28SAPC  H18R 3751   6.009   6.297   8.214  0.7719 -0.0205  0.1756
   28SAPC  H18S 3752   6.043   6.123   8.256 -0.9277 -0.5767  0.0053
   28SAPC  C219 3753   5.847   6.204   8.324  0.2704  0.1926 -0.1760
   28SAPC  H19R 3754   5.874   6.252   8.420  1.3005 -0.0629 -0.3181
   28SAPC  H19S 3755   5.829   6.097   8.348 -0.8314 -0.2456 -2.5954
   28SAPC  C220 3756   5.716   6.273   8.275 -0.1443 -1.2028  0.0342
   28SAPC  H20R 3757   5.754   6.375   8.254  0.1084 -1.3141 -0.0508
   28SAPC  H20S 3758   5.637   6.287   8.352 -0.4234 -0.6418 -0.3457
   28SAPC  H20T 3759   5.680   6.225   8.182 -0.0631 -1.0813 -0.0604
   28SAPC   C33 3760   6.367   5.071   7.312 -0.0640  0.4113  0.2182
   28SAPC   H3X 3761   6.426   4.987   7.271 -0.9490 -1.1838  2.0189
   28SAPC   H3Y 3762   6.267   5.028   7.338  0.2244 -0.3458  0.0822
   28SAPC   C34 3763   6.429   5.116   7.444 -0.0057 -0.3407  0.0369
   28SAPC   H4X 3764   6.372   5.207   7.474  1.0567  0.4308 -0.1959
   28SAPC   H4Y 3765   6.538   5.136   7.438  0.1526 -0.9399  0.7709
   28SAPC   C35 3766   6.419   5.013   7.550  0.1444  0.8064 -0.3571
   28SAPC   H5X 3767   6.447   4.909   7.521  1.4954  1.1861 -0.5081
   28SAPC   H5Y 3768   6.313   5.005   7.581  0.4747 -2.4347  0.3668
   28SAPC   C36 3769   6.488   5.048   7.684 -0.1871  0.2131 -0.0456
   28SAPC   H6X 3770   6.438   5.131   7.738  0.4508 -0.3822  1.5126
   28SAPC   H6Y 3771   6.594   5.080   7.670 -0.2820 -0.0363 -1.4907
   28SAPC   C37 3772   6.490   4.930   7.773 -0.1667 -0.4822  0.2066
   28SAPC   H7X 3773   6.542   4.846   7.721 -2.1325 -0.7542 -1.4670
   28SAPC   H7Y 3774   6.385   4.896   7.789  0.4304 -1.9864  1.0965
   28SAPC   C38 3775   6.552   4.962   7.910  0.0206  0.0028 -0.4796
   28SAPC   H8X 3776   6.464   5.011   7.957 -1.2765 -0.4801 -2.3033
   28SAPC   H8Y 3777   6.644   5.022   7.896 -1.8091  2.4824 -2.9005
   28SAPC   C39 3778   6.574   4.842   8.000 -0.3617 -0.6140  0.1409
   28SAPC   H9X 3779   6.647   4.785   7.938 -1.6866 -0.6176 -1.4795
   28SAPC   H9Y 3780   6.483   4.782   8.019 -1.1681  1.2833  2.9554
   28SAPC  C310 3781   6.626   4.867   8.143 -0.0483 -0.6497  0.5500
   28SAPC  H10X 3782   6.653   4.777   8.202  0.3745 -2.0974 -1.7579
   28SAPC  H10Y 3783   6.561   4.936   8.201 -0.4415 -0.8876  0.4000
   28SAPC  C311 3784   6.761   4.945   8.142 -0.1113 -0.1359  0.8594
   28SAPC  H11X 3785   6.737   5.046   8.103  1.4358  0.4167  1.2529
   28SAPC  H11Y 3786   6.820   4.905   8.056  0.9999  1.4057  0.8664
   28SAPC  C312 3787   6.844   4.941   8.273 -0.0006  0.6274  0.0821
   28SAPC  H12X 3788   6.841   4.835   8.308  1.4561  1.1598  1.9929
   28SAPC  H12Y 3789   6.801   5.012   8.347  3.7897  0.7244  2.4701
   28SAPC  C313 3790   6.985   4.996   8.260 -0.2262 -0.4617  0.0974
   28SAPC  H13X 3791   7.053   4.943   8.191 -0.5593  2.1227 -2.4182
   28SAPC  H13Y 3792   7.042   4.994   8.356  0.3689  0.8668 -0.2082
   28SAPC  C314 3793   6.984   5.141   8.203  0.7996 -0.9582  1.2235
   28SAPC  H14X 3794   6.924   5.131   8.109  1.7678 -0.8061  0.5716
   28SAPC  H14Y 3795   7.086   5.172   8.171  0.5161 -1.4815 -0.2786
   28SAPC  C315 3796   6.916   5.244   8.285  0.4276 -0.4997 -0.2733
   28SAPC  H15X 3797   6.820   5.210   8.329  1.4191 -0.6301  1.8987
   28SAPC  H15Y 3798   6.896   5.336   8.226 -0.2139 -0.6205 -0.2562
   28SAPC  C316 3799   7.009   5.296   8.400  1.0520  0.3496 -0.3120
   28SAPC  H16X 3800   7.107   5.330   8.361  0.0985  1.2415 -2.0037
   28SAPC  H16Y 3801   7.022   5.205   8.464 -3.5115  0.6279  1.3749
   28SAPC  C317 3802   6.943   5.406   8.488  0.6391  0.0494  0.3071
   28SAPC  H17X 3803   6.863   5.351   8.543  0.3210  0.1025 -0.0934
   28SAPC  H17Y 3804   6.892   5.475   8.418  0.7403 -1.7928 -1.7034
   28SAPC  C318 3805   7.029   5.477   8.595  0.0463 -0.4121 -0.0044
   28SAPC  H18X 3806   6.970   5.554   8.650 -0.2285  0.0224 -0.8862
   28SAPC  H18Y 3807   7.106   5.538   8.545 -0.4244 -0.8615 -1.3076
   28SAPC  H18Z 3808   7.079   5.401   8.658 -0.5076 -3.0534 -2.5331
   29SAPC     N 3809   2.926   4.133   5.961  0.5306  0.4446 -0.3349
   29SAPC   C12 3810   2.917   4.168   6.110 -0.5390 -0.1513  0.3426
   29SAPC  H12A 3811   2.990   4.114   6.168 -0.0117  1.0529  0.8294
   29SAPC  H12B 3812   2.820   4.133   6.143 -1.5450  2.7787  0.7848
   29SAPC   C13 3813   3.057   4.181   5.913 -0.4922  0.2052  0.0284
   29SAPC  H13A 3814   3.134   4.117   5.955  0.6709  1.3950 -0.2221
   29SAPC  H13B 3815   3.072   4.174   5.807 -0.1894 -1.5248  0.1473
   29SAPC  H13C 3816   3.086   4.276   5.955 -3.3868  1.3426 -0.3392
   29SAPC   C14 3817   2.921   3.988   5.937 -1.2981  0.3856 -0.2166
   29SAPC  H14A 3818   3.012   3.951   5.982 -0.6233  3.4503  1.1300
   29SAPC  H14B 3819   2.843   3.937   5.991  0.0134 -1.6287 -0.1102
   29SAPC  H14C 3820   2.923   3.963   5.832 -0.4004 -1.1475  0.1331
   29SAPC   C15 3821   2.810   4.200   5.887 -0.6826  0.3571 -0.1838
   29SAPC  H15A 3822   2.815   4.177   5.781 -2.7103 -2.2295  0.1690
   29SAPC  H15B 3823   2.711   4.168   5.917 -1.5059  1.3363 -1.7274
   29SAPC  H15C 3824   2.815   4.306   5.908 -1.3592  0.4019 -0.2135
   29SAPC   C11 3825   2.913   4.316   6.153  0.2226  0.2876  0.5264
   29SAPC  H11A 3826   2.875   4.325   6.257  1.4017 -1.4723  1.1598
   29SAPC  H11B 3827   2.839   4.366   6.088 -0.2057  1.5967  1.9482
   29SAPC     P 3828   3.094   4.498   6.207  0.1937  0.2398 -0.0527
   29SAPC   O13 3829   3.216   4.544   6.139  0.5158 -0.3071 -0.1624
   29SAPC   O14 3830   2.990   4.605   6.229  0.5216  0.0818 -0.3758
   29SAPC   O12 3831   3.038   4.375   6.122  0.0161 -0.5081 -0.5370
   29SAPC   O11 3832   3.143   4.447   6.348  0.2442 -0.0451  0.5798
   29SAPC    C1 3833   3.205   4.322   6.369 -0.3136 -0.2883 -0.6613
   29SAPC    HA 3834   3.199   4.257   6.279  1.0724 -1.9946  0.3977
   29SAPC    HB 3835   3.315   4.334   6.382  0.0768 -4.3992  1.4614
   29SAPC    C2 3836   3.162   4.240   6.496  0.5690 -0.0405  0.3227
   29SAPC    HS 3837   3.066   4.188   6.474 -1.1847  2.4033  1.6891
   29SAPC   O21 3838   3.153   4.322   6.617  0.2529 -0.2360 -0.0452
   29SAPC   C21 3839   3.056   4.292   6.706  0.1750 -0.9139  0.4729
   29SAPC   O22 3840   2.979   4.201   6.693  0.3156  0.1409  0.3168
   29SAPC   C22 3841   3.043   4.398   6.818 -0.3085 -0.4222  0.1059
   29SAPC   H2R 3842   3.142   4.432   6.854  1.1898 -1.3138 -2.8218
   29SAPC   H2S 3843   2.985   4.485   6.781 -1.6238  0.0690  3.0220
   29SAPC    C3 3844   3.261   4.120   6.517  0.3757 -0.0272  0.8266
   29SAPC    HX 3845   3.358   4.166   6.547  0.2505 -0.6127  2.1603
   29SAPC    HY 3846   3.279   4.062   6.424  1.1953 -1.7920  2.0367
   29SAPC   O31 3847   3.220   4.033   6.622  0.1618  0.9539 -0.4672
   29SAPC   C31 3848   3.118   3.955   6.591  0.5586 -0.4669 -0.0363
   29SAPC   O32 3849   3.079   3.938   6.476 -0.3460 -0.4636  0.1946
   29SAPC   C32 3850   3.070   3.882   6.718 -0.0079 -0.4450  0.2178
   29SAPC   H2X 3851   2.989   3.807   6.703  0.8868 -1.7115  1.4362
   29SAPC   H2Y 3852   3.024   3.960   6.782  1.4293  0.1412  0.5683
   29SAPC   C23 3853   2.965   4.338   6.932 -0.3690 -0.4163  1.0318
   29SAPC   H3R 3854   3.013   4.253   6.984 -0.7101 -1.7829 -0.7772
   29SAPC   H3S 3855   2.872   4.295   6.889 -2.5056  3.6623  1.0406
   29SAPC   C24 3856   2.915   4.451   7.024 -0.3969  0.7544  0.4064
   29SAPC   H4R 3857   2.850   4.399   7.098 -0.7296  0.8697  0.1952
   29SAPC   H4S 3858   2.854   4.517   6.960 -1.4517 -0.3392  0.2434
   29SAPC   C25 3859   3.024   4.518   7.103 -0.9349 -0.4066  0.1568
   29SAPC   H5R 3860   3.088   4.576   7.036 -1.1508  0.3038  0.5540
   29SAPC   C26 3861   3.070   4.493   7.231 -0.2709  0.6167  0.0211
   29SAPC   H6R 3862   3.161   4.542   7.268 -0.6965  1.2939  0.1786
   29SAPC   C27 3863   3.005   4.403   7.338  0.5958  0.3179  0.5876
   29SAPC   H7R 3864   2.912   4.363   7.294  1.6246 -0.6771 -0.7234
   29SAPC   H7S 3865   2.977   4.458   7.431 -2.9407  1.6195 -1.0957
   29SAPC   C28 3866   3.079   4.275   7.367 -0.2000  0.1429  0.8018
   29SAPC   H8R 3867   3.130   4.235   7.278 -3.0900  0.8344 -1.3317
   29SAPC   C29 3868   3.090   4.211   7.485 -0.3728  0.4666 -0.7530
   29SAPC   H9R 3869   3.144   4.115   7.487  1.0214  1.0706  4.8279
   29SAPC  C210 3870   3.024   4.264   7.613  0.8988 -0.3525  0.0272
   29SAPC  H10R 3871   2.914   4.249   7.608  0.7013  0.9014  0.3770
   29SAPC  H10S 3872   3.026   4.375   7.610 -1.3708 -0.2647 -1.5590
   29SAPC  C211 3873   3.067   4.198   7.741 -0.0524  0.5423  0.5621
   29SAPC  H11R 3874   3.095   4.092   7.734 -0.3630  0.2710  2.7809
   29SAPC  C212 3875   3.048   4.246   7.868 -0.0229 -0.0841  0.2713
   29SAPC  H12R 3876   3.092   4.185   7.947 -1.9188 -1.7153  0.1454
   29SAPC  C213 3877   2.992   4.381   7.906 -0.9788  0.3997 -0.1241
   29SAPC  H13R 3878   2.882   4.375   7.920 -0.9377  1.0677  0.5425
   29SAPC  H13S 3879   3.014   4.456   7.827 -1.3093  0.5317 -0.0941
   29SAPC  C214 3880   3.048   4.424   8.042  0.2129 -0.5137  0.8580
   29SAPC  H14R 3881   3.136   4.489   8.034 -0.8400  0.8566 -0.1151
   29SAPC  C215 3882   3.006   4.393   8.164  0.2606 -0.2982  0.6847
   29SAPC  H15R 3883   3.060   4.439   8.248 -0.2418  0.8256  0.4039
   29SAPC  C216 3884   2.887   4.301   8.190 -0.6333  0.6253  0.7523
   29SAPC  H16R 3885   2.930   4.204   8.224 -2.8237 -0.3514  0.8622
   29SAPC  H16S 3886   2.826   4.285   8.099  1.3842  2.0018 -0.9479
   29SAPC  C217 3887   2.802   4.364   8.293 -0.4978 -0.2223  0.2768
   29SAPC  H17R 3888   2.706   4.314   8.266  0.2714 -1.3714 -0.4019
   29SAPC  H17S 3889   2.786   4.473   8.276 -0.7076 -0.2498  0.2953
   29SAPC  C218 3890   2.855   4.354   8.438 -0.1620 -0.1181 -0.3222
   29SAPC  H18R 3891   2.956   4.400   8.450 -0.1943 -0.5404  1.8798
   29SAPC  H18S 3892   2.869   4.245   8.448  0.5076 -0.2936 -2.5014
   29SAPC  C219 3893   2.766   4.419   8.546 -0.0797  0.3035  0.2188
   29SAPC  H19R 3894   2.669   4.369   8.527  0.0078 -0.0105  0.5907
   29SAPC  H19S 3895   2.758   4.527   8.524  0.7130 -0.0711 -2.2873
   29SAPC  C220 3896   2.808   4.382   8.691  0.3350  0.5670 -0.7207
   29SAPC  H20R 3897   2.808   4.475   8.751 -1.1623  1.2589 -1.7443
   29SAPC  H20S 3898   2.916   4.357   8.702  0.6858  1.9334 -0.8981
   29SAPC  H20T 3899   2.743   4.300   8.729  0.7050  1.0546  1.0728
   29SAPC   C33 3900   3.180   3.811   6.800 -0.1565  0.4929 -0.6913
   29SAPC   H3X 3901   3.231   3.894   6.853 -1.9497  2.3358 -1.6808
   29SAPC   H3Y 3902   3.245   3.765   6.722  0.1143 -2.0092  0.8941
   29SAPC   C34 3903   3.133   3.695   6.895  0.1964 -0.4471 -0.1903
   29SAPC   H4X 3904   3.079   3.618   6.836  0.9937 -0.6056 -0.7205
   29SAPC   H4Y 3905   3.061   3.752   6.958  1.5696 -1.4920  2.4833
   29SAPC   C35 3906   3.247   3.638   6.983 -0.0823  0.1794  0.1759
   29SAPC   H5X 3907   3.285   3.722   7.046  0.2570  0.2867 -0.1690
   29SAPC   H5Y 3908   3.330   3.609   6.916  0.1373  1.8457 -0.3348
   29SAPC   C36 3909   3.194   3.523   7.075  0.2807 -0.0696 -0.2690
   29SAPC   H6X 3910   3.273   3.499   7.149  1.4468 -1.6091 -1.9280
   29SAPC   H6Y 3911   3.186   3.437   7.005 -2.5783 -1.2996  1.4175
   29SAPC   C37 3912   3.063   3.537   7.145  0.2315 -0.1809 -0.1393
   29SAPC   H7X 3913   3.033   3.434   7.176 -1.2183 -0.6234 -2.7265
   29SAPC   H7Y 3914   2.991   3.578   7.071 -0.5360 -1.6696 -0.2529
   29SAPC   C38 3915   3.064   3.641   7.262  0.3255  0.2058  0.7753
   29SAPC   H8X 3916   2.963   3.636   7.308 -0.3196 -1.8124 -0.7151
   29SAPC   H8Y 3917   3.072   3.740   7.213 -1.0768 -0.2539 -0.4713
   29SAPC   C39 3918   3.172   3.617   7.372 -0.3054 -0.4821  0.6894
   29SAPC   H9X 3919   3.276   3.624   7.336  0.0224  0.8551  1.8032
   29SAPC   H9Y 3920   3.162   3.510   7.397  1.1756 -0.8852 -0.3825
   29SAPC  C310 3921   3.151   3.712   7.487 -0.4722  0.1456 -0.6488
   29SAPC  H10X 3922   3.041   3.726   7.495 -0.5686 -0.2031 -1.3352
   29SAPC  H10Y 3923   3.194   3.812   7.467  0.2391  0.0565  0.3395
   29SAPC  C311 3924   3.205   3.651   7.609 -0.4593 -0.9042 -0.6080
   29SAPC  H11X 3925   3.314   3.637   7.593 -0.4923 -2.2447  0.1366
   29SAPC  H11Y 3926   3.168   3.546   7.615  2.6154 -2.0712  0.8022
   29SAPC  C312 3927   3.175   3.742   7.732  0.5330 -0.1925  0.2544
   29SAPC  H12X 3928   3.207   3.844   7.703  1.5114  0.0148  1.9382
   29SAPC  H12Y 3929   3.234   3.706   7.818  2.2342  0.3469 -0.6474
   29SAPC  C313 3930   3.027   3.740   7.778 -0.2478  0.1644  0.0153
   29SAPC  H13X 3931   2.997   3.639   7.812  3.0671 -1.1565 -0.6185
   29SAPC  H13Y 3932   2.965   3.774   7.693  1.5638  2.6017 -0.4397
   29SAPC  C314 3933   3.013   3.832   7.901 -0.8558  0.5182 -0.9538
   29SAPC  H14X 3934   2.910   3.868   7.921 -0.3343  1.6310 -0.1975
   29SAPC  H14Y 3935   3.081   3.920   7.894 -0.1242  0.0205 -0.2905
   29SAPC  C315 3936   3.053   3.760   8.031 -0.1086  0.2484  0.9064
   29SAPC  H15X 3937   3.160   3.729   8.019  0.5737  1.8067  2.5098
   29SAPC  H15Y 3938   2.986   3.672   8.039  1.3912 -1.0605 -0.1881
   29SAPC  C316 3939   3.053   3.843   8.154  0.0026 -0.5237 -0.1675
   29SAPC  H16X 3940   2.954   3.892   8.166 -0.1257 -0.5222 -1.1680
   29SAPC  H16Y 3941   3.127   3.925   8.147  0.0702 -0.6567 -1.1579
   29SAPC  C317 3942   3.091   3.765   8.279 -0.2799 -0.5296 -0.1032
   29SAPC  H17X 3943   3.121   3.834   8.361  0.1731 -2.2961  1.2899
   29SAPC  H17Y 3944   3.187   3.716   8.252  0.0582 -0.2504  0.5551
   29SAPC  C318 3945   2.997   3.654   8.321 -0.4105  0.6999  0.5119
   29SAPC  H18X 3946   3.052   3.582   8.385  2.1224  0.5174 -1.6794
   29SAPC  H18Y 3947   2.956   3.599   8.234 -0.4167  0.1147  0.8838
   29SAPC  H18Z 3948   2.910   3.699   8.373 -0.6961  0.8482 -0.0874
   30SAPC     N 3949   3.327   2.688   5.859  0.9938 -0.2826  0.6012
   30SAPC   C12 3950   3.214   2.759   5.935  0.1864 -0.1795 -0.1388
   30SAPC  H12A 3951   3.145   2.677   5.951 -0.0779 -0.0053 -0.3707
   30SAPC  H12B 3952   3.156   2.832   5.880  1.1871 -0.9620 -2.2947
   30SAPC   C13 3953   3.272   2.631   5.724  0.6909 -0.6753 -0.4221
   30SAPC  H13A 3954   3.340   2.561   5.677  1.0815 -0.4882 -0.1409
   30SAPC  H13B 3955   3.180   2.576   5.737 -0.4477  1.3485  0.7014
   30SAPC  H13C 3956   3.256   2.712   5.654 -1.1240 -0.0171  0.6886
   30SAPC   C14 3957   3.431   2.782   5.823 -0.4803  0.0339 -0.3332
   30SAPC  H14A 3958   3.382   2.865   5.774 -1.8774 -1.5012 -1.6395
   30SAPC  H14B 3959   3.485   2.824   5.906  3.7898 -0.0230 -2.7765
   30SAPC  H14C 3960   3.507   2.742   5.757 -0.3031  0.4654 -0.3941
   30SAPC   C15 3961   3.385   2.576   5.936 -0.2734 -0.0729 -0.7329
   30SAPC  H15A 3962   3.307   2.502   5.932 -0.9510  0.5277  0.5842
   30SAPC  H15B 3963   3.475   2.542   5.887  0.2237  0.2065 -0.0296
   30SAPC  H15C 3964   3.389   2.607   6.040 -2.9012 -0.6022 -0.3913
   30SAPC   C11 3965   3.237   2.828   6.071  0.4879  0.4178  0.1527
   30SAPC  H11A 3966   3.247   2.740   6.139 -0.9842  0.2670  0.2136
   30SAPC  H11B 3967   3.151   2.893   6.098  0.8186 -0.2319  3.1486
   30SAPC     P 3968   3.384   3.042   6.120  0.2182 -0.0655 -0.1759
   30SAPC   O13 3969   3.526   3.076   6.111 -0.9792 -0.1178 -0.3522
   30SAPC   O14 3970   3.291   3.124   6.040  0.3471 -0.4999 -0.5558
   30SAPC   O12 3971   3.363   2.891   6.068  0.6688 -0.4719 -0.0620
   30SAPC   O11 3972   3.343   3.037   6.272 -0.0987 -0.5614  0.2612
   30SAPC    C1 3973   3.437   3.006   6.377 -0.0066  0.1104 -0.6594
   30SAPC    HA 3974   3.518   2.934   6.355  0.6244  0.7085 -0.3299
   30SAPC    HB 3975   3.481   3.099   6.420 -1.2293  0.7216 -0.6722
   30SAPC    C2 3976   3.365   2.941   6.497  1.1029 -0.3564 -0.3617
   30SAPC    HS 3977   3.302   3.019   6.545  1.3633 -0.2559 -0.1794
   30SAPC   O21 3978   3.468   2.903   6.593  0.2537  0.0918  0.6697
   30SAPC   C21 3979   3.460   2.939   6.722  0.0489  0.7891 -0.2298
   30SAPC   O22 3980   3.387   3.027   6.761  0.2040 -0.0027 -0.0050
   30SAPC   C22 3981   3.539   2.850   6.822  0.3596 -0.2690  0.2086
   30SAPC   H2R 3982   3.550   2.753   6.769  1.9400  0.0770 -0.1509
   30SAPC   H2S 3983   3.642   2.885   6.841  0.1169  0.8619 -0.5147
   30SAPC    C3 3984   3.280   2.821   6.462  0.0555  0.3161  0.1703
   30SAPC    HX 3985   3.345   2.753   6.403 -0.8300 -1.5202  1.1840
   30SAPC    HY 3986   3.193   2.862   6.405  1.3201  3.1449  0.1175
   30SAPC   O31 3987   3.231   2.758   6.586 -0.1447 -1.0788  0.2232
   30SAPC   C31 3988   3.202   2.634   6.573  0.4777 -0.3521  0.0700
   30SAPC   O32 3989   3.191   2.567   6.473 -0.1504  0.5760  0.2966
   30SAPC   C32 3990   3.172   2.575   6.708  1.1899  0.1010 -0.8773
   30SAPC   H2X 3991   3.188   2.638   6.798  0.6397  0.1740 -0.8254
   30SAPC   H2Y 3992   3.232   2.483   6.724  1.7035  0.8799  2.4761
   30SAPC   C23 3993   3.461   2.850   6.955  0.3496 -0.2041 -0.3271
   30SAPC   H3R 3994   3.360   2.807   6.939  0.7649 -1.4401  0.2711
   30SAPC   H3S 3995   3.445   2.955   6.988 -1.7841  0.3358 -2.7919
   30SAPC   C24 3996   3.538   2.753   7.052  0.2926  0.0323 -0.4457
   30SAPC   H4R 3997   3.570   2.660   7.001  2.2497 -0.1512  1.0111
   30SAPC   H4S 3998   3.475   2.724   7.139  0.7763 -0.1641 -0.1553
   30SAPC   C25 3999   3.649   2.823   7.113  0.4144  0.0510 -0.4269
   30SAPC   H5R 4000   3.624   2.927   7.139  0.2673 -0.3151  0.9963
   30SAPC   C26 4001   3.774   2.782   7.128 -0.6702  0.2852 -0.0574
   30SAPC   H6R 4002   3.837   2.848   7.190 -1.2503 -1.1488  2.2110
   30SAPC   C27 4003   3.836   2.653   7.091 -0.7363  0.5663  0.5098
   30SAPC   H7R 4004   3.757   2.590   7.046  2.3754 -1.7384 -2.2294
   30SAPC   H7S 4005   3.864   2.599   7.184 -1.5674 -0.4367  0.1987
   30SAPC   C28 4006   3.943   2.663   6.983  0.7460  0.1966 -0.5124
   30SAPC   H8R 4007   3.909   2.694   6.883 -1.5677  0.0249  0.1659
   30SAPC   C29 4008   4.072   2.621   6.994  0.6503  0.1728  0.0562
   30SAPC   H9R 4009   4.132   2.645   6.905  0.2155 -1.1219 -0.6242
   30SAPC  C210 4010   4.138   2.550   7.113  0.4842  0.5298 -0.8437
   30SAPC  H10R 4011   4.062   2.513   7.185  0.3733 -1.1457 -1.7609
   30SAPC  H10S 4012   4.188   2.629   7.173  0.4589  0.2666 -0.4707
   30SAPC  C211 4013   4.225   2.446   7.056  0.2431  0.3206 -0.2743
   30SAPC  H11R 4014   4.186   2.409   6.960  1.9837 -2.5279 -0.0166
   30SAPC  C212 4015   4.336   2.394   7.115 -0.1005 -0.0237  0.2373
   30SAPC  H12R 4016   4.394   2.337   7.041 -0.3156  1.8173 -1.4497
   30SAPC  C213 4017   4.401   2.439   7.238 -0.0251  0.5723  0.1932
   30SAPC  H13R 4018   4.397   2.550   7.237 -1.2415  0.5355 -0.8785
   30SAPC  H13S 4019   4.510   2.417   7.241 -0.3290 -1.0437 -0.1433
   30SAPC  C214 4020   4.337   2.391   7.369 -0.2869 -0.4092  0.4750
   30SAPC  H14R 4021   4.253   2.322   7.350  0.6368 -2.1509  2.2926
   30SAPC  C215 4022   4.380   2.417   7.494  0.3491 -0.2628 -0.3221
   30SAPC  H15R 4023   4.344   2.350   7.574 -2.2270  1.7497  0.3237
   30SAPC  C216 4024   4.503   2.507   7.520  0.0706  0.2328 -0.0529
   30SAPC  H16R 4025   4.562   2.515   7.427 -1.9230 -1.2575 -1.5257
   30SAPC  H16S 4026   4.573   2.453   7.589 -1.4108 -2.6479 -0.6324
   30SAPC  C217 4027   4.470   2.647   7.585 -0.9575 -0.1491  0.3866
   30SAPC  H17R 4028   4.385   2.695   7.532 -2.3272  0.9151  3.3081
   30SAPC  H17S 4029   4.565   2.705   7.576 -0.4553 -0.7545  1.5370
   30SAPC  C218 4030   4.429   2.644   7.734  0.4875  0.1614  0.2168
   30SAPC  H18R 4031   4.509   2.585   7.785  1.4431  3.6946  3.3293
   30SAPC  H18S 4032   4.327   2.603   7.749  0.4045  0.2109 -0.2154
   30SAPC  C219 4033   4.438   2.773   7.828  0.8843 -0.3351 -0.2359
   30SAPC  H19R 4034   4.370   2.853   7.793  0.8828 -0.8519 -1.4936
   30SAPC  H19S 4035   4.541   2.814   7.834  0.5603  0.6934 -1.4090
   30SAPC  C220 4036   4.403   2.729   7.973  0.2790 -0.1033 -0.3509
   30SAPC  H20R 4037   4.294   2.709   7.976  0.2073  0.4351  1.6798
   30SAPC  H20S 4038   4.416   2.810   8.048  0.3664 -0.1905 -0.2719
   30SAPC  H20T 4039   4.450   2.638   8.015 -2.2970 -1.5810 -0.4540
   30SAPC   C33 4040   3.023   2.524   6.718  0.0486  0.4414 -0.1128
   30SAPC   H3X 4041   3.004   2.452   6.635  1.8046  2.2939 -2.2393
   30SAPC   H3Y 4042   2.955   2.609   6.699 -1.4657 -0.8251 -0.6363
   30SAPC   C34 4043   2.988   2.462   6.856 -0.0195 -0.0465 -0.4898
   30SAPC   H4X 4044   3.075   2.406   6.896  0.5132  2.0916  1.6123
   30SAPC   H4Y 4045   2.900   2.395   6.849  0.4979 -0.8664  0.6310
   30SAPC   C35 4046   2.972   2.576   6.961  0.2440  0.4612 -0.5751
   30SAPC   H5X 4047   2.865   2.606   6.949  0.1353  0.3980  0.1796
   30SAPC   H5Y 4048   3.043   2.658   6.938 -2.3581  2.7754 -1.0178
   30SAPC   C36 4049   2.996   2.535   7.107  0.3775 -0.4639  0.0093
   30SAPC   H6X 4050   3.032   2.430   7.103  2.3006  0.1925 -0.8636
   30SAPC   H6Y 4051   2.904   2.550   7.167  0.6398  2.4432 -0.1621
   30SAPC   C37 4052   3.104   2.604   7.183  0.1214 -0.0899 -0.5383
   30SAPC   H7X 4053   3.051   2.701   7.196  0.6264  0.5934 -3.0247
   30SAPC   H7Y 4054   3.189   2.621   7.114 -0.5350  1.3400 -1.0434
   30SAPC   C38 4055   3.131   2.557   7.326  0.2077 -0.2735 -0.2191
   30SAPC   H8X 4056   3.169   2.644   7.384 -3.3814 -0.2797  2.4717
   30SAPC   H8Y 4057   3.214   2.484   7.314  0.3698  0.1260 -1.8282
   30SAPC   C39 4058   3.008   2.495   7.397 -1.2957 -0.8042 -0.0714
   30SAPC   H9X 4059   2.991   2.401   7.339  2.3962 -2.6846  1.4973
   30SAPC   H9Y 4060   2.930   2.574   7.391 -2.2112 -1.6801  0.1269
   30SAPC  C310 4061   3.033   2.439   7.538  0.1941  0.1384 -0.1516
   30SAPC  H10X 4062   3.115   2.365   7.529 -0.8575 -1.0711 -0.1267
   30SAPC  H10Y 4063   2.948   2.383   7.582  0.2780  0.2764  0.1850
   30SAPC  C311 4064   3.090   2.528   7.645 -1.1055 -0.3679  0.4828
   30SAPC  H11X 4065   3.010   2.595   7.684 -0.3514  1.1572 -0.4922
   30SAPC  H11Y 4066   3.172   2.591   7.603  1.4518 -0.6279  4.5116
   30SAPC  C312 4067   3.147   2.464   7.771 -0.2776 -0.0963  0.6197
   30SAPC  H12X 4068   3.249   2.431   7.744 -0.0542  1.7015 -0.9489
   30SAPC  H12Y 4069   3.094   2.367   7.788  0.3891 -0.5113  0.3551
   30SAPC  C313 4070   3.133   2.562   7.893 -0.3568 -0.4732  0.6034
   30SAPC  H13X 4071   3.026   2.576   7.920 -0.8270 -1.8651 -0.4073
   30SAPC  H13Y 4072   3.168   2.662   7.859 -0.0444 -1.0228 -0.7279
   30SAPC  C314 4073   3.218   2.519   8.018  0.2775 -0.0012  0.2250
   30SAPC  H14X 4074   3.323   2.502   7.987  0.7218  0.1504  1.5734
   30SAPC  H14Y 4075   3.177   2.419   8.046 -1.6888 -0.1679 -2.7028
   30SAPC  C315 4076   3.201   2.612   8.140  0.6128  0.2969 -0.5989
   30SAPC  H15X 4077   3.093   2.616   8.163  0.6921 -1.0338  0.0593
   30SAPC  H15Y 4078   3.223   2.717   8.108  0.4682  0.1488 -1.1979
   30SAPC  C316 4079   3.273   2.566   8.265 -0.6322 -0.2645  0.6945
   30SAPC  H16X 4080   3.274   2.650   8.336 -0.6197  0.4267 -0.1055
   30SAPC  H16Y 4081   3.381   2.547   8.244 -0.8866 -0.3264 -0.7028
   30SAPC  C317 4082   3.210   2.454   8.339  0.6270  0.2517  0.0856
   30SAPC  H17X 4083   3.288   2.406   8.403  1.4908  0.2752 -0.9149
   30SAPC  H17Y 4084   3.172   2.377   8.268  1.7516 -0.3640  0.1160
   30SAPC  C318 4085   3.081   2.490   8.427  0.0645  0.5025  0.2502
   30SAPC  H18X 4086   2.990   2.480   8.363  0.8320 -0.0802 -0.7879
   30SAPC  H18Y 4087   3.100   2.587   8.478 -0.3148 -0.3087  2.0177
   30SAPC  H18Z 4088   3.066   2.413   8.506  1.3633 -0.5098 -0.4344
   31SAPC     N 4089   4.629   3.289   6.321 -0.6232 -0.3348 -0.6578
   31SAPC   C12 4090   4.753   3.361   6.364  0.0786 -0.1377  0.4306
   31SAPC  H12A 4091   4.803   3.397   6.276  1.4906  0.3955  1.4074
   31SAPC  H12B 4092   4.822   3.295   6.415 -0.9947 -1.2095  0.5500
   31SAPC   C13 4093   4.661   3.151   6.261  0.0390 -0.2255  0.0888
   31SAPC  H13A 4094   4.727   3.096   6.327 -0.5565 -0.0164  0.8788
   31SAPC  H13B 4095   4.569   3.094   6.255 -0.0009 -0.3580  1.4944
   31SAPC  H13C 4096   4.715   3.169   6.170  0.3172  1.4684  0.5473
   31SAPC   C14 4097   4.542   3.267   6.436  0.0889  0.2768 -0.2593
   31SAPC  H14A 4098   4.456   3.203   6.419 -0.4208  0.4379  1.4968
   31SAPC  H14B 4099   4.598   3.229   6.520 -1.9715  0.4295  1.2751
   31SAPC  H14C 4100   4.507   3.361   6.477 -2.6259 -1.8014  2.7852
   31SAPC   C15 4101   4.550   3.366   6.216 -0.4845 -0.6289 -0.5969
   31SAPC  H15A 4102   4.463   3.314   6.181 -0.3705 -0.8726 -0.5238
   31SAPC  H15B 4103   4.539   3.467   6.253  0.0658 -0.2328 -1.4852
   31SAPC  H15C 4104   4.610   3.381   6.128  0.5149 -1.1386 -0.0372
   31SAPC   C11 4105   4.734   3.485   6.454  0.0571  0.1559 -0.0119
   31SAPC  H11A 4106   4.840   3.511   6.475 -0.2877  1.2721  0.4377
   31SAPC  H11B 4107   4.675   3.472   6.547  0.5407  2.1988  0.6461
   31SAPC     P 4108   4.585   3.703   6.390  0.2275 -0.1879  0.3567
   31SAPC   O13 4109   4.640   3.823   6.332 -0.2555  0.3324  0.3300
   31SAPC   O14 4110   4.454   3.662   6.324 -0.5858 -0.0247  0.5467
   31SAPC   O12 4111   4.685   3.588   6.376 -0.0374  0.6175 -0.2852
   31SAPC   O11 4112   4.572   3.714   6.545 -0.7531 -0.2830 -0.2621
   31SAPC    C1 4113   4.663   3.784   6.631 -0.3316  0.3846 -1.1561
   31SAPC    HA 4114   4.761   3.797   6.580  0.7211 -0.0996  0.6270
   31SAPC    HB 4115   4.620   3.882   6.660  0.2531  0.3614 -0.1502
   31SAPC    C2 4116   4.686   3.704   6.756  0.2744  0.0368 -0.5727
   31SAPC    HS 4117   4.741   3.611   6.729  1.9754  0.4989  1.0355
   31SAPC   O21 4118   4.558   3.671   6.814 -1.0125 -0.4697  0.3654
   31SAPC   C21 4119   4.551   3.559   6.878 -0.2972  0.8725  0.1142
   31SAPC   O22 4120   4.637   3.471   6.875 -1.0756  0.3765  0.2353
   31SAPC   C22 4121   4.411   3.559   6.947  0.3221 -0.2364  0.4894
   31SAPC   H2R 4122   4.389   3.658   6.993  0.1030  0.4554 -1.0345
   31SAPC   H2S 4123   4.338   3.557   6.863  2.2586  0.1398 -1.2780
   31SAPC    C3 4124   4.772   3.791   6.855  0.0497 -0.5908 -0.3954
   31SAPC    HX 4125   4.713   3.882   6.879 -0.6167 -1.1135 -0.0250
   31SAPC    HY 4126   4.867   3.819   6.804 -0.3423 -0.0275 -0.8246
   31SAPC   O31 4127   4.796   3.727   6.989  0.5215  0.3637  0.1829
   31SAPC   C31 4128   4.886   3.628   6.982 -0.1708 -0.4509  0.3262
   31SAPC   O32 4129   4.947   3.605   6.881  0.1237  0.1802  0.2110
   31SAPC   C32 4130   4.910   3.564   7.119  0.3786  0.5970 -0.0654
   31SAPC   H2X 4131   5.018   3.570   7.146 -0.1508  1.2721  2.0893
   31SAPC   H2Y 4132   4.883   3.457   7.113 -0.2027  0.6708  0.9628
   31SAPC   C23 4133   4.388   3.444   7.049 -0.1230  0.3785 -0.2631
   31SAPC   H3R 4134   4.415   3.353   6.992 -0.6980  0.0176  0.0232
   31SAPC   H3S 4135   4.286   3.441   7.094 -0.1428 -0.9748 -0.3461
   31SAPC   C24 4136   4.483   3.455   7.165 -0.7028  0.9995 -0.4879
   31SAPC   H4R 4137   4.462   3.535   7.239 -0.3135 -0.3310  1.1100
   31SAPC   H4S 4138   4.579   3.490   7.121  1.6712 -3.7353  0.3517
   31SAPC   C25 4139   4.507   3.317   7.232 -0.2704  0.3167  0.2549
   31SAPC   H5R 4140   4.537   3.234   7.167  0.2334  0.6080  0.1094
   31SAPC   C26 4141   4.500   3.294   7.367  0.4596  0.3331 -0.0161
   31SAPC   H6R 4142   4.508   3.193   7.408 -3.5881 -0.4567 -0.7688
   31SAPC   C27 4143   4.456   3.390   7.476  0.0963  0.3242  0.3452
   31SAPC   H7R 4144   4.531   3.472   7.473 -0.3385  0.8307  2.1431
   31SAPC   H7S 4145   4.477   3.344   7.575 -0.2734  0.0782  0.3137
   31SAPC   C28 4146   4.317   3.444   7.468 -0.3534 -0.6359 -0.3214
   31SAPC   H8R 4147   4.266   3.431   7.370 -0.8178 -1.0624 -0.0312
   31SAPC   C29 4148   4.257   3.502   7.576  0.0294  0.8817 -0.0617
   31SAPC   H9R 4149   4.154   3.539   7.569  0.1391  0.9130 -2.4429
   31SAPC  C210 4150   4.315   3.529   7.709 -0.0041  0.0236 -0.0193
   31SAPC  H10R 4151   4.277   3.629   7.740  2.8858  1.2673 -0.1924
   31SAPC  H10S 4152   4.423   3.538   7.686  0.1025 -0.9035  0.1118
   31SAPC  C211 4153   4.299   3.426   7.817 -0.4936  0.0305 -0.3751
   31SAPC  H11R 4154   4.274   3.325   7.781  0.4028  0.6521 -2.9859
   31SAPC  C212 4155   4.289   3.443   7.951 -0.0478 -0.4662 -0.1528
   31SAPC  H12R 4156   4.284   3.351   8.011  2.1337 -0.3528  0.2948
   31SAPC  C213 4157   4.295   3.580   8.025  0.7698  0.4580  0.3853
   31SAPC  H13R 4158   4.200   3.615   8.069 -0.5960  0.3998 -2.2748
   31SAPC  H13S 4159   4.319   3.663   7.955 -2.7862  0.7573 -0.6914
   31SAPC  C214 4160   4.403   3.560   8.127  0.3024 -0.0202 -0.5380
   31SAPC  H14R 4161   4.490   3.498   8.103 -0.3285 -0.9107 -0.5700
   31SAPC  C215 4162   4.396   3.618   8.248  0.4243  0.7273 -0.2700
   31SAPC  H15R 4163   4.475   3.590   8.320 -0.8244 -1.4098  0.3726
   31SAPC  C216 4164   4.286   3.707   8.304 -0.4878  0.3366  0.7304
   31SAPC  H16R 4165   4.273   3.682   8.412  1.2323 -1.0396  0.6645
   31SAPC  H16S 4166   4.194   3.689   8.246 -0.4081  0.5414  0.5382
   31SAPC  C217 4167   4.335   3.852   8.303 -0.3463  0.0026 -0.1769
   31SAPC  H17R 4168   4.354   3.886   8.198  0.4346  0.3249  0.0565
   31SAPC  H17S 4169   4.435   3.854   8.352  0.7184 -0.7681 -2.1728
   31SAPC  C218 4170   4.245   3.961   8.364 -0.1795 -0.5663 -0.4067
   31SAPC  H18R 4171   4.141   3.934   8.337 -0.7442  0.1658  0.9341
   31SAPC  H18S 4172   4.274   4.050   8.303  2.0999  0.1029  1.4922
   31SAPC  C219 4173   4.264   3.976   8.513 -0.2466  0.2685 -0.5362
   31SAPC  H19R 4174   4.370   3.958   8.541 -0.7849 -1.6649  0.4190
   31SAPC  H19S 4175   4.206   3.893   8.559  3.1518 -1.4765  0.9502
   31SAPC  C220 4176   4.213   4.110   8.559 -0.4040 -0.1618 -0.8219
   31SAPC  H20R 4177   4.106   4.114   8.529 -1.2046 -0.9729  1.7150
   31SAPC  H20S 4178   4.257   4.199   8.508 -1.1331  0.8059  0.1853
   31SAPC  H20T 4179   4.226   4.120   8.669 -1.0742  1.5276 -0.8622
   31SAPC   C33 4180   4.831   3.630   7.231 -0.5477 -0.1478  0.1874
   31SAPC   H3X 4181   4.723   3.612   7.213  0.0784 -2.7105 -1.4984
   31SAPC   H3Y 4182   4.852   3.738   7.221 -0.3064 -0.3026 -1.0664
   31SAPC   C34 4183   4.886   3.595   7.372  0.2393  0.1352  0.1843
   31SAPC   H4X 4184   4.994   3.620   7.376 -0.0528  2.3465 -2.6487
   31SAPC   H4Y 4185   4.877   3.485   7.382 -0.8363  0.1546 -0.5134
   31SAPC   C35 4186   4.827   3.677   7.486 -0.0961  0.1151  0.0650
   31SAPC   H5X 4187   4.717   3.666   7.485 -0.1596 -0.4380 -3.6632
   31SAPC   H5Y 4188   4.855   3.782   7.463  3.0968 -0.6332  0.0395
   31SAPC   C36 4189   4.881   3.644   7.624 -0.3636 -1.0215  0.1401
   31SAPC   H6X 4190   4.847   3.723   7.695 -1.3627  0.0894 -1.5120
   31SAPC   H6Y 4191   4.992   3.637   7.626 -0.3194 -0.3988  2.0888
   31SAPC   C37 4192   4.824   3.517   7.682  0.1780 -0.6677  0.1476
   31SAPC   H7X 4193   4.802   3.453   7.594  1.1798 -1.0388  0.1612
   31SAPC   H7Y 4194   4.729   3.541   7.736 -0.0150  1.5252 -1.0427
   31SAPC   C38 4195   4.901   3.432   7.786  0.1139  0.3553 -0.0730
   31SAPC   H8X 4196   5.010   3.437   7.765  0.5476 -0.2410  1.8541
   31SAPC   H8Y 4197   4.868   3.327   7.773 -1.5761  0.7309  0.9813
   31SAPC   C39 4198   4.876   3.488   7.926  0.3295  0.2276  0.3802
   31SAPC   H9X 4199   4.796   3.437   7.984  0.4236  0.3238  0.5957
   31SAPC   H9Y 4200   4.857   3.597   7.930  1.4012  0.6004 -2.5649
   31SAPC  C310 4201   5.006   3.466   8.008 -0.0458  0.4261 -0.1347
   31SAPC  H10X 4202   4.984   3.502   8.110 -1.0748 -2.0358  0.5870
   31SAPC  H10Y 4203   5.075   3.545   7.970  0.6243  0.8049  1.7932
   31SAPC  C311 4204   5.069   3.330   8.004 -0.1953 -0.3340  0.3865
   31SAPC  H11X 4205   5.113   3.294   7.908  1.6730 -3.2139  2.1449
   31SAPC  H11Y 4206   4.986   3.260   8.028 -0.5243  0.5832  1.9949
   31SAPC  C312 4207   5.184   3.311   8.107  0.3480  0.5047  0.7220
   31SAPC  H12X 4208   5.222   3.208   8.096 -1.7957 -0.1524 -1.2649
   31SAPC  H12Y 4209   5.141   3.323   8.209 -0.4706 -0.3444  0.4903
   31SAPC  C313 4210   5.299   3.401   8.088  0.1660  0.6855  0.0000
   31SAPC  H13X 4211   5.275   3.509   8.098 -0.5930  0.2855  3.8756
   31SAPC  H13Y 4212   5.347   3.388   7.988  1.4289 -5.3487  0.9903
   31SAPC  C314 4213   5.418   3.374   8.186  0.9164  0.1690 -0.1638
   31SAPC  H14X 4214   5.493   3.449   8.153 -0.4546  1.1260 -1.1873
   31SAPC  H14Y 4215   5.439   3.269   8.155 -2.2969 -1.6386  2.8980
   31SAPC  C315 4216   5.372   3.373   8.333 -0.8994 -0.0933 -0.5741
   31SAPC  H15X 4217   5.290   3.299   8.341 -1.9457  1.1739  0.8776
   31SAPC  H15Y 4218   5.332   3.475   8.352 -0.2514  0.5620 -2.4852
   31SAPC  C316 4219   5.478   3.335   8.432  0.6560  0.2682  0.3184
   31SAPC  H16X 4220   5.498   3.226   8.419 -1.4285  0.0927 -2.3461
   31SAPC  H16Y 4221   5.439   3.340   8.536 -0.5673 -0.8664 -0.0496
   31SAPC  C317 4222   5.614   3.409   8.412 -0.3635  0.3472 -0.6130
   31SAPC  H17X 4223   5.602   3.520   8.407 -2.8964  0.1007 -1.1595
   31SAPC  H17Y 4224   5.650   3.385   8.310 -0.6458  0.3329 -0.7107
   31SAPC  C318 4225   5.723   3.375   8.511 -0.0309  0.0677  0.5493
   31SAPC  H18X 4226   5.823   3.416   8.482 -0.8334  1.8257  0.1181
   31SAPC  H18Y 4227   5.732   3.265   8.499 -0.2504  0.1425 -0.3370
   31SAPC  H18Z 4228   5.688   3.398   8.614  0.1097 -0.3259  0.6868
   32SAPC     N 4229   5.059   6.542   6.058  0.2461  0.0675 -0.5111
   32SAPC   C12 4230   5.058   6.487   6.205  0.0395 -0.1011 -0.1364
   32SAPC  H12A 4231   5.038   6.565   6.277 -1.3015 -1.1204  0.6427
   32SAPC  H12B 4232   5.156   6.447   6.228  0.2082  0.2065 -0.3156
   32SAPC   C13 4233   4.922   6.573   6.013  0.5018 -0.9127 -0.2252
   32SAPC  H13A 4234   4.931   6.618   5.916  2.3048  0.1020  0.3655
   32SAPC  H13B 4235   4.867   6.480   6.013  1.5408 -1.6159 -2.9540
   32SAPC  H13C 4236   4.877   6.648   6.077  0.6130  0.3609 -1.5965
   32SAPC   C14 4237   5.137   6.677   6.062  0.0811 -0.1892 -0.3087
   32SAPC  H14A 4238   5.084   6.749   6.123  1.1248  1.1567 -0.9259
   32SAPC  H14B 4239   5.237   6.663   6.100 -0.8888 -1.6126  1.8869
   32SAPC  H14C 4240   5.149   6.721   5.964  3.8907 -0.5275 -0.1631
   32SAPC   C15 4241   5.130   6.441   5.971 -1.0068  0.5308  0.3389
   32SAPC  H15A 4242   5.089   6.342   5.983  1.2275 -0.7572 -1.8139
   32SAPC  H15B 4243   5.142   6.464   5.867  2.3967  0.3905  0.5900
   32SAPC  H15C 4244   5.229   6.420   6.010 -1.1178  0.3481  0.5270
   32SAPC   C11 4245   4.972   6.368   6.242 -0.1691  0.3330 -0.8978
   32SAPC  H11A 4246   4.865   6.386   6.223 -0.4066  2.5734  1.9257
   32SAPC  H11B 4247   4.984   6.352   6.352 -0.5760 -1.3597 -1.0678
   32SAPC     P 4248   5.131   6.159   6.193 -0.0354 -0.0115  0.0174
   32SAPC   O13 4249   5.135   6.074   6.071 -0.1910 -0.1335  0.2123
   32SAPC   O14 4250   5.257   6.229   6.218  0.8496  0.4020 -0.5837
   32SAPC   O12 4251   5.018   6.259   6.164 -0.2425  0.1038  0.3338
   32SAPC   O11 4252   5.077   6.082   6.321  0.0710  0.4834 -0.3592
   32SAPC    C1 4253   4.940   6.040   6.322 -0.0458  0.7105  0.0304
   32SAPC    HA 4254   4.877   6.131   6.340  1.4716  1.6789  0.6425
   32SAPC    HB 4255   4.917   5.988   6.227  1.4295 -0.4302  0.2665
   32SAPC    C2 4256   4.910   5.931   6.423  0.4836 -0.0726  0.2292
   32SAPC    HS 4257   4.805   5.903   6.399 -0.3391  0.6072  2.7259
   32SAPC   O21 4258   4.924   5.988   6.553  0.1090 -0.5683 -0.5301
   32SAPC   C21 4259   4.841   5.952   6.649 -0.5888 -0.5297  0.4025
   32SAPC   O22 4260   4.752   5.875   6.630  0.0514 -0.3707  0.0764
   32SAPC   C22 4261   4.870   6.039   6.766 -0.1383 -0.0591 -0.1796
   32SAPC   H2R 4262   4.942   6.117   6.734 -0.6922  0.4612 -0.1770
   32SAPC   H2S 4263   4.774   6.080   6.802 -1.5248 -2.7342 -0.5694
   32SAPC    C3 4264   5.003   5.804   6.391  0.4693 -0.8490 -0.4631
   32SAPC    HX 4265   5.112   5.826   6.385  1.0147 -3.4752 -1.8016
   32SAPC    HY 4266   4.983   5.767   6.288 -1.7117 -0.0966 -0.3657
   32SAPC   O31 4267   4.987   5.701   6.488 -0.5950  0.3946 -0.2245
   32SAPC   C31 4268   4.887   5.622   6.462 -0.3049  0.1803 -0.7902
   32SAPC   O32 4269   4.805   5.635   6.374 -0.4525 -0.0109 -0.3175
   32SAPC   C32 4270   4.883   5.515   6.570  0.5975 -0.5091 -0.3194
   32SAPC   H2X 4271   4.989   5.485   6.587  0.0427 -1.8912  1.0350
   32SAPC   H2Y 4272   4.833   5.430   6.518 -2.0866  0.5573  0.3542
   32SAPC   C23 4273   4.936   5.952   6.875 -0.1414  0.2461  0.1040
   32SAPC   H3R 4274   4.996   6.018   6.941  1.1479 -1.3931  0.6116
   32SAPC   H3S 4275   5.009   5.888   6.821 -0.6283 -0.0594 -0.2025
   32SAPC   C24 4276   4.855   5.867   6.975 -0.3923  0.9007  0.0815
   32SAPC   H4R 4277   4.938   5.810   7.023 -0.4105 -0.2637 -1.2058
   32SAPC   H4S 4278   4.784   5.808   6.912  0.2997  1.9195 -1.7425
   32SAPC   C25 4279   4.790   5.944   7.086 -0.7093  0.2673  0.4524
   32SAPC   H5R 4280   4.787   6.053   7.068  0.3224  0.4792  1.4352
   32SAPC   C26 4281   4.731   5.889   7.191  0.0753 -0.0276 -0.4448
   32SAPC   H6R 4282   4.683   5.959   7.262 -2.2519  0.1499 -2.0422
   32SAPC   C27 4283   4.709   5.740   7.223  0.1089  0.3085  0.7199
   32SAPC   H7R 4284   4.779   5.712   7.305  2.7367 -0.4025 -1.6025
   32SAPC   H7S 4285   4.754   5.672   7.148  0.8037  0.7671  0.7069
   32SAPC   C28 4286   4.571   5.678   7.246  0.1617  0.6216 -0.3077
   32SAPC   H8R 4287   4.495   5.686   7.167 -0.6739 -1.3848  0.2389
   32SAPC   C29 4288   4.534   5.618   7.360  0.4818  0.4409  0.0576
   32SAPC   H9R 4289   4.428   5.591   7.353  0.6523 -0.1490 -0.2861
   32SAPC  C210 4290   4.606   5.599   7.494  0.6100 -0.5746  0.9213
   32SAPC  H10R 4291   4.547   5.661   7.565 -1.8743 -0.8890 -0.7418
   32SAPC  H10S 4292   4.706   5.648   7.490  0.7332 -0.8825 -0.0029
   32SAPC  C211 4293   4.597   5.453   7.533  0.0145 -0.0373 -0.1046
   32SAPC  H11R 4294   4.577   5.381   7.453 -0.6459  1.8072 -1.6840
   32SAPC  C212 4295   4.599   5.403   7.659 -0.1278  0.4105  0.6606
   32SAPC  H12R 4296   4.593   5.294   7.671  0.4828  0.4124  0.9779
   32SAPC  C213 4297   4.616   5.484   7.785 -0.7423  0.0627 -0.1208
   32SAPC  H13R 4298   4.577   5.587   7.771  3.6520  1.9272 -0.3216
   32SAPC  H13S 4299   4.722   5.477   7.818 -0.4431  2.8934 -0.2427
   32SAPC  C214 4300   4.558   5.417   7.903 -0.0513  0.2535  0.3056
   32SAPC  H14R 4301   4.581   5.310   7.906  1.5929  0.5103 -1.2395
   32SAPC  C215 4302   4.500   5.474   8.014 -0.4360 -1.1854  0.5414
   32SAPC  H15R 4303   4.454   5.407   8.088 -3.3954 -0.1761 -0.2572
   32SAPC  C216 4304   4.490   5.629   8.039  0.5609  0.3690 -0.2919
   32SAPC  H16R 4305   4.383   5.644   8.066  0.5792  0.1288 -0.0733
   32SAPC  H16S 4306   4.517   5.703   7.961 -1.2816  2.4619  0.9447
   32SAPC  C217 4307   4.576   5.672   8.158 -0.6571  0.0174  0.4197
   32SAPC  H17R 4308   4.594   5.781   8.165  2.5283 -0.4080  0.1586
   32SAPC  H17S 4309   4.680   5.633   8.160  0.2281  2.1570 -1.0530
   32SAPC  C218 4310   4.520   5.626   8.297  0.2299 -0.2778  0.3235
   32SAPC  H18R 4311   4.600   5.656   8.369  1.5420  0.2081 -1.2648
   32SAPC  H18S 4312   4.501   5.517   8.297 -1.8223  0.0408  0.9262
   32SAPC  C219 4313   4.386   5.692   8.345  0.2734  0.2123  0.0467
   32SAPC  H19R 4314   4.319   5.677   8.257  0.4953 -0.8604  0.0479
   32SAPC  H19S 4315   4.415   5.798   8.359  2.5398 -0.5673  1.8904
   32SAPC  C220 4316   4.332   5.637   8.482 -0.3489  0.2865 -0.1031
   32SAPC  H20R 4317   4.265   5.703   8.540 -0.3769  1.5010 -1.4590
   32SAPC  H20S 4318   4.423   5.628   8.546 -0.4734 -0.7913 -0.0472
   32SAPC  H20T 4319   4.307   5.529   8.470 -0.7626  0.4925 -1.1784
   32SAPC   C33 4320   4.819   5.547   6.713 -0.4654  0.5470  0.1301
   32SAPC   H3X 4321   4.724   5.603   6.700 -1.7495 -1.5480 -0.1002
   32SAPC   H3Y 4322   4.897   5.609   6.761  0.9183 -0.7308 -0.3892
   32SAPC   C34 4323   4.801   5.427   6.810 -0.0319 -0.1842 -0.4747
   32SAPC   H4X 4324   4.897   5.399   6.860 -1.1608  0.4040  2.2057
   32SAPC   H4Y 4325   4.766   5.331   6.766 -1.3963 -0.2603  0.6996
   32SAPC   C35 4326   4.699   5.451   6.922  0.6237 -0.6481 -0.1271
   32SAPC   H5X 4327   4.676   5.556   6.951  0.1592 -0.8501  0.2410
   32SAPC   H5Y 4328   4.733   5.404   7.016  0.4428 -2.5865 -0.9908
   32SAPC   C36 4329   4.564   5.390   6.890 -0.5367  0.0004  0.4494
   32SAPC   H6X 4330   4.551   5.280   6.874  0.0626  0.2190 -1.8422
   32SAPC   H6Y 4331   4.539   5.441   6.795  2.2587  3.1085  1.2041
   32SAPC   C37 4332   4.452   5.430   6.990 -0.0662  0.9147  1.1247
   32SAPC   H7X 4333   4.353   5.404   6.946 -0.2160 -0.2139  2.0653
   32SAPC   H7Y 4334   4.462   5.540   6.994  3.7847  0.7848 -0.2203
   32SAPC   C38 4335   4.463   5.351   7.123 -0.1089 -0.2454  0.2151
   32SAPC   H8X 4336   4.403   5.411   7.194  2.5508  2.1498  0.6081
   32SAPC   H8Y 4337   4.564   5.365   7.168  0.5036 -3.3084  0.0591
   32SAPC   C39 4338   4.424   5.202   7.113  0.4619 -0.0898 -0.7236
   32SAPC   H9X 4339   4.499   5.166   7.039  0.2948 -0.3946 -0.7451
   32SAPC   H9Y 4340   4.320   5.189   7.076 -0.3096 -1.5604  1.7212
   32SAPC  C310 4341   4.450   5.117   7.242 -0.1197 -0.2729  0.6725
   32SAPC  H10X 4342   4.555   5.126   7.277  0.1620  0.1065 -0.2401
   32SAPC  H10Y 4343   4.428   5.009   7.227 -0.9851 -0.0688  0.4178
   32SAPC  C311 4344   4.370   5.154   7.369  0.4211 -0.4327  0.1075
   32SAPC  H11X 4345   4.260   5.145   7.350  0.3167 -0.7252  0.8426
   32SAPC  H11Y 4346   4.396   5.253   7.412 -1.4929 -0.9433  2.6954
   32SAPC  C312 4347   4.389   5.056   7.478  0.0759  0.3269 -0.2576
   32SAPC  H12X 4348   4.495   5.071   7.508  0.0057  0.5295 -0.1045
   32SAPC  H12Y 4349   4.369   4.951   7.450 -1.5306  0.8460 -1.1552
   32SAPC  C313 4350   4.311   5.086   7.614 -0.0993  0.5387  0.1619
   32SAPC  H13X 4351   4.202   5.100   7.596  0.0163  0.5244 -0.5775
   32SAPC  H13Y 4352   4.362   5.183   7.636 -0.5657  0.9828 -0.6430
   32SAPC  C314 4353   4.342   4.990   7.728  0.5699 -0.3823 -0.4519
   32SAPC  H14X 4354   4.424   4.924   7.693  0.4886 -1.6017  1.4805
   32SAPC  H14Y 4355   4.255   4.925   7.754  1.6364 -1.4778  0.5669
   32SAPC  C315 4356   4.385   5.065   7.855  0.5141 -0.4060  0.1685
   32SAPC  H15X 4357   4.313   5.142   7.889 -1.1191 -1.8525  0.1029
   32SAPC  H15Y 4358   4.485   5.110   7.835  1.0678 -1.0160  1.4444
   32SAPC  C316 4359   4.422   4.979   7.976 -0.4180  0.6383  0.2270
   32SAPC  H16X 4360   4.424   5.039   8.070  1.0741  2.0874 -0.6720
   32SAPC  H16Y 4361   4.522   4.929   7.972 -0.4071  0.7503 -1.4766
   32SAPC  C317 4362   4.322   4.865   7.994  0.4724  0.5728 -0.5499
   32SAPC  H17X 4363   4.340   4.781   7.924 -2.6365 -1.0047  0.3669
   32SAPC  H17Y 4364   4.225   4.914   7.972  0.6120  1.4429  0.7013
   32SAPC  C318 4365   4.330   4.795   8.128 -0.6056 -0.6809  0.1988
   32SAPC  H18X 4366   4.279   4.698   8.111  1.4884 -1.6979 -0.6817
   32SAPC  H18Y 4367   4.277   4.840   8.215  0.8684  2.4543 -0.3668
   32SAPC  H18Z 4368   4.435   4.773   8.154 -0.0964  1.0866 -0.1918
   33POPC     N 4369   0.417   0.551  10.959 -0.0937  0.5150 -0.0445
   33POPC   C12 4370   0.522   0.618  10.874 -0.3305  0.0828  0.1908
   33POPC  H12A 4371   0.517   0.722  10.901 -0.6637 -0.2329  1.4266
   33POPC  H12B 4372   0.491   0.601  10.771  1.6517  0.0618 -0.4389
   33POPC   C13 4373   0.282   0.616  10.951 -1.1876 -0.2964  0.0409
   33POPC  H13A 4374   0.294   0.719  10.978  0.0535 -0.6058  0.7521
   33POPC  H13B 4375   0.237   0.614  10.853 -0.3470 -1.3135 -0.3564
   33POPC  H13C 4376   0.218   0.580  11.030  1.0516  0.2001  2.1983
   33POPC   C14 4377   0.390   0.410  10.915 -0.4201  0.5566 -0.5524
   33POPC  H14A 4378   0.490   0.369  10.908 -0.3232  0.7434 -0.2454
   33POPC  H14B 4379   0.332   0.350  10.983  0.1689 -0.5630 -1.0083
   33POPC  H14C 4380   0.340   0.418  10.819 -0.8131  2.0250 -0.2421
   33POPC   C15 4381   0.465   0.546  11.102  0.8852  0.2032 -0.0123
   33POPC  H15A 4382   0.475   0.648  11.136 -1.0395  0.0447  1.2123
   33POPC  H15B 4383   0.554   0.487  11.117  0.3637 -0.7498 -0.5669
   33POPC  H15C 4384   0.393   0.498  11.166 -1.3945  1.6590 -1.3516
   33POPC   C11 4385   0.673   0.583  10.890  0.3232  0.4438 -0.9095
   33POPC  H11A 4386   0.707   0.604  10.993  0.1450 -0.2781 -0.7006
   33POPC  H11B 4387   0.730   0.656  10.829 -1.2172  0.9878 -1.7447
   33POPC     P 4388   0.861   0.402  10.836 -0.0090  0.2082  0.3809
   33POPC   O13 4389   0.908   0.279  10.884 -0.5054  0.4605 -0.9523
   33POPC   O14 4390   0.934   0.530  10.862 -0.1190  0.7126 -0.9975
   33POPC   O12 4391   0.714   0.440  10.876  0.0035  0.2463  0.1831
   33POPC   O11 4392   0.848   0.381  10.677  0.1143  1.0053  0.0899
   33POPC    C1 4393   0.816   0.260  10.616 -0.2720  0.8881 -0.4414
   33POPC    HA 4394   0.907   0.196  10.610 -2.6099 -2.7780  0.2527
   33POPC    HB 4395   0.748   0.215  10.691  1.5438 -0.4937  0.4662
   33POPC    C2 4396   0.736   0.283  10.486 -0.2500  0.8886 -0.2150
   33POPC    HS 4397   0.731   0.189  10.426  0.2219 -0.1269  1.2852
   33POPC   O21 4398   0.798   0.381  10.399 -0.0703 -1.0197  0.6533
   33POPC   C21 4399   0.910   0.341  10.334  0.0846 -0.7162 -0.4083
   33POPC   O22 4400   0.959   0.233  10.346 -0.3817  0.3579  0.1192
   33POPC   C22 4401   0.949   0.454  10.241 -0.6649 -0.0281  0.1540
   33POPC   H2R 4402   1.044   0.495  10.281 -0.4295 -0.7593  0.3579
   33POPC   H2S 4403   0.874   0.536  10.246 -0.6539 -0.0924  2.9787
   33POPC    C3 4404   0.593   0.344  10.523 -0.2547  0.1592  0.4675
   33POPC    HX 4405   0.609   0.448  10.558  2.5770 -0.0799  0.0772
   33POPC    HY 4406   0.557   0.293  10.615 -1.2987  0.4799  0.2508
   33POPC   O31 4407   0.500   0.330  10.421 -0.0375 -0.7437 -0.0947
   33POPC   C31 4408   0.491   0.418  10.324  0.3916  0.5249  0.5891
   33POPC   O32 4409   0.566   0.514  10.299  0.2927  0.0961  0.3352
   33POPC   C32 4410   0.370   0.371  10.238 -0.1492  0.3083  0.0483
   33POPC   H2X 4411   0.377   0.432  10.146 -1.9921  0.8088  0.2068
   33POPC   H2Y 4412   0.282   0.419  10.287 -0.2223  1.1644 -0.8905
   33POPC   C23 4413   0.977   0.403  10.100  0.2995 -0.3412 -0.5799
   33POPC   H3R 4414   1.054   0.325  10.118  0.2591  0.0540  1.5807
   33POPC   H3S 4415   1.019   0.480  10.031  0.3573 -1.0998 -1.4061
   33POPC   C24 4416   0.859   0.328  10.028 -0.1075 -0.0461 -0.2106
   33POPC   H4R 4417   0.798   0.259  10.091 -3.0890  2.4266 -0.1734
   33POPC   H4S 4418   0.904   0.271   9.944 -2.0681  0.5869 -1.7711
   33POPC   C25 4419   0.753   0.421   9.976 -0.4442 -0.4241  0.9325
   33POPC   H5R 4420   0.789   0.520   9.942  1.2422 -1.1383  0.5339
   33POPC   H5S 4421   0.677   0.452  10.051 -1.4409 -3.4928  1.3267
   33POPC   C26 4422   0.672   0.358   9.857 -0.4678 -0.0577  0.3492
   33POPC   H6R 4423   0.666   0.248   9.868 -4.6836 -0.0014  0.2666
   33POPC   H6S 4424   0.722   0.393   9.764 -0.2256  0.1148  0.5434
   33POPC   C27 4425   0.531   0.414   9.848  0.2395  0.0033  0.3887
   33POPC   H7R 4426   0.543   0.524   9.847  2.1343 -0.1646  0.0230
   33POPC   H7S 4427   0.468   0.392   9.936 -0.2615  0.1078  0.0625
   33POPC   C28 4428   0.466   0.361   9.720 -0.0266 -0.1104 -0.0055
   33POPC   H8R 4429   0.430   0.256   9.724 -1.5319  0.3917  0.3653
   33POPC   H8S 4430   0.545   0.360   9.642 -2.2965 -0.1190 -2.4441
   33POPC   C29 4431   0.359   0.454   9.671 -0.1825 -0.1557  0.0826
   33POPC   H91 4432   0.269   0.468   9.733  0.1244  2.1491  0.0932
   33POPC  C210 4433   0.366   0.535   9.563  0.1054  0.6424 -0.4161
   33POPC  H101 4434   0.277   0.594   9.537  0.7621  3.0016  2.1390
   33POPC  C211 4435   0.485   0.556   9.477  0.2969  0.3035  0.3652
   33POPC  H11R 4436   0.572   0.550   9.546 -1.0427  0.7055  2.1811
   33POPC  H11S 4437   0.477   0.661   9.442  0.2471  0.0633 -0.3548
   33POPC  C212 4438   0.495   0.454   9.357  0.9205 -0.2287  0.1092
   33POPC  H12R 4439   0.491   0.344   9.374 -0.1443 -0.3412 -0.7563
   33POPC  H12S 4440   0.599   0.472   9.323  0.4209 -0.6350 -1.7450
   33POPC  C213 4441   0.404   0.487   9.235 -0.4944 -0.6038  1.3190
   33POPC  H13R 4442   0.417   0.591   9.198 -2.8117  0.5706  3.4620
   33POPC  H13S 4443   0.295   0.487   9.254 -1.5615 -1.3988 -3.4756
   33POPC  C214 4444   0.437   0.387   9.122  0.0944 -0.4015  0.2560
   33POPC  H14R 4445   0.430   0.285   9.167  0.4422 -0.0933  1.0273
   33POPC  H14S 4446   0.540   0.407   9.086  1.0528 -1.5055  2.1898
   33POPC  C215 4447   0.348   0.368   9.002  0.5190  0.5509 -0.3630
   33POPC  H15R 4448   0.263   0.319   9.053 -0.4513  2.4736 -0.0584
   33POPC  H15S 4449   0.402   0.303   8.929  1.2835  1.5162 -0.6957
   33POPC  C216 4450   0.295   0.495   8.942 -0.5230 -0.3649  0.6711
   33POPC  H16R 4451   0.371   0.566   8.902 -2.4569  1.8570  0.7120
   33POPC  H16S 4452   0.258   0.556   9.027 -0.5089  0.0492  0.3804
   33POPC  C217 4453   0.190   0.460   8.831  0.6121  0.7190  0.3744
   33POPC  H17R 4454   0.221   0.369   8.775 -0.9793  0.0121  0.5824
   33POPC  H17S 4455   0.190   0.548   8.764  0.1375 -0.4551 -1.2443
   33POPC  C218 4456   0.046   0.446   8.887 -0.2326  0.1426 -0.2597
   33POPC  H18R 4457   0.053   0.347   8.937  0.0716  0.8403  1.1087
   33POPC  H18S 4458  -0.026   0.429   8.804  0.1672  1.1653 -0.8331
   33POPC  H18T 4459   0.022   0.534   8.949  1.9324  1.5466 -1.2610
   33POPC   C33 4460   0.370   0.219  10.208 -0.0325  0.1360 -0.4714
   33POPC   H3X 4461   0.338   0.167  10.300  0.7937  1.1230  0.4026
   33POPC   H3Y 4462   0.474   0.187  10.185 -0.4350 -1.7778  0.2457
   33POPC   C34 4463   0.279   0.180  10.087  0.2710  0.1086 -0.1330
   33POPC   H4X 4464   0.271   0.256  10.006 -1.3319  1.2867  1.0478
   33POPC   H4Y 4465   0.180   0.177  10.137  0.9136 -1.6397  1.1338
   33POPC   C35 4466   0.309   0.042  10.030  0.5923 -0.3654  0.3303
   33POPC   H5X 4467   0.304  -0.027  10.118 -1.3311  0.5057  0.9671
   33POPC   H5Y 4468   0.414   0.036   9.995 -0.4359 -1.0058 -2.9946
   33POPC   C36 4469   0.203   0.003   9.932 -0.3606  0.0424 -0.5182
   33POPC   H6X 4470   0.111  -0.018   9.990 -0.7373  1.4424 -0.5650
   33POPC   H6Y 4471   0.234  -0.093   9.886  1.7517  1.0150 -1.2674
   33POPC   C37 4472   0.167   0.098   9.815 -0.0243  0.0155 -0.7425
   33POPC   H7X 4473   0.257   0.156   9.786  0.1598  2.1754  3.4327
   33POPC   H7Y 4474   0.097   0.179   9.842  0.1320 -0.2226  0.4206
   33POPC   C38 4475   0.107   0.015   9.700  0.5574 -0.5464 -0.2284
   33POPC   H8X 4476   0.007  -0.019   9.733  0.2968  0.2654 -0.1660
   33POPC   H8Y 4477   0.173  -0.074   9.693  0.2781 -0.7674 -0.0628
   33POPC   C39 4478   0.112   0.093   9.570  0.2781 -0.0345  0.0490
   33POPC   H9X 4479   0.212   0.139   9.559  0.8081 -0.7604  1.5385
   33POPC   H9Y 4480   0.043   0.179   9.582  1.1457  0.6404  0.3239
   33POPC  C310 4481   0.074   0.006   9.453  0.4908  0.3468 -0.1058
   33POPC  H10X 4482  -0.024  -0.037   9.484  2.6170 -3.0015  2.7553
   33POPC  H10Y 4483   0.144  -0.080   9.455 -0.1600 -0.3318 -2.5743
   33POPC  C311 4484   0.071   0.071   9.319 -0.3000 -0.2208  0.4406
   33POPC  H11X 4485   0.165   0.119   9.284  0.1230 -0.8562  0.6899
   33POPC  H11Y 4486   0.000   0.156   9.330  0.7394  1.1699 -2.5098
   33POPC  C312 4487   0.010  -0.024   9.218  0.4888  0.6463  1.3192
   33POPC  H12X 4488  -0.017   0.030   9.125 -0.5809 -1.3172  0.4308
   33POPC  H12Y 4489  -0.090  -0.059   9.251 -0.5671  0.2347 -1.9435
   33POPC  C313 4490   0.095  -0.146   9.179 -0.0656  0.6994  0.5344
   33POPC  H13X 4491   0.099  -0.213   9.268 -1.7497 -1.1444 -0.6801
   33POPC  H13Y 4492   0.194  -0.114   9.141  0.0826 -0.1784  0.1601
   33POPC  C314 4493   0.021  -0.233   9.075 -0.2916 -0.1014 -0.6894
   33POPC  H14X 4494   0.024  -0.181   8.976 -1.4185 -0.2704 -0.8295
   33POPC  H14Y 4495  -0.082  -0.247   9.114 -0.2080  0.9771 -0.0248
   33POPC  C315 4496   0.093  -0.368   9.067  0.1904  0.7207 -0.5035
   33POPC  H15X 4497   0.091  -0.413   9.169  1.9517  2.0527  0.1768
   33POPC  H15Y 4498   0.201  -0.352   9.045  0.3560 -0.0764 -0.3159
   33POPC  C316 4499   0.033  -0.469   8.965  0.3403 -0.0829 -0.0964
   33POPC  H16X 4500   0.063  -0.451   8.859 -1.1583  2.1408 -0.2141
   33POPC  H16Y 4501  -0.078  -0.470   8.976  0.4810  2.3507  2.5595
   33POPC  H16Z 4502   0.074  -0.570   8.985  0.6633 -0.2490 -1.5175
   34POPC     N 4503   5.636   1.532  10.937  0.0598 -1.0858 -0.2411
   34POPC   C12 4504   5.741   1.489  10.836 -0.0573 -0.0106  0.5839
   34POPC  H12A 4505   5.725   1.386  10.805  0.6570 -0.3178  1.2072
   34POPC  H12B 4506   5.835   1.484  10.888  0.0151  0.8656  0.5434
   34POPC   C13 4507   5.496   1.543  10.880 -0.4973  0.6700  0.0246
   34POPC  H13A 4508   5.474   1.453  10.824  1.2429  1.0775 -1.4313
   34POPC  H13B 4509   5.424   1.552  10.959 -0.0227  3.0005  0.2772
   34POPC  H13C 4510   5.476   1.629  10.818 -4.2378 -0.2262 -0.2044
   34POPC   C14 4511   5.619   1.434  11.047  0.3783 -0.5053 -0.2844
   34POPC  H14A 4512   5.583   1.338  11.013 -0.6093 -0.1097 -0.3882
   34POPC  H14B 4513   5.695   1.421  11.122 -0.7356 -0.7062  0.8492
   34POPC  H14C 4514   5.538   1.461  11.113  1.0278  1.9018 -0.3645
   34POPC   C15 4515   5.668   1.665  10.994  0.0361 -0.6424  0.4596
   34POPC  H15A 4516   5.607   1.705  11.074  1.6367  0.8857  0.9927
   34POPC  H15B 4517   5.678   1.739  10.916  0.4861  0.7119  1.7648
   34POPC  H15C 4518   5.768   1.666  11.034  0.3910  0.3701 -0.4300
   34POPC   C11 4519   5.758   1.562  10.707  0.6825 -0.0015 -0.0385
   34POPC  H11A 4520   5.662   1.553  10.652  2.0223  0.4049 -2.5758
   34POPC  H11B 4521   5.840   1.518  10.648  1.3702 -0.1369  0.9896
   34POPC     P 4522   5.923   1.762  10.770 -0.3171  0.3273 -0.0980
   34POPC   O13 4523   6.021   1.657  10.802  0.0177  0.2628  0.4648
   34POPC   O14 4524   5.906   1.851  10.888 -0.2769  0.4986 -0.3461
   34POPC   O12 4525   5.787   1.694  10.735  0.2271  0.0119  0.7571
   34POPC   O11 4526   5.968   1.841  10.648  0.1648 -0.4600  0.3536
   34POPC    C1 4527   6.048   1.778  10.549 -0.1288  0.5780  0.0339
   34POPC    HA 4528   6.000   1.760  10.451  1.6568 -0.3943 -0.7116
   34POPC    HB 4529   6.089   1.678  10.573  0.2618  0.6482 -0.3232
   34POPC    C2 4530   6.167   1.872  10.509 -0.4677 -0.0444  0.6940
   34POPC    HS 4531   6.228   1.891  10.601  1.9691 -2.5348 -0.2506
   34POPC   O21 4532   6.107   1.984  10.443  0.2261 -0.1344 -0.0239
   34POPC   C21 4533   6.175   2.099  10.445 -0.3881 -0.8173  0.2924
   34POPC   O22 4534   6.287   2.119  10.494 -0.4747 -0.5479 -0.2588
   34POPC   C22 4535   6.108   2.202  10.359 -0.8451 -0.4280 -0.1425
   34POPC   H2R 4536   6.164   2.297  10.370  1.7089 -2.1126  3.4977
   34POPC   H2S 4537   6.003   2.207  10.394 -0.5497 -2.1093  1.0908
   34POPC    C3 4538   6.275   1.804  10.416  0.1230  0.5243  0.2792
   34POPC    HX 4539   6.274   1.700  10.454  0.8826  0.4678  0.1486
   34POPC    HY 4540   6.378   1.841  10.434  0.4367  0.4560 -1.2235
   34POPC   O31 4541   6.240   1.817  10.273 -0.3393 -0.5480  1.2226
   34POPC   C31 4542   6.173   1.719  10.218  0.0969  0.1524  0.8246
   34POPC   O32 4543   6.130   1.623  10.271 -0.4966  0.4756  0.4046
   34POPC   C32 4544   6.142   1.764  10.076 -0.0143  1.0373 -0.4324
   34POPC   H2X 4545   6.070   1.848  10.083 -3.0057 -1.4775  1.5549
   34POPC   H2Y 4546   6.092   1.677  10.029  0.6008  0.0215  0.7569
   34POPC   C23 4547   6.128   2.167  10.207  0.4667  0.2784 -0.6327
   34POPC   H3R 4548   6.022   2.146  10.179  0.3730  1.1832 -0.9704
   34POPC   H3S 4549   6.187   2.074  10.190 -0.4407 -0.4449  0.0567
   34POPC   C24 4550   6.179   2.286  10.124 -0.1757 -0.3682  0.5336
   34POPC   H4R 4551   6.272   2.319  10.176  0.5894  0.2190 -1.1332
   34POPC   H4S 4552   6.101   2.365  10.120  0.6706  0.4466 -0.5047
   34POPC   C25 4553   6.212   2.250   9.978  0.2752 -0.1671  0.1328
   34POPC   H5R 4554   6.284   2.166   9.973  0.4497 -0.0316  0.3759
   34POPC   H5S 4555   6.256   2.342   9.933 -1.4861  0.7251  0.1282
   34POPC   C26 4556   6.096   2.207   9.894 -0.5495 -0.0428  0.0895
   34POPC   H6R 4557   6.021   2.288   9.912 -1.7419 -1.1762  0.4051
   34POPC   H6S 4558   6.051   2.113   9.934 -0.4214 -1.2903 -2.5201
   34POPC   C27 4559   6.145   2.188   9.749  0.4827 -0.0061 -0.2979
   34POPC   H7R 4560   6.217   2.103   9.743 -0.8867 -1.1209 -1.9727
   34POPC   H7S 4561   6.206   2.269   9.705  1.0359  0.4529  1.2422
   34POPC   C28 4562   6.032   2.169   9.652 -0.5864 -0.8235 -0.0451
   34POPC   H8R 4563   6.083   2.172   9.553  1.7464 -2.4142  1.0463
   34POPC   H8S 4564   5.944   2.235   9.670  0.1284  0.0509  0.2883
   34POPC   C29 4565   5.978   2.031   9.678 -0.3927  0.2173 -0.5102
   34POPC   H91 4566   5.935   2.020   9.779  2.3446  1.8129  0.9705
   34POPC  C210 4567   6.002   1.921   9.605 -0.1456 -0.3875 -0.4463
   34POPC  H101 4568   5.941   1.835   9.637 -1.9937  1.3152  0.8702
   34POPC  C211 4569   6.077   1.915   9.476 -0.2840  0.5275  0.3549
   34POPC  H11R 4570   6.158   1.838   9.472 -0.4664  0.2862  1.1093
   34POPC  H11S 4571   6.130   2.005   9.437  3.0151 -2.1348 -1.9809
   34POPC  C212 4572   5.985   1.878   9.355 -0.4505 -0.3409 -0.2140
   34POPC  H12R 4573   5.886   1.926   9.370 -0.6270 -0.1066 -1.9881
   34POPC  H12S 4574   5.965   1.769   9.367 -1.8020 -0.1008 -0.0940
   34POPC  C213 4575   6.041   1.889   9.213 -0.6856  0.5760 -0.1586
   34POPC  H13R 4576   5.973   1.838   9.141 -0.8714  1.4992 -0.6526
   34POPC  H13S 4577   6.134   1.831   9.195 -0.8167  0.3849 -0.2210
   34POPC  C214 4578   6.085   2.032   9.168 -0.3679 -0.0575 -0.2939
   34POPC  H14R 4579   6.124   2.023   9.064  0.9238  0.0120  0.1723
   34POPC  H14S 4580   6.170   2.062   9.232  0.9423 -1.7699 -1.1214
   34POPC  C215 4581   5.971   2.133   9.169  0.7609 -0.6228  0.0503
   34POPC  H15R 4582   5.945   2.139   9.277 -1.0864 -1.5491 -0.3049
   34POPC  H15S 4583   5.885   2.091   9.114 -0.9294  1.6190  0.8225
   34POPC  C216 4584   5.997   2.281   9.139  0.0865 -0.1316  0.8412
   34POPC  H16R 4585   6.003   2.277   9.028  0.8788 -3.6071  0.8978
   34POPC  H16S 4586   6.099   2.310   9.174  0.3060  1.6576 -1.0719
   34POPC  C217 4587   5.887   2.369   9.194 -0.7742  0.5504  0.0854
   34POPC  H17R 4588   5.903   2.469   9.149  1.1904 -0.7818 -2.4389
   34POPC  H17S 4589   5.879   2.374   9.305 -0.9280 -0.9074  0.1544
   34POPC  C218 4590   5.750   2.337   9.133 -0.0304 -0.0980  0.3432
   34POPC  H18R 4591   5.686   2.426   9.115  2.9990  2.3669  0.8310
   34POPC  H18S 4592   5.700   2.261   9.196 -1.7084 -1.0394 -1.9765
   34POPC  H18T 4593   5.759   2.289   9.033 -0.2463  1.3273 -0.3886
   34POPC   C33 4594   6.265   1.820  10.001  0.4144 -0.0542  0.3046
   34POPC   H3X 4595   6.308   1.906  10.056  1.9496 -0.4033 -0.3049
   34POPC   H3Y 4596   6.235   1.871   9.907  1.2187 -3.4335 -1.9656
   34POPC   C34 4597   6.353   1.702   9.958 -0.4988 -0.3000  0.2779
   34POPC   H4X 4598   6.293   1.625   9.906 -0.6088  0.1369 -0.2416
   34POPC   H4Y 4599   6.415   1.656  10.039  1.1114  1.4504  0.1043
   34POPC   C35 4600   6.466   1.751   9.860  0.2416 -0.1904  0.3685
   34POPC   H5X 4601   6.540   1.821   9.904  2.2567 -0.8319 -1.7543
   34POPC   H5Y 4602   6.430   1.797   9.766 -0.5309 -1.1218  0.1921
   34POPC   C36 4603   6.542   1.626   9.810 -0.3880  0.6220  0.4221
   34POPC   H6X 4604   6.472   1.551   9.766 -0.9846  1.4967 -0.1455
   34POPC   H6Y 4605   6.604   1.584   9.892 -0.5302 -1.7187 -0.5622
   34POPC   C37 4606   6.641   1.647   9.695  0.7318 -0.4261  0.3289
   34POPC   H7X 4607   6.702   1.554   9.691 -0.8879 -1.4755 -2.1294
   34POPC   H7Y 4608   6.699   1.737   9.725  2.4839 -2.0131  2.0760
   34POPC   C38 4609   6.583   1.669   9.561  0.6907  0.0166  0.6812
   34POPC   H8X 4610   6.664   1.709   9.496  0.2609 -0.6682 -0.3093
   34POPC   H8Y 4611   6.498   1.740   9.566  0.6106  0.1229 -1.4939
   34POPC   C39 4612   6.525   1.542   9.499  0.4004 -0.0695  0.3220
   34POPC   H9X 4613   6.436   1.527   9.563  0.9062  0.6320  1.2159
   34POPC   H9Y 4614   6.593   1.455   9.501 -0.3141 -0.6289  0.4087
   34POPC  C310 4615   6.472   1.565   9.359 -0.2849  0.0654 -0.4937
   34POPC  H10X 4616   6.554   1.563   9.285  1.9049  3.6771  1.5589
   34POPC  H10Y 4617   6.436   1.668   9.340  1.4613  0.8200  0.1190
   34POPC  C311 4618   6.365   1.457   9.333  0.2973 -0.0627  0.0985
   34POPC  H11X 4619   6.304   1.511   9.257  0.2816 -0.5303 -0.2229
   34POPC  H11Y 4620   6.291   1.435   9.413 -0.1290 -1.0921 -0.5716
   34POPC  C312 4621   6.416   1.332   9.278 -0.0589  0.1108 -0.1584
   34POPC  H12X 4622   6.430   1.274   9.372  0.7359  0.5256 -0.0098
   34POPC  H12Y 4623   6.516   1.329   9.229 -0.3387 -0.1471 -0.7286
   34POPC  C313 4624   6.305   1.263   9.195  0.5812 -0.9265  0.2606
   34POPC  H13X 4625   6.276   1.317   9.103  0.7058 -0.4963  0.4716
   34POPC  H13Y 4626   6.215   1.265   9.259  0.0020  1.3387 -0.5404
   34POPC  C314 4627   6.350   1.123   9.156  0.2960 -0.4430 -0.5868
   34POPC  H14X 4628   6.420   1.077   9.229 -1.0938 -1.8067 -0.0735
   34POPC  H14Y 4629   6.409   1.120   9.061 -0.7171  1.6753 -1.3375
   34POPC  C315 4630   6.224   1.037   9.120  0.1520 -0.4620 -0.4508
   34POPC  H15X 4631   6.164   1.083   9.039 -0.2560 -0.3875 -0.1055
   34POPC  H15Y 4632   6.167   1.039   9.215  0.8597 -1.5470  0.0221
   34POPC  C316 4633   6.256   0.889   9.093 -0.0173  0.2135 -0.1416
   34POPC  H16X 4634   6.362   0.876   9.062 -0.7287 -0.8068 -2.3535
   34POPC  H16Y 4635   6.180   0.853   9.021 -1.4536  0.6005  1.1291
   34POPC  H16Z 4636   6.248   0.820   9.180 -1.1468 -1.7994 -1.7582
   35POPC     N 4637   0.517   4.448  11.474 -0.2630 -0.5112  0.3098
   35POPC   C12 4638   0.421   4.462  11.357  0.2831 -0.0148 -0.7812
   35POPC  H12A 4639   0.474   4.480  11.264  0.3231 -1.5973 -1.0991
   35POPC  H12B 4640   0.366   4.554  11.365  0.8520  0.5112 -2.5352
   35POPC   C13 4641   0.615   4.342  11.440  0.5501 -0.2748 -0.0935
   35POPC  H13A 4642   0.632   4.358  11.334 -2.9107 -1.1360 -0.9029
   35POPC  H13B 4643   0.705   4.335  11.500  0.6624 -0.1962 -0.2490
   35POPC  H13C 4644   0.559   4.250  11.435 -0.6927  0.5102 -1.2778
   35POPC   C14 4645   0.604   4.572  11.486 -0.1346 -0.2447  0.6552
   35POPC  H14A 4646   0.677   4.557  11.564  0.1649  0.3043  0.4799
   35POPC  H14B 4647   0.658   4.597  11.397 -0.9574 -0.6685  0.0243
   35POPC  H14C 4648   0.556   4.665  11.512  3.3326  1.1777  2.5900
   35POPC   C15 4649   0.434   4.428  11.597  0.0241  0.7290  0.1702
   35POPC  H15A 4650   0.364   4.509  11.609 -3.1116 -1.9245  1.3041
   35POPC  H15B 4651   0.491   4.437  11.689  0.8708  2.8444 -0.5077
   35POPC  H15C 4652   0.385   4.333  11.582  2.4515 -0.6307  0.4054
   35POPC   C11 4653   0.328   4.342  11.334 -1.0073  0.0415  0.6923
   35POPC  H11A 4654   0.243   4.378  11.271 -0.2947  0.4875 -0.0240
   35POPC  H11B 4655   0.276   4.296  11.421 -2.0909 -2.2657 -1.0568
   35POPC     P 4656   0.443   4.258  11.114 -0.5178  0.0418 -0.1585
   35POPC   O13 4657   0.437   4.134  11.033 -0.5973 -0.1939 -0.1093
   35POPC   O14 4658   0.581   4.322  11.117 -0.6433  0.1503 -0.1332
   35POPC   O12 4659   0.394   4.229  11.265 -0.0354 -0.2044 -0.1426
   35POPC   O11 4660   0.339   4.364  11.055  0.2583 -0.1188  0.2571
   35POPC    C1 4661   0.205   4.310  11.025  0.2361  0.9458  0.5152
   35POPC    HA 4662   0.125   4.380  11.059 -0.5031  1.7509 -2.5534
   35POPC    HB 4663   0.187   4.209  11.066 -2.1870  0.7770 -0.7979
   35POPC    C2 4664   0.200   4.281  10.873  0.8109 -0.8466 -0.1143
   35POPC    HS 4665   0.279   4.208  10.849 -1.7725 -4.0878  0.5252
   35POPC   O21 4666   0.222   4.414  10.813 -0.6333 -0.5067  0.5803
   35POPC   C21 4667   0.337   4.452  10.776  0.2974 -0.2674  0.6489
   35POPC   O22 4668   0.437   4.378  10.764  0.4993 -0.1071 -0.1489
   35POPC   C22 4669   0.335   4.596  10.739 -0.5434  0.2189  0.4197
   35POPC   H2R 4670   0.404   4.646  10.810 -0.9250 -1.3133  1.9483
   35POPC   H2S 4671   0.234   4.642  10.744 -0.1243  1.2926 -0.5037
   35POPC    C3 4672   0.067   4.216  10.832  0.1488 -0.3086  0.5146
   35POPC    HX 4673  -0.024   4.269  10.868  0.8370  0.0285  1.8302
   35POPC    HY 4674   0.067   4.118  10.884  1.3546 -0.1185  0.9030
   35POPC   O31 4675   0.055   4.209  10.685 -0.2286 -0.4123  0.0348
   35POPC   C31 4676   0.130   4.127  10.612 -0.2409  0.8211  0.6301
   35POPC   O32 4677   0.196   4.032  10.656 -0.1602  0.2360  0.7830
   35POPC   C32 4678   0.116   4.169  10.467  0.0540 -0.2912 -0.6390
   35POPC   H2X 4679   0.155   4.271  10.448  1.9093 -0.8351 -0.0622
   35POPC   H2Y 4680   0.007   4.158  10.449 -0.6067  1.0477  1.9681
   35POPC   C23 4681   0.371   4.613  10.592 -0.3861 -0.5136 -0.4244
   35POPC   H3R 4682   0.477   4.583  10.583  0.0810  0.6868  0.8804
   35POPC   H3S 4683   0.370   4.722  10.571 -1.2800 -0.6637 -1.2479
   35POPC   C24 4684   0.281   4.529  10.491 -0.5321 -0.6156 -0.0279
   35POPC   H4R 4685   0.180   4.542  10.537 -0.1317  0.3878  0.6065
   35POPC   H4S 4686   0.306   4.421  10.488  1.7449 -0.1724  0.9811
   35POPC   C25 4687   0.286   4.575  10.339 -0.7187 -0.2565 -0.1020
   35POPC   H5R 4688   0.390   4.603  10.312  0.2243 -0.5298  2.8712
   35POPC   H5S 4689   0.213   4.656  10.319 -0.0851  0.5884  0.8810
   35POPC   C26 4690   0.253   4.462  10.240 -0.2586 -0.0619 -0.0923
   35POPC   H6R 4691   0.147   4.429  10.244 -0.9076  1.6876 -1.6089
   35POPC   H6S 4692   0.311   4.370  10.261 -0.4476  0.0243  0.8621
   35POPC   C27 4693   0.282   4.510  10.096  0.1115 -0.1437  0.2292
   35POPC   H7R 4694   0.383   4.556  10.092 -0.0219  0.0514 -2.0092
   35POPC   H7S 4695   0.216   4.596  10.075  0.7689  0.2909 -0.0921
   35POPC   C28 4696   0.265   4.404   9.983 -0.3694  0.3391 -1.0595
   35POPC   H8R 4697   0.157   4.377   9.982 -0.2723 -0.0507 -1.5159
   35POPC   H8S 4698   0.318   4.308  10.002 -1.6549 -0.3482 -0.8592
   35POPC   C29 4699   0.299   4.460   9.853  0.1492 -0.2121  0.2993
   35POPC   H91 4700   0.288   4.568   9.836  2.0678 -0.1066 -0.5360
   35POPC  C210 4701   0.340   4.385   9.750 -0.3722  0.3566 -0.0786
   35POPC  H101 4702   0.367   4.434   9.655  3.2518 -0.2400  0.4826
   35POPC  C211 4703   0.369   4.236   9.745  0.6278  0.2989 -0.4207
   35POPC  H11R 4704   0.335   4.184   9.838 -0.9096 -0.5345 -1.4021
   35POPC  H11S 4705   0.477   4.213   9.734  0.4936 -0.3946 -0.3493
   35POPC  C212 4706   0.299   4.183   9.619  1.0132  0.5033  0.7635
   35POPC  H12R 4707   0.188   4.189   9.620  0.8437 -1.4796  2.7852
   35POPC  H12S 4708   0.312   4.072   9.618 -2.0478 -0.0489  3.5005
   35POPC  C213 4709   0.336   4.249   9.487 -0.3519  0.1030 -1.1072
   35POPC  H13R 4710   0.440   4.219   9.462  0.9613  3.2690  0.0340
   35POPC  H13S 4711   0.328   4.359   9.479  1.8917  0.2917 -1.4716
   35POPC  C214 4712   0.250   4.188   9.376 -0.1727  0.4163  0.6507
   35POPC  H14R 4713   0.152   4.239   9.380  0.1533  1.0035  3.4132
   35POPC  H14S 4714   0.228   4.080   9.393 -1.3742  0.6671  0.7288
   35POPC  C215 4715   0.318   4.185   9.239 -0.9838 -0.0342 -0.3852
   35POPC  H15R 4716   0.394   4.104   9.236  0.3503  1.1928 -0.5345
   35POPC  H15S 4717   0.381   4.276   9.231  1.7903 -1.8656 -0.7009
   35POPC  C216 4718   0.224   4.169   9.121 -0.1524  0.1611 -0.2705
   35POPC  H16R 4719   0.153   4.254   9.131  0.6893  0.5888  3.4152
   35POPC  H16S 4720   0.163   4.076   9.123  0.7545 -0.4680 -0.9910
   35POPC  C217 4721   0.298   4.168   8.991  0.6434 -0.4523 -0.0741
   35POPC  H17R 4722   0.343   4.266   8.967  1.9348 -0.9572  0.1858
   35POPC  H17S 4723   0.223   4.155   8.909  2.1347  3.0453 -2.2323
   35POPC  C218 4724   0.401   4.051   8.969 -0.0745 -0.7231 -0.0636
   35POPC  H18R 4725   0.455   4.064   8.873  0.5608  2.6519  0.6186
   35POPC  H18S 4726   0.359   3.949   8.980 -0.9961 -0.3834 -0.2749
   35POPC  H18T 4727   0.488   4.057   9.038  0.5266  0.3309 -0.8882
   35POPC   C33 4728   0.174   4.069  10.364 -0.4657  0.2863  0.0434
   35POPC   H3X 4729   0.136   3.966  10.378  0.5503  0.0303  1.0081
   35POPC   H3Y 4730   0.284   4.070  10.375 -0.2634 -2.1497 -1.1081
   35POPC   C34 4731   0.142   4.093  10.218 -0.2992  0.2016  0.5773
   35POPC   H4X 4732   0.187   4.190  10.186  0.0217  0.1166  0.7600
   35POPC   H4Y 4733   0.038   4.131  10.218  0.1226  1.4783 -1.3407
   35POPC   C35 4734   0.193   3.975  10.138 -0.4318  0.2254  0.7214
   35POPC   H5X 4735   0.172   3.875  10.180 -0.0684 -1.0861 -1.9905
   35POPC   H5Y 4736   0.304   3.973  10.133 -0.4812 -2.0983 -1.2845
   35POPC   C36 4737   0.122   3.973   9.997 -0.0178 -0.5322  0.7424
   35POPC   H6X 4738   0.133   4.075   9.955 -0.5396 -0.2065  1.3967
   35POPC   H6Y 4739   0.015   3.950  10.015 -0.3159  1.0793  1.1152
   35POPC   C37 4740   0.186   3.874   9.892 -0.1065  0.0616  1.0153
   35POPC   H7X 4741   0.182   3.774   9.940  0.4701  0.2619  1.4899
   35POPC   H7Y 4742   0.291   3.906   9.878 -0.6246  2.0083  1.2478
   35POPC   C38 4743   0.110   3.878   9.749  0.1034  0.7922 -0.0356
   35POPC   H8X 4744   0.094   3.984   9.718 -1.7436  1.3960  2.6008
   35POPC   H8Y 4745   0.004   3.851   9.768 -0.0346  1.0345 -0.4425
   35POPC   C39 4746   0.185   3.781   9.657  0.5777 -0.1239 -0.3101
   35POPC   H9X 4747   0.174   3.685   9.710  2.2097  0.6796  1.5936
   35POPC   H9Y 4748   0.292   3.810   9.660 -0.2553  3.3481  0.1992
   35POPC  C310 4749   0.125   3.786   9.514  0.0298  0.9247 -0.6280
   35POPC  H10X 4750   0.130   3.888   9.471 -0.1354  1.0937 -0.2482
   35POPC  H10Y 4751   0.021   3.757   9.537 -0.3150  2.9000  0.5352
   35POPC  C311 4752   0.187   3.693   9.409 -0.3194 -0.5511 -0.6593
   35POPC  H11X 4753   0.210   3.590   9.440 -0.1403 -0.0254  1.0278
   35POPC  H11Y 4754   0.277   3.742   9.364 -0.9512  1.6995  0.3670
   35POPC  C312 4755   0.092   3.660   9.286  0.5257  0.2985  0.4105
   35POPC  H12X 4756   0.067   3.751   9.228  1.9060  0.5533  0.1801
   35POPC  H12Y 4757  -0.009   3.637   9.328 -0.7349  1.8467 -1.5932
   35POPC  C313 4758   0.148   3.548   9.188  0.3503 -1.1136  0.7946
   35POPC  H13X 4759   0.167   3.451   9.240 -0.4835 -1.3919  0.6047
   35POPC  H13Y 4760   0.247   3.588   9.157  0.4186  0.1143  2.4329
   35POPC  C314 4761   0.049   3.535   9.063 -0.6144  0.5373 -0.3836
   35POPC  H14X 4762   0.036   3.622   8.995  0.8882  0.9677 -0.1511
   35POPC  H14Y 4763  -0.052   3.507   9.101 -0.5639  0.0933 -0.5708
   35POPC  C315 4764   0.093   3.413   8.975  0.5561 -0.2007  0.2911
   35POPC  H15X 4765   0.110   3.322   9.037 -0.3345 -1.8288 -1.6924
   35POPC  H15Y 4766   0.187   3.428   8.919  1.0169  1.6678  1.4809
   35POPC  C316 4767  -0.017   3.372   8.875 -0.1548  0.3978 -0.2353
   35POPC  H16X 4768  -0.035   3.452   8.801 -0.1912 -0.5433 -1.2807
   35POPC  H16Y 4769  -0.109   3.347   8.932 -1.7176  2.2416 -1.8269
   35POPC  H16Z 4770   0.020   3.289   8.810 -0.1598  0.8945 -0.8729
   36POPC     N 4771   1.924   4.153  11.141 -0.1199  0.8527 -0.4040
   36POPC   C12 4772   1.933   4.063  11.021  0.0714 -0.6081  0.8198
   36POPC  H12A 4773   2.011   3.990  11.034  1.5868  1.1906  2.4446
   36POPC  H12B 4774   1.976   4.120  10.940  0.0175 -2.3728 -0.5023
   36POPC   C13 4775   1.838   4.270  11.102 -0.1777  0.4147  0.2728
   36POPC  H13A 4776   1.866   4.322  11.012 -1.6647 -0.6167 -0.8402
   36POPC  H13B 4777   1.737   4.240  11.080  0.0960 -0.0745 -0.3401
   36POPC  H13C 4778   1.850   4.340  11.183  2.3003  0.5896 -0.1596
   36POPC   C14 4779   1.879   4.080  11.269  0.1062 -0.2115  0.9540
   36POPC  H14A 4780   1.893   4.140  11.358  0.2854  1.1073  0.0589
   36POPC  H14B 4781   1.773   4.061  11.264  0.1339 -0.1275 -0.0313
   36POPC  H14C 4782   1.936   3.988  11.272  1.3045  0.4476 -0.6646
   36POPC   C15 4783   2.057   4.214  11.171  0.3777  0.2542  0.0373
   36POPC  H15A 4784   2.059   4.278  11.257  1.1542 -0.5717  0.6507
   36POPC  H15B 4785   2.090   4.285  11.097  0.6035  0.8021  0.6600
   36POPC  H15C 4786   2.133   4.140  11.191 -0.0503 -0.5955 -1.2767
   36POPC   C11 4787   1.802   4.011  10.954 -0.0166 -0.3909 -0.5080
   36POPC  H11A 4788   1.838   3.964  10.860 -0.0789 -1.0721 -0.1979
   36POPC  H11B 4789   1.747   4.104  10.931  0.2611  0.3049  1.4823
   36POPC     P 4790   1.593   3.882  11.007  0.5575  0.0963 -0.0962
   36POPC   O13 4791   1.504   3.995  11.048 -0.1754 -0.4672 -0.0749
   36POPC   O14 4792   1.544   3.750  11.052 -0.8384  1.0031 -0.0306
   36POPC   O12 4793   1.744   3.914  11.038  0.6497  0.3523  0.0084
   36POPC   O11 4794   1.587   3.889  10.849  0.7546 -0.2566 -0.2136
   36POPC    C1 4795   1.655   3.781  10.775 -0.5126 -0.6014 -0.2851
   36POPC    HA 4796   1.585   3.695  10.776 -1.3503  0.0650 -0.5181
   36POPC    HB 4797   1.749   3.746  10.823  2.2574  1.9290 -3.4028
   36POPC    C2 4798   1.698   3.821  10.627  0.3849  0.1286 -0.2627
   36POPC    HS 4799   1.776   3.899  10.636  0.6325 -0.3107  1.9237
   36POPC   O21 4800   1.574   3.857  10.563  1.1039  0.3110  0.0474
   36POPC   C21 4801   1.586   3.961  10.486 -0.1825  0.2854 -0.2100
   36POPC   O22 4802   1.669   4.049  10.497 -0.1234  0.4584  0.2059
   36POPC   C22 4803   1.474   3.955  10.379 -0.8243  0.3930  0.0428
   36POPC   H2R 4804   1.381   3.915  10.424 -2.5710  2.6049 -1.3756
   36POPC   H2S 4805   1.502   3.874  10.308  1.0782 -0.1212  1.3156
   36POPC    C3 4806   1.767   3.695  10.559  0.0324 -0.9340  0.0781
   36POPC    HX 4807   1.689   3.616  10.558 -0.1458 -0.8091  1.6101
   36POPC    HY 4808   1.856   3.662  10.616 -0.6866  0.5188  2.1693
   36POPC   O31 4809   1.802   3.728  10.425 -0.0747  0.3011 -0.3928
   36POPC   C31 4810   1.922   3.790  10.411  0.4540  0.3759 -0.0088
   36POPC   O32 4811   1.996   3.830  10.495  0.8143  0.1157  0.4431
   36POPC   C32 4812   1.948   3.810  10.257  0.2711  0.0317 -1.0708
   36POPC   H2X 4813   1.927   3.711  10.213 -1.0943 -1.3987  2.4343
   36POPC   H2Y 4814   2.053   3.845  10.263 -0.4319  2.2096  3.8474
   36POPC   C23 4815   1.438   4.094  10.311  0.5061  0.1544 -0.3645
   36POPC   H3R 4816   1.422   4.166  10.395 -1.8088 -0.8733  0.1437
   36POPC   H3S 4817   1.351   4.099  10.242  0.6923 -0.6179 -0.6577
   36POPC   C24 4818   1.546   4.138  10.218 -0.1115  0.3402 -0.3673
   36POPC   H4R 4819   1.562   4.059  10.141  0.7230  0.7002 -0.5681
   36POPC   H4S 4820   1.643   4.151  10.270  0.5662  2.8805 -2.0804
   36POPC   C25 4821   1.515   4.272  10.146 -0.0800  0.4666 -0.5505
   36POPC   H5R 4822   1.526   4.348  10.226  1.5938  1.5941 -1.7799
   36POPC   H5S 4823   1.418   4.281  10.093  0.1052  2.7983 -0.5716
   36POPC   C26 4824   1.622   4.295  10.048  0.5824  0.2499  0.1028
   36POPC   H6R 4825   1.716   4.269  10.100  0.3855  0.4256  0.5511
   36POPC   H6S 4826   1.627   4.403  10.023  2.0745  0.1723 -0.0010
   36POPC   C27 4827   1.612   4.212   9.918  0.2446 -0.0814  0.8122
   36POPC   H7R 4828   1.508   4.226   9.884  0.2370  0.5981  1.0919
   36POPC   H7S 4829   1.619   4.106   9.948 -1.4727 -0.4132  0.1067
   36POPC   C28 4830   1.722   4.253   9.817  0.9523  0.4618 -0.6400
   36POPC   H8R 4831   1.818   4.269   9.870  2.0475 -2.8592 -1.3594
   36POPC   H8S 4832   1.683   4.345   9.769 -1.0577 -1.1787 -2.3316
   36POPC   C29 4833   1.757   4.162   9.699 -0.1332 -0.3147 -0.7230
   36POPC   H91 4834   1.765   4.058   9.733  0.6083 -0.0546 -0.0686
   36POPC  C210 4835   1.777   4.188   9.570 -0.5031  0.1438 -1.2522
   36POPC  H101 4836   1.810   4.102   9.510  0.8893 -0.2282 -0.0035
   36POPC  C211 4837   1.783   4.332   9.519  0.3571 -0.0057  0.3885
   36POPC  H11R 4838   1.795   4.414   9.593  0.6557  0.0526  0.2757
   36POPC  H11S 4839   1.692   4.367   9.466  0.2683 -0.3240  0.3301
   36POPC  C212 4840   1.895   4.343   9.413 -0.5519  0.2896 -0.3937
   36POPC  H12R 4841   1.993   4.332   9.464 -0.7604  0.9892  0.1762
   36POPC  H12S 4842   1.889   4.444   9.369  1.5737  1.0646  0.9413
   36POPC  C213 4843   1.888   4.246   9.291 -0.7096  0.2792 -0.2563
   36POPC  H13R 4844   1.795   4.265   9.235 -1.6259  0.2531  1.1918
   36POPC  H13S 4845   1.890   4.138   9.320 -1.1115  0.7337  1.6362
   36POPC  C214 4846   2.013   4.274   9.206 -0.4263  0.6017 -0.0890
   36POPC  H14R 4847   2.098   4.223   9.255 -0.2699  0.5423 -0.4213
   36POPC  H14S 4848   2.029   4.384   9.199 -0.6612  0.5238 -4.7757
   36POPC  C215 4849   2.004   4.211   9.067  0.4014  0.5948  0.5119
   36POPC  H15R 4850   1.943   4.118   9.067  0.8840  0.2743  0.3933
   36POPC  H15S 4851   2.107   4.181   9.038  0.2620  1.7692 -1.3596
   36POPC  C216 4852   1.957   4.315   8.965 -0.5974  0.4273  0.1790
   36POPC  H16R 4853   1.866   4.361   9.008 -1.5380 -1.9414  0.9175
   36POPC  H16S 4854   1.918   4.268   8.872 -0.6272 -0.9011  0.8392
   36POPC  C217 4855   2.058   4.423   8.933 -0.4630  0.1628 -0.0027
   36POPC  H17R 4856   2.161   4.383   8.929 -1.5626 -3.1186  1.0741
   36POPC  H17S 4857   2.052   4.502   9.011 -3.3958 -1.4643  1.5925
   36POPC  C218 4858   2.025   4.491   8.802 -0.0245 -0.4741 -0.0591
   36POPC  H18R 4859   2.102   4.568   8.780  2.3493 -2.3133  1.2677
   36POPC  H18S 4860   1.924   4.536   8.801 -0.4169 -1.2609 -2.3960
   36POPC  H18T 4861   2.021   4.429   8.710  0.8574  1.4815 -1.4883
   36POPC   C33 4862   1.852   3.910  10.198  0.2294 -0.0213 -0.4348
   36POPC   H3X 4863   1.862   4.005  10.256  0.7104  0.3395 -1.0956
   36POPC   H3Y 4864   1.749   3.871  10.209  0.4613 -0.3214  0.8691
   36POPC   C34 4865   1.885   3.933  10.049  0.8434 -0.1411 -0.1416
   36POPC   H4X 4866   1.848   4.035  10.025  1.1729 -0.1678 -0.7933
   36POPC   H4Y 4867   1.848   3.861   9.973  1.8762 -0.3124 -0.5054
   36POPC   C35 4868   2.039   3.944  10.020  0.4234  0.4707 -0.4720
   36POPC   H5X 4869   2.078   3.844  10.052 -0.3842 -0.2602 -1.6877
   36POPC   H5Y 4870   2.084   4.023  10.083 -0.1542  0.8845 -0.5705
   36POPC   C36 4871   2.068   3.960   9.873 -0.0870  0.4109 -0.3951
   36POPC   H6X 4872   2.044   4.066   9.852 -0.9889  0.6466  1.5821
   36POPC   H6Y 4873   2.005   3.895   9.809 -0.4345  2.6740 -2.4744
   36POPC   C37 4874   2.216   3.927   9.851  0.5265  0.1314  0.4038
   36POPC   H7X 4875   2.247   3.822   9.869 -0.2066 -0.0387  0.6646
   36POPC   H7Y 4876   2.280   3.988   9.918  1.9761  0.3619 -1.1129
   36POPC   C38 4877   2.265   3.957   9.703 -0.2726 -0.4990 -0.0288
   36POPC   H8X 4878   2.375   3.942   9.709  0.0094  1.1491 -0.6236
   36POPC   H8Y 4879   2.254   4.067   9.689  2.0587 -0.3643 -1.3512
   36POPC   C39 4880   2.186   3.877   9.595  0.0391 -0.9594  0.0321
   36POPC   H9X 4881   2.076   3.894   9.601 -0.0187 -1.2563 -0.1931
   36POPC   H9Y 4882   2.217   3.771   9.607 -2.0808 -1.5086  1.1042
   36POPC  C310 4883   2.235   3.931   9.458 -0.2488  0.0731  0.3696
   36POPC  H10X 4884   2.245   4.041   9.463  0.5599  0.1185 -1.5595
   36POPC  H10Y 4885   2.165   3.888   9.384  0.2224 -2.2603  1.1717
   36POPC  C311 4886   2.374   3.886   9.407  0.1591  0.1010  0.0448
   36POPC  H11X 4887   2.380   3.782   9.371 -2.3667  0.4792 -1.7018
   36POPC  H11Y 4888   2.451   3.898   9.486  0.7026 -3.2246  0.1583
   36POPC  C312 4889   2.417   3.972   9.288  0.0689 -0.0783  0.1017
   36POPC  H12X 4890   2.454   4.072   9.320 -0.5681  0.4917 -0.8883
   36POPC  H12Y 4891   2.334   3.975   9.215  0.3169  1.9193 -0.1600
   36POPC  C313 4892   2.542   3.911   9.219  0.1395 -0.0334  0.0024
   36POPC  H13X 4893   2.517   3.818   9.164 -1.5893 -1.5500  3.1095
   36POPC  H13Y 4894   2.610   3.881   9.302 -1.4260 -1.8119  0.6891
   36POPC  C314 4895   2.609   4.013   9.123  0.4383  0.3898 -0.4624
   36POPC  H14X 4896   2.607   4.111   9.175 -1.6394 -1.0517  2.4925
   36POPC  H14Y 4897   2.538   4.025   9.039 -0.8080  1.2026  0.6641
   36POPC  C315 4898   2.752   3.985   9.069 -0.4059 -0.2914  0.1874
   36POPC  H15X 4899   2.749   3.903   8.994 -1.5653  0.4749 -0.6393
   36POPC  H15Y 4900   2.820   3.962   9.154 -0.0480 -0.3193 -0.1051
   36POPC  C316 4901   2.793   4.108   8.985 -0.2069 -0.0219 -0.1693
   36POPC  H16X 4902   2.896   4.087   8.949 -0.7218 -1.1438 -1.0224
   36POPC  H16Y 4903   2.803   4.205   9.040  2.1613 -0.4721  0.2828
   36POPC  H16Z 4904   2.717   4.123   8.906 -0.7479  0.6029  0.4514
   37POPC     N 4905   0.198   4.747   6.459  0.1330 -0.4186 -0.0718
   37POPC   C12 4906   0.250   4.872   6.394 -1.1259  0.2008 -0.3678
   37POPC  H12A 4907   0.350   4.847   6.359 -1.2275  1.1963 -1.4196
   37POPC  H12B 4908   0.274   4.943   6.472 -0.6747 -2.9271  2.6161
   37POPC   C13 4909   0.062   4.759   6.508  0.2952  0.7887  0.5968
   37POPC  H13A 4910  -0.003   4.785   6.425 -1.1786  0.5091  1.6216
   37POPC  H13B 4911   0.021   4.671   6.555  2.0866 -0.8032 -0.6571
   37POPC  H13C 4912   0.039   4.835   6.582  0.7444  1.0411  0.4787
   37POPC   C14 4913   0.212   4.621   6.375 -0.2074  0.3502  0.3349
   37POPC  H14A 4914   0.224   4.538   6.443  0.7595  1.2494  1.2925
   37POPC  H14B 4915   0.144   4.596   6.295 -1.6042 -1.2439  1.9434
   37POPC  H14C 4916   0.309   4.615   6.327 -0.4381  1.4634 -0.3033
   37POPC   C15 4917   0.279   4.724   6.582 -0.1279  0.0137  0.1309
   37POPC  H15A 4918   0.273   4.814   6.641  1.2108  0.4144 -0.2932
   37POPC  H15B 4919   0.383   4.705   6.557 -0.2876 -0.6286 -0.0744
   37POPC  H15C 4920   0.228   4.647   6.638 -0.4410 -1.7881 -2.4475
   37POPC   C11 4921   0.171   4.943   6.281  0.5710  0.3908 -0.0329
   37POPC  H11A 4922   0.157   4.870   6.198 -2.2957  1.7533 -0.8747
   37POPC  H11B 4923   0.231   5.030   6.246  0.6957  0.6943  0.9105
   37POPC     P 4924   0.030   5.111   6.423  0.6385 -0.4792 -0.5303
   37POPC   O13 4925  -0.027   5.213   6.331  1.1261 -0.0390  0.5497
   37POPC   O14 4926   0.158   5.143   6.496  0.4418 -0.2627 -0.0585
   37POPC   O12 4927   0.046   4.978   6.342  0.5006 -0.4608 -0.3416
   37POPC   O11 4928  -0.075   5.056   6.528 -0.0498 -0.1072 -0.3145
   37POPC    C1 4929  -0.130   5.129   6.635 -0.7520  0.4955 -0.5523
   37POPC    HA 4930  -0.222   5.185   6.608  0.5866  3.0466 -0.1213
   37POPC    HB 4931  -0.068   5.213   6.673  2.0298 -1.6805 -0.0177
   37POPC    C2 4932  -0.157   5.037   6.754  0.2997 -0.1011  0.4119
   37POPC    HS 4933  -0.077   4.960   6.759  0.6207 -0.0427 -2.1843
   37POPC   O21 4934  -0.294   4.997   6.741 -0.5644  0.0070  0.5067
   37POPC   C21 4935  -0.307   4.862   6.720 -0.1236 -0.0283  0.4989
   37POPC   O22 4936  -0.223   4.775   6.714 -0.7659 -0.1852 -0.4042
   37POPC   C22 4937  -0.446   4.823   6.705  0.6505  0.3653 -0.6286
   37POPC   H2R 4938  -0.467   4.812   6.597 -2.1250 -1.8506  0.0432
   37POPC   H2S 4939  -0.514   4.898   6.752  0.4392 -0.2233  0.0120
   37POPC    C3 4940  -0.140   5.117   6.888  0.6096 -0.0130  1.0045
   37POPC    HX 4941  -0.214   5.200   6.877  0.5664  0.3077  3.1465
   37POPC    HY 4942  -0.044   5.171   6.896  0.4918  1.0373 -2.9961
   37POPC   O31 4943  -0.182   5.040   6.999  0.0817 -0.6768 -0.2795
   37POPC   C31 4944  -0.076   4.997   7.079  0.4520 -0.4866  0.0894
   37POPC   O32 4945   0.045   5.016   7.053  1.1682 -0.5745 -0.6802
   37POPC   C32 4946  -0.116   4.908   7.194 -0.0328  0.5242  0.3179
   37POPC   H2X 4947  -0.200   4.846   7.155  1.2137 -2.0746  1.4956
   37POPC   H2Y 4948  -0.151   4.975   7.275  0.2016  0.1882  0.6954
   37POPC   C23 4949  -0.470   4.682   6.767  0.0305 -0.2538  0.7069
   37POPC   H3R 4950  -0.400   4.610   6.720  0.2082 -1.3166  2.5155
   37POPC   H3S 4951  -0.575   4.652   6.746 -0.3670  0.6340  1.3967
   37POPC   C24 4952  -0.460   4.685   6.917 -0.5280 -0.2887 -0.0595
   37POPC   H4R 4953  -0.533   4.763   6.951 -0.2077  0.3068 -0.7142
   37POPC   H4S 4954  -0.359   4.723   6.945  0.0675 -1.0223 -1.1849
   37POPC   C25 4955  -0.497   4.558   6.994  1.0803 -0.2259 -0.1047
   37POPC   H5R 4956  -0.428   4.480   6.954  3.3112  0.1577  2.7078
   37POPC   H5S 4957  -0.599   4.536   6.956  1.1905 -1.3831  0.2187
   37POPC   C26 4958  -0.455   4.550   7.147  0.0981 -0.1297  0.0917
   37POPC   H6R 4959  -0.346   4.543   7.164  0.0157 -1.9712  0.0777
   37POPC   H6S 4960  -0.494   4.450   7.175 -0.3788 -0.0465 -0.2400
   37POPC   C27 4961  -0.521   4.650   7.246 -0.5402  0.3485  0.3065
   37POPC   H7R 4962  -0.631   4.636   7.250 -0.4536 -0.8493 -0.6279
   37POPC   H7S 4963  -0.500   4.755   7.219 -1.3463  0.0763 -1.5525
   37POPC   C28 4964  -0.465   4.624   7.388  0.3635  0.4049  0.1012
   37POPC   H8R 4965  -0.499   4.704   7.457 -0.9365  0.1497 -0.2018
   37POPC   H8S 4966  -0.355   4.635   7.384  0.3326  0.6251 -0.1504
   37POPC   C29 4967  -0.493   4.482   7.432  0.1354  0.3480 -0.3943
   37POPC   H91 4968  -0.439   4.399   7.384  0.8468 -0.1023  1.1225
   37POPC  C210 4969  -0.579   4.442   7.524 -0.3610  0.6402 -0.5115
   37POPC  H101 4970  -0.571   4.340   7.565  0.2460  0.7852 -0.2522
   37POPC  C211 4971  -0.670   4.530   7.605 -0.1689  0.4339  1.0846
   37POPC  H11R 4972  -0.777   4.516   7.579  0.0738  2.0117 -1.1276
   37POPC  H11S 4973  -0.651   4.637   7.578  0.7621  0.4816  1.8791
   37POPC  C212 4974  -0.667   4.520   7.756 -0.1700 -0.3235  0.0585
   37POPC  H12R 4975  -0.693   4.417   7.788  0.6341 -0.3855  0.5606
   37POPC  H12S 4976  -0.745   4.584   7.803  0.3218 -0.0899  0.5829
   37POPC  C213 4977  -0.531   4.551   7.826  0.3774 -0.6761  0.1061
   37POPC  H13R 4978  -0.516   4.660   7.809 -1.8497 -0.4768 -0.9694
   37POPC  H13S 4979  -0.458   4.495   7.763 -0.7204 -0.9735 -0.9206
   37POPC  C214 4980  -0.523   4.524   7.974 -0.2997 -0.2815 -0.5862
   37POPC  H14R 4981  -0.417   4.550   7.994 -0.5874  0.4107  0.0449
   37POPC  H14S 4982  -0.530   4.414   7.990  1.0177 -0.3392 -0.3186
   37POPC  C215 4983  -0.614   4.607   8.062  0.0327  0.3502  0.1593
   37POPC  H15R 4984  -0.713   4.604   8.013  1.5355 -1.2964 -3.0578
   37POPC  H15S 4985  -0.582   4.712   8.042 -0.5428  0.0714 -2.4986
   37POPC  C216 4986  -0.615   4.564   8.210 -0.3557  0.1973 -0.1623
   37POPC  H16R 4987  -0.673   4.641   8.266  1.7479  2.0050 -0.3551
   37POPC  H16S 4988  -0.511   4.555   8.246 -0.0664 -0.3007 -1.1121
   37POPC  C217 4989  -0.669   4.428   8.243 -0.3221 -0.5774 -0.2223
   37POPC  H17R 4990  -0.664   4.433   8.353  1.0354  1.3401 -0.3198
   37POPC  H17S 4991  -0.603   4.352   8.197 -0.3796 -0.8155  0.0899
   37POPC  C218 4992  -0.816   4.402   8.207  0.2938 -1.2171 -0.0808
   37POPC  H18R 4993  -0.853   4.309   8.256  1.1764 -0.5091  2.0945
   37POPC  H18S 4994  -0.826   4.382   8.099  0.1879 -1.3906 -0.0404
   37POPC  H18T 4995  -0.880   4.486   8.241  2.3414 -0.1711  1.3921
   37POPC   C33 4996  -0.003   4.802   7.233  0.2860 -0.0555 -0.7436
   37POPC   H3X 4997   0.097   4.846   7.253  0.0172  0.8889 -1.4192
   37POPC   H3Y 4998   0.005   4.727   7.152 -0.0621 -2.3288  1.1896
   37POPC   C34 4999  -0.035   4.740   7.374  0.0202 -0.1351 -0.0077
   37POPC   H4X 5000   0.041   4.670   7.413  0.4677 -2.4525 -4.3985
   37POPC   H4Y 5001  -0.127   4.680   7.357 -0.3054 -0.0530  1.3178
   37POPC   C35 5002  -0.061   4.840   7.493 -0.0339 -0.6610 -0.0207
   37POPC   H5X 5003  -0.098   4.778   7.577  0.8792 -0.6734  0.3874
   37POPC   H5Y 5004  -0.136   4.917   7.465  0.2459 -0.0313  0.9241
   37POPC   C36 5005   0.069   4.909   7.544  0.5596  0.2687  0.0994
   37POPC   H6X 5006   0.116   4.961   7.459 -1.2620 -1.7326 -2.2902
   37POPC   H6Y 5007   0.132   4.834   7.596 -0.7252 -1.6731 -0.9939
   37POPC   C37 5008   0.039   5.023   7.643 -0.1067  0.0177 -0.0933
   37POPC   H7X 5009  -0.002   4.967   7.730  0.9287 -1.8489 -0.7626
   37POPC   H7Y 5010  -0.024   5.104   7.601  0.9649 -0.1831 -2.2063
   37POPC   C38 5011   0.171   5.091   7.678 -0.5185 -0.4947 -0.0578
   37POPC   H8X 5012   0.216   5.133   7.585 -1.5894  2.5413  0.6754
   37POPC   H8Y 5013   0.240   5.013   7.715 -0.7326 -0.6216  0.0790
   37POPC   C39 5014   0.143   5.195   7.784 -0.9769 -0.1332 -0.0208
   37POPC   H9X 5015   0.093   5.138   7.865 -0.1634 -1.3187 -0.3222
   37POPC   H9Y 5016   0.066   5.263   7.741 -0.6676  1.2601  1.5204
   37POPC  C310 5017   0.266   5.277   7.823 -0.4459 -0.5476  0.1757
   37POPC  H10X 5018   0.315   5.310   7.729 -1.2261  1.0806  0.3116
   37POPC  H10Y 5019   0.340   5.201   7.858  0.9372  0.6886  0.0243
   37POPC  C311 5020   0.249   5.392   7.929  0.7005  0.8797  0.9259
   37POPC  H11X 5021   0.185   5.358   8.013 -2.1387 -0.3158 -1.5046
   37POPC  H11Y 5022   0.185   5.471   7.884 -0.2817 -1.6696 -2.7183
   37POPC  C312 5023   0.371   5.426   7.999 -0.8309 -0.0399  0.4462
   37POPC  H12X 5024   0.445   5.461   7.925 -1.4517 -1.1242 -0.7230
   37POPC  H12Y 5025   0.412   5.347   8.067 -1.6622  0.7045  1.8671
   37POPC  C313 5026   0.361   5.551   8.091  0.5904  0.4748  0.5397
   37POPC  H13X 5027   0.301   5.514   8.177 -1.1891 -1.0215 -1.2174
   37POPC  H13Y 5028   0.287   5.622   8.049 -0.2623  0.3866  1.8280
   37POPC  C314 5029   0.494   5.610   8.134 -0.1676 -0.3379 -0.2278
   37POPC  H14X 5030   0.558   5.667   8.063  0.5256  0.7968  1.2575
   37POPC  H14Y 5031   0.560   5.540   8.189  1.7297  3.3386  2.6537
   37POPC  C315 5032   0.474   5.725   8.232  0.0425  0.6414 -0.2350
   37POPC  H15X 5033   0.451   5.672   8.326 -1.3982  0.5373 -0.6247
   37POPC  H15Y 5034   0.389   5.790   8.202  0.0787 -0.0549 -1.9460
   37POPC  C316 5035   0.603   5.805   8.245 -0.4894 -0.0981  0.2291
   37POPC  H16X 5036   0.663   5.797   8.152 -0.9695  1.0206 -0.1860
   37POPC  H16Y 5037   0.667   5.760   8.324  0.9616  1.0156 -0.2622
   37POPC  H16Z 5038   0.590   5.914   8.261  0.8978 -0.0961  1.6110
   38POPC     N 5039   1.212   2.269   6.099 -0.4339 -0.1082  0.0272
   38POPC   C12 5040   1.202   2.135   6.165 -0.2538 -0.1164 -0.4452
   38POPC  H12A 5041   1.293   2.081   6.184 -0.5816  0.3304  2.8149
   38POPC  H12B 5042   1.143   2.065   6.106 -0.5822 -0.2631  0.0521
   38POPC   C13 5043   1.299   2.259   5.975  0.6563 -0.0272  0.0081
   38POPC  H13A 5044   1.292   2.353   5.922  0.1428 -0.5126 -0.8168
   38POPC  H13B 5045   1.400   2.239   6.005  0.8423  0.4864 -0.2554
   38POPC  H13C 5046   1.254   2.194   5.901  0.1559  0.6282 -0.2787
   38POPC   C14 5047   1.078   2.323   6.058  0.2514  0.4027 -0.5950
   38POPC  H14A 5048   1.042   2.246   5.993  1.1486 -2.2580  1.8555
   38POPC  H14B 5049   1.009   2.323   6.141  3.8183  3.1800  2.8131
   38POPC  H14C 5050   1.086   2.418   6.006  0.8620 -0.1045 -1.4540
   38POPC   C15 5051   1.266   2.368   6.195  0.3762  0.3412  0.3478
   38POPC  H15A 5052   1.183   2.372   6.265 -2.7084  3.1158 -3.0756
   38POPC  H15B 5053   1.267   2.472   6.167 -1.8764  1.6319  4.2317
   38POPC  H15C 5054   1.361   2.333   6.231  0.3731 -0.9373 -0.7886
   38POPC   C11 5055   1.140   2.134   6.311 -0.2235 -0.0554  0.0573
   38POPC  H11A 5056   1.216   2.168   6.384  0.0494 -1.2435  0.3602
   38POPC  H11B 5057   1.119   2.028   6.338  2.1767 -0.6693 -0.2694
   38POPC     P 5058   0.977   2.290   6.454  0.3051  0.2227  0.3191
   38POPC   O13 5059   0.830   2.288   6.473  0.2850  0.2376 -0.1423
   38POPC   O14 5060   1.041   2.427   6.442  0.6353  0.3779 -0.2315
   38POPC   O12 5061   1.014   2.203   6.317  0.5043  0.2169 -0.1790
   38POPC   O11 5062   1.043   2.213   6.572  0.4901  0.8187  0.0755
   38POPC    C1 5063   1.006   2.229   6.708  1.1463 -0.4898  0.5013
   38POPC    HA 5064   0.906   2.187   6.734  1.5302 -1.2148  0.8610
   38POPC    HB 5065   1.022   2.333   6.742  0.7246  0.3707 -1.7933
   38POPC    C2 5066   1.112   2.145   6.789  0.0001 -1.2012 -1.1961
   38POPC    HS 5067   1.082   2.147   6.895  0.3893 -0.0859 -1.0916
   38POPC   O21 5068   1.246   2.187   6.774  0.6206  0.3037 -0.8279
   38POPC   C21 5069   1.286   2.299   6.825 -0.0741  0.3418 -0.4801
   38POPC   O22 5070   1.219   2.382   6.886 -0.1341  0.0212  0.4041
   38POPC   C22 5071   1.440   2.291   6.813 -0.0244  0.4095  0.3558
   38POPC   H2R 5072   1.457   2.287   6.703 -0.8441 -0.3124  0.2541
   38POPC   H2S 5073   1.470   2.200   6.869 -1.2904 -1.6881 -2.1376
   38POPC    C3 5074   1.106   1.995   6.756 -0.8016 -0.3460  0.0932
   38POPC    HX 5075   1.141   1.987   6.651  2.9265 -0.4704  1.2059
   38POPC    HY 5076   1.002   1.955   6.755 -0.3881 -1.5202  1.1070
   38POPC   O31 5077   1.191   1.924   6.853  0.4139  0.1140  0.0097
   38POPC   C31 5078   1.177   1.790   6.853 -0.5507 -0.0274 -0.4059
   38POPC   O32 5079   1.105   1.724   6.777  0.0884  0.2002 -0.2773
   38POPC   C32 5080   1.254   1.734   6.978 -0.1785  0.4478 -0.4167
   38POPC   H2X 5081   1.208   1.778   7.070  2.3735 -0.0441  1.1924
   38POPC   H2Y 5082   1.363   1.755   6.975 -0.5270  3.1602  1.8014
   38POPC   C23 5083   1.500   2.412   6.887  0.3458 -0.1126 -0.2341
   38POPC   H3R 5084   1.457   2.404   6.989 -1.3121 -2.3221 -1.0159
   38POPC   H3S 5085   1.471   2.505   6.834 -1.0653  0.2324  1.0887
   38POPC   C24 5086   1.651   2.413   6.899 -0.5275  0.9165 -0.5615
   38POPC   H4R 5087   1.699   2.427   6.800  0.4598  1.5453 -0.0114
   38POPC   H4S 5088   1.694   2.324   6.949 -0.0428  0.6961 -1.3658
   38POPC   C25 5089   1.700   2.529   6.981  0.5417 -0.4550 -0.1643
   38POPC   H5R 5090   1.646   2.553   7.075  2.2022  0.6535  0.5748
   38POPC   H5S 5091   1.692   2.627   6.930 -0.2829 -0.1997  0.4428
   38POPC   C26 5092   1.849   2.506   7.029  0.3281 -0.1318  0.1880
   38POPC   H6R 5093   1.922   2.513   6.946 -0.6302  1.1051 -0.5982
   38POPC   H6S 5094   1.851   2.410   7.083 -1.0104  0.3087  1.0747
   38POPC   C27 5095   1.895   2.603   7.129 -0.2173  0.6717 -0.3373
   38POPC   H7R 5096   1.876   2.566   7.232  2.6722  2.2203  0.8975
   38POPC   H7S 5097   1.838   2.695   7.104 -1.7188 -0.3418 -0.7197
   38POPC   C28 5098   2.043   2.631   7.122 -0.2892 -0.2313  0.5220
   38POPC   H8R 5099   2.062   2.692   7.031  0.3618 -0.1798  0.6872
   38POPC   H8S 5100   2.081   2.527   7.117 -0.6877 -0.3235 -1.8595
   38POPC   C29 5101   2.099   2.708   7.237 -0.1440  0.0361  0.2907
   38POPC   H91 5102   2.104   2.818   7.230  0.4208 -0.0696 -1.9232
   38POPC  C210 5103   2.142   2.646   7.347  0.1295 -0.7071 -0.5554
   38POPC  H101 5104   2.168   2.716   7.427 -0.9309 -2.0334  1.0209
   38POPC  C211 5105   2.130   2.500   7.377 -0.3910 -0.6606  0.0225
   38POPC  H11R 5106   2.232   2.456   7.372  0.6039  1.6039 -0.9567
   38POPC  H11S 5107   2.078   2.455   7.289  1.5501  1.4593 -2.3529
   38POPC  C212 5108   2.050   2.470   7.506 -0.5388  0.3071  0.6067
   38POPC  H12R 5109   2.028   2.361   7.516 -0.3300  0.3358  1.3848
   38POPC  H12S 5110   1.954   2.525   7.507 -0.2582  0.7870  1.0896
   38POPC  C213 5111   2.116   2.530   7.635  0.2788 -0.3622  0.2499
   38POPC  H13R 5112   2.123   2.641   7.628 -3.4071 -0.0422 -0.3187
   38POPC  H13S 5113   2.219   2.490   7.638  0.0300 -0.9521  1.3071
   38POPC  C214 5114   2.030   2.502   7.756  0.1244  0.5255  0.1252
   38POPC  H14R 5115   2.091   2.545   7.838  0.9784  1.1207 -0.7917
   38POPC  H14S 5116   2.020   2.391   7.757  2.0989  0.3055 -0.4536
   38POPC  C215 5117   1.890   2.556   7.752 -0.1114  0.3895  1.1015
   38POPC  H15R 5118   1.835   2.517   7.665 -1.9324  2.7915  1.0549
   38POPC  H15S 5119   1.902   2.665   7.732 -0.6779  0.6862  2.2718
   38POPC  C216 5120   1.815   2.531   7.880 -0.2701 -0.5986 -0.5663
   38POPC  H16R 5121   1.727   2.599   7.889  1.0197  0.9787  0.8010
   38POPC  H16S 5122   1.884   2.562   7.961  0.2036 -0.8571 -0.8640
   38POPC  C217 5123   1.771   2.386   7.914 -0.2423 -0.0507 -0.1406
   38POPC  H17R 5124   1.721   2.389   8.013 -2.2724 -0.8762 -1.0714
   38POPC  H17S 5125   1.866   2.328   7.913  1.1298  1.5858 -5.8551
   38POPC  C218 5126   1.677   2.316   7.818 -1.0926  0.2425 -0.4932
   38POPC  H18R 5127   1.586   2.379   7.803  0.1700  2.6472  1.1904
   38POPC  H18S 5128   1.652   2.214   7.855  0.3104  1.3193  4.0623
   38POPC  H18T 5129   1.734   2.303   7.724  2.8634 -0.5998  1.8049
   38POPC   C33 5130   1.241   1.582   6.982 -0.7839 -0.6654 -0.3290
   38POPC   H3X 5131   1.317   1.544   7.054  2.1269 -1.0382 -3.3547
   38POPC   H3Y 5132   1.271   1.544   6.882 -2.1900 -3.2654  0.1414
   38POPC   C34 5133   1.108   1.521   7.008 -0.1441  0.2379 -1.3429
   38POPC   H4X 5134   1.119   1.416   6.974  1.7725 -0.4471  1.1369
   38POPC   H4Y 5135   1.026   1.572   6.953 -1.2644 -1.7042 -1.5794
   38POPC   C35 5136   1.066   1.519   7.159 -1.4270  0.4644  0.0140
   38POPC   H5X 5137   1.062   1.622   7.202 -2.1300 -0.0462  1.2296
   38POPC   H5Y 5138   1.142   1.452   7.205 -1.2578  0.4261 -0.3165
   38POPC   C36 5139   0.926   1.455   7.175 -0.1003 -0.5895  0.7048
   38POPC   H6X 5140   0.930   1.345   7.163  1.5054 -0.4095 -0.8519
   38POPC   H6Y 5141   0.861   1.504   7.100 -1.9918 -1.7414  1.5240
   38POPC   C37 5142   0.870   1.487   7.318 -0.5561 -0.2362  0.2860
   38POPC   H7X 5143   0.760   1.472   7.313 -0.3623 -2.3275  1.0813
   38POPC   H7Y 5144   0.889   1.594   7.340  4.2161 -0.9791  0.7227
   38POPC   C38 5145   0.917   1.407   7.429  0.9291 -0.7027  0.4725
   38POPC   H8X 5146   1.026   1.426   7.440  1.2889 -1.2868 -1.6772
   38POPC   H8Y 5147   0.902   1.298   7.425  2.3694 -0.9254  0.4401
   38POPC   C39 5148   0.866   1.467   7.561  0.4257  0.7783  0.3000
   38POPC   H9X 5149   0.760   1.441   7.579  0.5571 -0.8507 -0.9919
   38POPC   H9Y 5150   0.874   1.578   7.567 -1.6439  1.0143 -0.4934
   38POPC  C310 5151   0.934   1.394   7.678  0.4079  0.0724 -0.3562
   38POPC  H10X 5152   1.039   1.430   7.680  0.4793  0.0412 -2.1661
   38POPC  H10Y 5153   0.915   1.295   7.631 -0.8517 -1.0041  2.2109
   38POPC  C311 5154   0.854   1.398   7.804 -0.0551 -1.4530 -0.3110
   38POPC  H11X 5155   0.884   1.323   7.879  1.0656  1.2572  2.1293
   38POPC  H11Y 5156   0.748   1.387   7.773 -0.3792  1.2626 -0.3662
   38POPC  C312 5157   0.860   1.538   7.870  0.0185  0.3277  0.3482
   38POPC  H12X 5158   0.813   1.611   7.801 -2.2840 -1.0163  0.3848
   38POPC  H12Y 5159   0.969   1.559   7.875  0.7891 -2.7631 -0.9815
   38POPC  C313 5160   0.788   1.547   8.007  0.2502  0.1306  0.1436
   38POPC  H13X 5161   0.829   1.459   8.061  0.9910 -0.1469 -0.8469
   38POPC  H13Y 5162   0.679   1.539   7.987  0.8663 -0.1273 -4.0435
   38POPC  C314 5163   0.821   1.670   8.097 -0.3599 -0.4503 -0.6526
   38POPC  H14X 5164   0.777   1.764   8.057 -0.4093  0.2310  0.9172
   38POPC  H14Y 5165   0.931   1.661   8.086 -0.0268  1.0230  1.1244
   38POPC  C315 5166   0.769   1.665   8.240  0.2675  0.2228  0.3837
   38POPC  H15X 5167   0.769   1.766   8.288 -0.6285  1.1742 -1.4865
   38POPC  H15Y 5168   0.831   1.593   8.297 -1.4072  0.4158  2.5501
   38POPC  C316 5169   0.618   1.622   8.256 -0.6876 -0.5831 -0.0651
   38POPC  H16X 5170   0.557   1.709   8.223  1.7780  0.5101 -2.0361
   38POPC  H16Y 5171   0.601   1.579   8.357 -0.1206 -0.6985 -0.0147
   38POPC  H16Z 5172   0.589   1.539   8.189 -0.1751 -1.0356  0.2669
   39POPC     N 5173   1.719   6.304   5.982 -0.4420 -0.6747 -0.3601
   39POPC   C12 5174   1.789   6.321   6.119 -0.3669 -0.0475 -0.3982
   39POPC  H12A 5175   1.859   6.403   6.115  1.9004 -1.8890 -0.8155
   39POPC  H12B 5176   1.850   6.233   6.136 -0.4672  0.0487  0.5381
   39POPC   C13 5177   1.662   6.164   5.980  0.2247 -1.0080 -0.5646
   39POPC  H13A 5178   1.625   6.139   5.882 -1.9474 -1.1755  0.2359
   39POPC  H13B 5179   1.738   6.093   6.011  0.1633 -0.6602  0.4192
   39POPC  H13C 5180   1.575   6.150   6.043  0.2437  1.0577 -0.0321
   39POPC   C14 5181   1.599   6.401   5.976 -0.1518  0.1972  0.1795
   39POPC  H14A 5182   1.534   6.400   6.062  0.8021 -2.2284  0.9488
   39POPC  H14B 5183   1.636   6.503   5.971  2.6228 -0.7164  0.5045
   39POPC  H14C 5184   1.532   6.380   5.894 -2.7264  0.9016  1.9659
   39POPC   C15 5185   1.811   6.325   5.866 -0.2262 -0.3149  0.3781
   39POPC  H15A 5186   1.767   6.289   5.775 -1.3277  0.9186  0.3889
   39POPC  H15B 5187   1.899   6.264   5.882  0.9931  0.9302 -1.2283
   39POPC  H15C 5188   1.853   6.424   5.854 -0.9732 -0.1062 -0.5932
   39POPC   C11 5189   1.699   6.333   6.240 -0.6600  0.8320 -0.4816
   39POPC  H11A 5190   1.740   6.301   6.338  0.8274  2.4068 -0.5456
   39POPC  H11B 5191   1.613   6.263   6.228 -1.5333  1.6558  0.6733
   39POPC     P 5192   1.734   6.586   6.286  0.5532 -0.1997 -0.3711
   39POPC   O13 5193   1.647   6.708   6.305  0.2481  0.7174 -0.6561
   39POPC   O14 5194   1.849   6.592   6.191  0.3878 -0.2796  1.0665
   39POPC   O12 5195   1.641   6.460   6.255 -0.2141  0.5400 -0.0238
   39POPC   O11 5196   1.790   6.547   6.425  0.1748  0.2193 -0.4055
   39POPC    C1 5197   1.704   6.526   6.541  0.0149  0.0783  0.3562
   39POPC    HA 5198   1.724   6.423   6.577  0.4112 -0.8798 -2.4213
   39POPC    HB 5199   1.594   6.529   6.527 -0.2419 -1.1486  1.8464
   39POPC    C2 5200   1.734   6.631   6.652 -0.4244  0.1478  0.9451
   39POPC    HS 5201   1.731   6.731   6.603  0.3285 -0.5151 -0.5314
   39POPC   O21 5202   1.873   6.600   6.700  0.3801  0.1046  0.2794
   39POPC   C21 5203   1.951   6.707   6.728  0.5463 -0.2360  0.0990
   39POPC   O22 5204   1.908   6.822   6.738 -0.0792 -0.2884 -0.0047
   39POPC   C22 5205   2.095   6.656   6.740 -0.3703 -0.4968 -0.8590
   39POPC   H2R 5206   2.134   6.686   6.641 -2.4557  1.3179 -1.2129
   39POPC   H2S 5207   2.082   6.546   6.748 -0.7155 -0.3838  0.3259
   39POPC    C3 5208   1.635   6.640   6.766  0.5058  0.2052 -0.0719
   39POPC    HX 5209   1.664   6.712   6.846  2.3729 -0.8978  0.3285
   39POPC    HY 5210   1.636   6.543   6.821  1.4251 -1.1729 -2.3516
   39POPC   O31 5211   1.504   6.662   6.716 -0.0370  0.1070 -0.2744
   39POPC   C31 5212   1.468   6.792   6.688  0.2866  1.0636  0.2582
   39POPC   O32 5213   1.547   6.884   6.701  0.3165  0.0633  0.2259
   39POPC   C32 5214   1.321   6.795   6.652  0.2603 -0.6689  0.2294
   39POPC   H2X 5215   1.304   6.858   6.562 -1.6230  3.5112  3.1550
   39POPC   H2Y 5216   1.276   6.694   6.639  0.7724 -0.8780  0.0651
   39POPC   C23 5217   2.168   6.716   6.864 -1.1232  0.1379 -0.0392
   39POPC   H3R 5218   2.142   6.824   6.863 -1.5711  0.1117  2.2961
   39POPC   H3S 5219   2.279   6.711   6.859 -1.1191 -2.0134  0.9606
   39POPC   C24 5220   2.130   6.660   7.002 -0.0679  0.6685  0.0971
   39POPC   H4R 5221   2.132   6.550   6.986 -2.2682  0.4372  1.0329
   39POPC   H4S 5222   2.021   6.684   7.007 -0.0589  1.8978 -3.0543
   39POPC   C25 5223   2.208   6.701   7.130  0.1096  0.4119 -0.4552
   39POPC   H5R 5224   2.235   6.809   7.134 -0.0867  0.4065  1.9298
   39POPC   H5S 5225   2.307   6.651   7.138  1.2828  2.8117  1.2654
   39POPC   C26 5226   2.129   6.664   7.255 -0.0637  0.9849 -0.1219
   39POPC   H6R 5227   2.128   6.553   7.248 -0.1134  1.0774 -3.5785
   39POPC   H6S 5228   2.027   6.704   7.239 -0.1991  1.2577  1.2919
   39POPC   C27 5229   2.195   6.712   7.382  0.4029 -0.5064  0.4289
   39POPC   H7R 5230   2.288   6.768   7.359  1.3613 -2.3128 -0.3080
   39POPC   H7S 5231   2.223   6.614   7.427 -0.2311 -0.1192  1.7123
   39POPC   C28 5232   2.104   6.785   7.482 -0.1596 -0.2073 -0.2133
   39POPC   H8R 5233   2.023   6.710   7.489  1.8457 -2.4273  0.5321
   39POPC   H8S 5234   2.070   6.878   7.431  0.0388 -0.5423 -0.9737
   39POPC   C29 5235   2.168   6.831   7.614  0.5664 -0.1372  0.4579
   39POPC   H91 5236   2.218   6.928   7.615 -0.0579  0.2310 -0.8661
   39POPC  C210 5237   2.162   6.768   7.735  0.3898 -0.2218  0.4313
   39POPC  H101 5238   2.214   6.820   7.817  0.0892 -0.4880  0.7930
   39POPC  C211 5239   2.091   6.638   7.773 -0.3433  0.2416  0.3459
   39POPC  H11R 5240   2.162   6.574   7.831  2.8544  1.8720 -1.4858
   39POPC  H11S 5241   2.067   6.568   7.691  1.6472 -0.6188  0.4302
   39POPC  C212 5242   1.971   6.672   7.854  0.4258  0.1598 -0.1791
   39POPC  H12R 5243   1.913   6.583   7.888  1.9296 -0.4163  0.9923
   39POPC  H12S 5244   1.907   6.733   7.787  0.8864 -1.0494 -1.7936
   39POPC  C213 5245   2.010   6.740   7.986  0.5185  0.0130 -0.4294
   39POPC  H13R 5246   2.074   6.829   7.972  0.6182 -0.0915 -0.6511
   39POPC  H13S 5247   2.061   6.665   8.051 -2.2294 -1.8610 -0.2367
   39POPC  C214 5248   1.884   6.773   8.060  0.1204 -0.3272  1.3140
   39POPC  H14R 5249   1.829   6.683   8.095  0.4097  0.2716  3.5080
   39POPC  H14S 5250   1.821   6.825   7.985  1.6544  1.6016  1.2782
   39POPC  C215 5251   1.913   6.861   8.181  0.2816  0.2955  0.8438
   39POPC  H15R 5252   1.979   6.941   8.140  0.6502 -0.4613 -0.0747
   39POPC  H15S 5253   1.960   6.800   8.262 -0.8723 -0.0387  1.2851
   39POPC  C216 5254   1.787   6.931   8.232  0.1352 -0.2236 -0.3188
   39POPC  H16R 5255   1.735   6.869   8.308 -1.1966 -1.0919 -1.8760
   39POPC  H16S 5256   1.721   6.949   8.144 -0.2456 -1.2666 -0.2706
   39POPC  C217 5257   1.815   7.072   8.296 -0.2358  0.1814  0.4177
   39POPC  H17R 5258   1.879   7.064   8.386  0.4552  2.3160  0.1787
   39POPC  H17S 5259   1.721   7.112   8.339 -1.2919 -2.4040  0.7242
   39POPC  C218 5260   1.881   7.177   8.204 -0.0509 -0.0758 -0.9229
   39POPC  H18R 5261   1.806   7.195   8.124 -0.1358 -0.9871 -1.0558
   39POPC  H18S 5262   1.982   7.153   8.166  0.1037 -1.2000  0.1329
   39POPC  H18T 5263   1.899   7.272   8.260  1.5631 -0.8116 -0.1386
   39POPC   C33 5264   1.253   6.873   6.763  0.4814 -0.2365  0.2371
   39POPC   H3X 5265   1.161   6.916   6.720 -0.1509 -0.2621  1.5181
   39POPC   H3Y 5266   1.315   6.955   6.805  0.9842 -0.2887 -0.3862
   39POPC   C34 5267   1.232   6.782   6.885  0.2458  0.2099  0.1284
   39POPC   H4X 5268   1.275   6.681   6.866 -1.5899 -0.6325  0.2670
   39POPC   H4Y 5269   1.125   6.756   6.898  0.1687  0.2774 -0.3792
   39POPC   C35 5270   1.306   6.843   7.007 -0.2423  0.1507  0.4162
   39POPC   H5X 5271   1.256   6.941   7.026  0.8999  0.8948 -0.2639
   39POPC   H5Y 5272   1.415   6.855   6.986  0.0416 -1.6873  0.6976
   39POPC   C36 5273   1.294   6.763   7.134 -0.0773  0.0881 -0.1187
   39POPC   H6X 5274   1.371   6.785   7.211  0.3194 -4.1105  0.9415
   39POPC   H6Y 5275   1.317   6.656   7.116  1.8076  0.3171  0.7501
   39POPC   C37 5276   1.157   6.769   7.200 -0.0709  0.0519  0.1506
   39POPC   H7X 5277   1.084   6.744   7.120  0.8732 -0.4192 -0.5886
   39POPC   H7Y 5278   1.123   6.872   7.224 -1.7517 -0.5235  0.3896
   39POPC   C38 5279   1.151   6.672   7.318 -0.2109  0.5365 -0.2100
   39POPC   H8X 5280   1.231   6.691   7.392  0.0627 -2.0155  0.2256
   39POPC   H8Y 5281   1.158   6.572   7.270 -0.8461  1.1597 -1.6880
   39POPC   C39 5282   1.007   6.675   7.382  0.6151 -0.0193  0.0991
   39POPC   H9X 5283   0.938   6.663   7.296  1.5679  0.9431 -0.8338
   39POPC   H9Y 5284   0.998   6.779   7.420 -1.7294  0.1123 -0.6797
   39POPC  C310 5285   0.980   6.574   7.492  0.0851 -0.2684  0.5236
   39POPC  H10X 5286   0.986   6.468   7.459 -0.5260  0.9683 -4.3224
   39POPC  H10Y 5287   0.871   6.585   7.509 -0.1436 -0.9227 -0.4850
   39POPC  C311 5288   1.067   6.583   7.629  0.2731  0.3927  0.9319
   39POPC  H11X 5289   1.047   6.690   7.650  0.9127  0.5385  0.8260
   39POPC  H11Y 5290   1.175   6.574   7.606 -0.2154 -1.5001 -0.9650
   39POPC  C312 5291   1.014   6.487   7.736  0.4046  0.1994  0.4152
   39POPC  H12X 5292   1.043   6.383   7.709 -3.3821 -0.7622 -0.6218
   39POPC  H12Y 5293   0.903   6.491   7.729  0.5350  2.0821 -2.4772
   39POPC  C313 5294   1.060   6.520   7.875  1.4564  0.5395 -0.1340
   39POPC  H13X 5295   1.041   6.619   7.921 -0.9505 -0.3881  1.0341
   39POPC  H13Y 5296   1.169   6.500   7.884  1.2131 -0.0744  2.1619
   39POPC  C314 5297   0.997   6.409   7.975  0.5041  0.4397 -0.2017
   39POPC  H14X 5298   0.999   6.312   7.920  0.5070  2.1784 -3.4831
   39POPC  H14Y 5299   0.890   6.431   7.993  0.1837  1.0823 -2.6545
   39POPC  C315 5300   1.082   6.391   8.109 -0.1530  0.6456  0.2086
   39POPC  H15X 5301   1.191   6.376   8.094 -0.6876 -2.1434 -1.7794
   39POPC  H15Y 5302   1.041   6.297   8.153 -0.3027  0.5706 -0.0863
   39POPC  C316 5303   1.067   6.511   8.197  0.0878 -0.5525  0.5440
   39POPC  H16X 5304   0.961   6.544   8.197  0.7741  2.2644 -2.6838
   39POPC  H16Y 5305   1.114   6.604   8.156  0.7374 -0.9625  0.3356
   39POPC  H16Z 5306   1.110   6.508   8.299 -0.0041 -1.4429  0.5690
   40POPC     N 5307   2.483   2.931   6.356 -0.3832  0.4678  0.0474
   40POPC   C12 5308   2.532   3.058   6.426 -0.1943 -0.0492 -0.4423
   40POPC  H12A 5309   2.450   3.126   6.443 -0.5971 -0.3093 -1.2746
   40POPC  H12B 5310   2.597   3.109   6.358  1.8370 -1.5626  0.2809
   40POPC   C13 5311   2.602   2.857   6.300 -0.0860  0.1205  0.3666
   40POPC  H13A 5312   2.570   2.763   6.259  0.0068  0.4471 -0.4812
   40POPC  H13B 5313   2.646   2.921   6.225 -1.5404  1.2342  0.4314
   40POPC  H13C 5314   2.682   2.833   6.369 -0.7523 -0.6215  0.8948
   40POPC   C14 5315   2.412   2.839   6.454 -0.4227 -0.0995  0.0780
   40POPC  H14A 5316   2.402   2.735   6.425  0.2433 -1.0545  2.9509
   40POPC  H14B 5317   2.446   2.851   6.555  0.2409 -0.3013 -0.1158
   40POPC  H14C 5318   2.311   2.872   6.476 -0.4951 -0.8423  0.9087
   40POPC   C15 5319   2.402   2.958   6.236  0.3428 -0.6181  0.5567
   40POPC  H15A 5320   2.359   2.868   6.194  1.5992 -0.9529 -0.0650
   40POPC  H15B 5321   2.449   3.010   6.153  0.3900 -1.8696 -0.2318
   40POPC  H15C 5322   2.318   3.021   6.263 -0.0764 -0.1353 -1.6550
   40POPC   C11 5323   2.623   3.038   6.551  0.0022 -0.7423 -0.4512
   40POPC  H11A 5324   2.591   2.964   6.627  1.3914  1.6161  2.6659
   40POPC  H11B 5325   2.630   3.139   6.598  1.0703  0.2546 -2.5720
   40POPC     P 5326   2.858   3.093   6.442 -0.5725  0.0173 -0.4605
   40POPC   O13 5327   2.789   3.183   6.348  0.3605  0.8046 -0.0771
   40POPC   O14 5328   2.967   3.004   6.387  0.0188 -0.0216 -0.2079
   40POPC   O12 5329   2.754   2.997   6.508  0.1652  0.3495 -0.1999
   40POPC   O11 5330   2.914   3.178   6.569 -0.0272  0.2634 -0.3302
   40POPC    C1 5331   3.006   3.122   6.661  0.2398  0.0939  0.1733
   40POPC    HA 5332   3.025   3.197   6.741  2.2172  0.3127 -0.4495
   40POPC    HB 5333   3.105   3.093   6.619  0.2735  1.0616 -0.4517
   40POPC    C2 5334   2.959   2.995   6.738  1.2336  0.5076 -0.6576
   40POPC    HS 5335   2.946   2.914   6.663  1.3485 -0.8617  0.7751
   40POPC   O21 5336   2.830   3.026   6.808 -0.4787 -0.2475 -0.0557
   40POPC   C21 5337   2.766   2.919   6.828  0.0512  0.3393  0.2340
   40POPC   O22 5338   2.782   2.807   6.783  0.5301  0.1296  0.0685
   40POPC   C22 5339   2.641   2.957   6.909 -0.1702 -0.4724  0.2496
   40POPC   H2R 5340   2.552   2.963   6.842  1.1881  3.8981 -1.5015
   40POPC   H2S 5341   2.660   3.061   6.940  2.7425 -0.9023  0.1201
   40POPC    C3 5342   3.068   2.949   6.834  0.7525 -0.4140  0.7631
   40POPC    HX 5343   3.150   2.923   6.764  1.4244  0.6498  1.1332
   40POPC    HY 5344   3.035   2.856   6.885  1.1920 -2.4998 -2.4137
   40POPC   O31 5345   3.116   3.051   6.931  0.0573  0.0993 -0.2037
   40POPC   C31 5346   3.136   3.012   7.063  0.4604  0.0044  0.2583
   40POPC   O32 5347   3.112   2.897   7.098 -0.4027 -0.9040 -0.5511
   40POPC   C32 5348   3.189   3.129   7.149  0.3841  1.0860  0.5333
   40POPC   H2X 5349   3.123   3.212   7.117  1.8259  1.8998 -0.4263
   40POPC   H2Y 5350   3.290   3.146   7.105  0.5626 -0.4086  0.3017
   40POPC   C23 5351   2.632   2.858   7.026 -0.0697 -0.1005  0.1072
   40POPC   H3R 5352   2.629   2.758   6.979  1.4898  0.5020 -1.3741
   40POPC   H3S 5353   2.536   2.870   7.080 -0.3951  0.8910 -0.6578
   40POPC   C24 5354   2.746   2.865   7.126  0.2206 -0.4497 -0.5970
   40POPC   H4R 5355   2.836   2.828   7.073 -0.9476 -1.5091 -1.9468
   40POPC   H4S 5356   2.729   2.797   7.212  0.0478 -0.4377 -0.6205
   40POPC   C25 5357   2.766   3.006   7.193 -0.8330  0.8774 -0.3341
   40POPC   H5R 5358   2.662   3.041   7.211 -1.0561 -0.0792  0.3160
   40POPC   H5S 5359   2.813   3.079   7.123  0.6261  0.3994  0.1175
   40POPC   C26 5360   2.843   3.013   7.323  0.3359  0.3114  0.2300
   40POPC   H6R 5361   2.889   3.113   7.338 -0.6307  0.7817  0.1089
   40POPC   H6S 5362   2.924   2.937   7.317 -0.9672 -1.0204 -4.3103
   40POPC   C27 5363   2.756   2.986   7.452  0.1764 -0.2071  0.1046
   40POPC   H7R 5364   2.719   2.882   7.445 -0.8794  0.1906 -0.6566
   40POPC   H7S 5365   2.656   3.036   7.458  0.2147 -0.2927  2.1294
   40POPC   C28 5366   2.818   3.010   7.590 -0.1218 -0.2272  0.0114
   40POPC   H8R 5367   2.742   3.001   7.671  1.2906 -0.3397  1.3667
   40POPC   H8S 5368   2.851   3.116   7.592 -0.1517 -0.1994 -0.6922
   40POPC   C29 5369   2.934   2.925   7.632  1.2006  0.0157 -0.2137
   40POPC   H91 5370   3.021   2.933   7.565  0.7244  0.5953 -0.7796
   40POPC  C210 5371   2.950   2.869   7.756 -0.3591 -0.4178  0.3656
   40POPC  H101 5372   3.045   2.816   7.768 -0.3166 -0.4098  0.0910
   40POPC  C211 5373   2.851   2.865   7.877  0.2565 -0.5768 -0.3617
   40POPC  H11R 5374   2.851   2.761   7.916  0.2553 -0.3316  0.3000
   40POPC  H11S 5375   2.746   2.874   7.842  0.8676 -2.1494 -2.8849
   40POPC  C212 5376   2.878   2.960   7.998 -0.2082  0.6464 -0.6544
   40POPC  H12R 5377   2.786   2.952   8.059  0.4585  1.6168  0.5111
   40POPC  H12S 5378   2.901   3.059   7.953 -0.6820  1.1954  0.2814
   40POPC  C213 5379   2.995   2.916   8.080  0.5742 -0.0563  0.2696
   40POPC  H13R 5380   3.087   2.930   8.019  1.2668 -1.7809  0.8713
   40POPC  H13S 5381   2.986   2.807   8.098  2.0750 -0.5102 -1.4853
   40POPC  C214 5382   3.013   2.994   8.205  0.0410  0.3294 -0.1142
   40POPC  H14R 5383   3.002   3.102   8.182  3.3862  0.8854  0.3728
   40POPC  H14S 5384   3.115   2.978   8.245 -0.0332  1.3288  0.5073
   40POPC  C215 5385   2.911   2.954   8.316 -0.4173  0.2448  0.1922
   40POPC  H15R 5386   2.888   2.848   8.290 -0.9354  0.9601 -2.5508
   40POPC  H15S 5387   2.817   3.011   8.300 -1.2527 -0.3251  2.5449
   40POPC  C216 5388   2.990   2.959   8.452 -1.0253  0.4512  0.1777
   40POPC  H16R 5389   3.051   3.050   8.472 -1.9193  0.5416  3.0120
   40POPC  H16S 5390   3.052   2.868   8.446 -1.2391  0.3881 -1.4219
   40POPC  C217 5391   2.909   2.960   8.581  0.6043  0.4274  0.5402
   40POPC  H17R 5392   2.841   3.049   8.577 -0.4955 -0.3756  0.8326
   40POPC  H17S 5393   2.965   2.988   8.673  0.7783  0.5506  0.3972
   40POPC  C218 5394   2.813   2.841   8.609 -0.6721 -0.3469 -0.2090
   40POPC  H18R 5395   2.822   2.829   8.719  0.5719 -0.7467 -0.3289
   40POPC  H18S 5396   2.860   2.751   8.563  1.1179 -0.1786  1.1671
   40POPC  H18T 5397   2.707   2.861   8.584 -1.0761 -0.3048  1.4525
   40POPC   C33 5398   3.210   3.093   7.291 -0.1223 -0.2041 -0.5599
   40POPC   H3X 5399   3.307   3.041   7.300 -0.2844 -0.1820  2.0250
   40POPC   H3Y 5400   3.131   3.026   7.331 -2.1318  1.8182 -0.8968
   40POPC   C34 5401   3.209   3.216   7.393  0.3011 -0.2456 -0.0514
   40POPC   H4X 5402   3.116   3.268   7.362 -0.3107  0.5679  2.8394
   40POPC   H4Y 5403   3.285   3.292   7.365 -0.5433  0.0330 -1.7163
   40POPC   C35 5404   3.201   3.170   7.533  0.3546  0.0547 -0.4276
   40POPC   H5X 5405   3.108   3.116   7.560  1.1785 -0.7944  0.7928
   40POPC   H5Y 5406   3.204   3.259   7.599 -1.5273 -0.8652  0.9950
   40POPC   C36 5407   3.320   3.079   7.573  0.2920 -0.4716  0.2230
   40POPC   H6X 5408   3.414   3.124   7.534  0.3889 -1.4838 -0.7744
   40POPC   H6Y 5409   3.305   2.978   7.528 -2.1646 -0.3909  0.6980
   40POPC   C37 5410   3.322   3.056   7.718 -0.5209 -0.8668  0.1116
   40POPC   H7X 5411   3.219   3.027   7.750 -0.6718  0.1725  0.6356
   40POPC   H7Y 5412   3.339   3.152   7.771  0.6318 -0.9707 -0.0566
   40POPC   C38 5413   3.429   2.967   7.775 -0.3324  0.8177  0.1289
   40POPC   H8X 5414   3.532   2.991   7.739  0.0381 -1.4588 -0.4384
   40POPC   H8Y 5415   3.405   2.869   7.731  1.9585 -0.4659  1.5328
   40POPC   C39 5416   3.437   2.953   7.925  0.0673  0.5298 -0.0513
   40POPC   H9X 5417   3.337   2.955   7.974  0.2190  2.3716  0.2434
   40POPC   H9Y 5418   3.489   3.047   7.953  2.6860 -0.7476 -0.3723
   40POPC  C310 5419   3.508   2.831   7.960  0.1235  0.0619  0.6427
   40POPC  H10X 5420   3.585   2.807   7.884 -0.9447  0.3353 -0.5674
   40POPC  H10Y 5421   3.440   2.744   7.955  0.7575 -0.3914 -0.2213
   40POPC  C311 5422   3.578   2.829   8.094 -0.0844 -0.3387 -0.8798
   40POPC  H11X 5423   3.681   2.871   8.086 -0.6710  1.0536 -1.4043
   40POPC  H11Y 5424   3.585   2.726   8.136 -0.6623  0.0890  0.3058
   40POPC  C312 5425   3.522   2.919   8.205 -0.6819 -0.1864 -0.0132
   40POPC  H12X 5426   3.415   2.902   8.231 -0.7916 -0.7280 -0.7657
   40POPC  H12Y 5427   3.516   3.024   8.168 -2.4406 -0.1742  0.2218
   40POPC  C313 5428   3.603   2.919   8.337 -0.3376  0.6462  0.3596
   40POPC  H13X 5429   3.706   2.952   8.311 -0.5193  1.6101  0.8112
   40POPC  H13Y 5430   3.594   2.811   8.362  0.0010  0.4859 -0.1800
   40POPC  C314 5431   3.553   2.998   8.456 -0.4041  0.5001 -0.6865
   40POPC  H14X 5432   3.545   3.107   8.436  2.2284  0.7755 -0.6271
   40POPC  H14Y 5433   3.615   2.996   8.548  0.8160  0.9213 -1.4737
   40POPC  C315 5434   3.412   2.943   8.496 -0.6083  0.1651  0.2817
   40POPC  H15X 5435   3.404   2.833   8.482  1.7884 -0.0179 -0.0934
   40POPC  H15Y 5436   3.339   2.991   8.427 -1.8616  0.6610  1.8782
   40POPC  C316 5437   3.373   2.972   8.638 -0.0435  0.4550 -0.7402
   40POPC  H16X 5438   3.401   3.075   8.669 -4.3362  1.6710 -0.2258
   40POPC  H16Y 5439   3.426   2.907   8.710 -0.5501  0.3917 -0.4213
   40POPC  H16Z 5440   3.262   2.962   8.644 -0.0747  1.5496  1.2832
   41CHL1    C3 5441   1.473   3.485  10.224 -0.1835 -1.0380  0.0860
   41CHL1    H3 5442   1.490   3.380  10.190 -0.1534 -1.2546  0.7617
   41CHL1    O3 5443   1.452   3.475  10.361 -0.2063 -0.1253 -0.1396
   41CHL1   H3' 5444   1.523   3.413  10.382  0.1894  0.0831 -0.8343
   41CHL1    C4 5445   1.596   3.581  10.196  0.0940 -0.0072  0.4827
   41CHL1   H4A 5446   1.576   3.683  10.236  0.2152  2.0788 -4.1118
   41CHL1   H4B 5447   1.685   3.538  10.247 -0.6296  0.4165  2.1630
   41CHL1    C5 5448   1.620   3.585  10.045  0.3839 -0.3547 -0.4909
   41CHL1    C6 5449   1.736   3.553  10.003 -0.5717  0.2048 -0.3225
   41CHL1    H6 5450   1.821   3.523  10.066  0.6052  0.2204 -1.8573
   41CHL1    C7 5451   1.779   3.560   9.857  0.3767  0.1685 -1.2539
   41CHL1   H7A 5452   1.878   3.610   9.860  0.3014  0.2606  0.2958
   41CHL1   H7B 5453   1.799   3.462   9.808  1.8206  0.5587 -1.4703
   41CHL1    C8 5454   1.677   3.651   9.776  0.1142  0.4436  0.4332
   41CHL1    H8 5455   1.692   3.756   9.811 -3.1236  0.8315  1.0150
   41CHL1   C14 5456   1.698   3.633   9.630  0.9084  0.8848  0.0112
   41CHL1   H14 5457   1.687   3.525   9.608 -0.1499  1.4384 -2.4446
   41CHL1   C15 5458   1.833   3.662   9.565  0.0699 -0.6383  0.4541
   41CHL1  H15A 5459   1.885   3.748   9.613  1.3214 -1.2112  0.1593
   41CHL1  H15B 5460   1.896   3.572   9.562  1.3093  0.2193  0.2030
   41CHL1   C16 5461   1.810   3.671   9.409  0.2421  0.2558  0.0206
   41CHL1  H16A 5462   1.834   3.777   9.382 -3.1323  1.2982  0.7234
   41CHL1  H16B 5463   1.868   3.606   9.340 -0.5677 -1.8165  1.2308
   41CHL1   C17 5464   1.657   3.655   9.393  0.5925  0.2344 -0.5485
   41CHL1   H17 5465   1.633   3.547   9.397 -1.4343  0.6859  1.3076
   41CHL1   C13 5466   1.599   3.703   9.530  0.0252 -0.2332  0.6207
   41CHL1   C18 5467   1.602   3.857   9.540 -0.6579  0.3225  0.3487
   41CHL1  H18A 5468   1.707   3.893   9.544 -0.1842 -1.0419  3.9206
   41CHL1  H18B 5469   1.549   3.903   9.454  0.8307 -0.7356 -1.2020
   41CHL1  H18C 5470   1.554   3.893   9.634 -0.6083  0.9491  0.1381
   41CHL1   C12 5471   1.456   3.655   9.556 -0.4045  0.0115  0.0912
   41CHL1  H12A 5472   1.376   3.709   9.502 -0.0022  0.4679 -0.0512
   41CHL1  H12B 5473   1.449   3.544   9.546 -1.5764 -0.0161  1.0221
   41CHL1   C11 5474   1.421   3.674   9.712  0.6268 -0.1691 -0.3100
   41CHL1  H11A 5475   1.406   3.781   9.739  0.6992 -0.5731  1.4734
   41CHL1  H11B 5476   1.329   3.621   9.745  0.4533 -0.9079 -1.9018
   41CHL1    C9 5477   1.530   3.611   9.813 -0.1400  0.1381  0.7989
   41CHL1    H9 5478   1.525   3.501   9.797 -1.1092  0.3304 -0.3597
   41CHL1   C10 5479   1.504   3.629   9.964  0.6073 -0.4870  0.5883
   41CHL1   C19 5480   1.475   3.776   9.997  0.2454  0.1281  1.2873
   41CHL1  H19A 5481   1.484   3.817  10.100  0.6883  2.1244  0.4966
   41CHL1  H19B 5482   1.533   3.845   9.931  0.3595 -0.3957  0.8346
   41CHL1  H19C 5483   1.370   3.798   9.973 -0.1203 -0.8128  1.9402
   41CHL1    C1 5484   1.380   3.549   9.998  0.4740  0.0553 -0.3081
   41CHL1   H1A 5485   1.294   3.593   9.944  0.4902  0.2291 -0.1935
   41CHL1   H1B 5486   1.400   3.446   9.962  2.5113  0.7933 -1.4644
   41CHL1    C2 5487   1.351   3.529  10.151 -0.2586  0.2455  0.3431
   41CHL1   H2A 5488   1.273   3.450  10.156 -0.5881  0.5949  0.8815
   41CHL1   H2B 5489   1.305   3.622  10.189 -0.7785  0.3896 -0.6040
   41CHL1   C20 5490   1.591   3.711   9.268  0.3316  0.8930  0.2162
   41CHL1   H20 5491   1.493   3.752   9.299  0.6108  2.2835 -0.6161
   41CHL1   C21 5492   1.575   3.600   9.167  0.2238  0.6954  0.5863
   41CHL1  H21A 5493   1.664   3.551   9.123 -1.6631 -0.6806 -1.9828
   41CHL1  H21B 5494   1.523   3.644   9.079 -0.3806 -0.5621  0.2908
   41CHL1  H21C 5495   1.510   3.515   9.199 -1.4679  1.4187 -0.7359
   41CHL1   C22 5496   1.666   3.820   9.199 -0.5070 -0.0275  0.6140
   41CHL1  H22A 5497   1.715   3.897   9.262 -0.5113 -0.1601  0.7783
   41CHL1  H22B 5498   1.755   3.779   9.146 -1.4858 -1.2164 -0.1703
   41CHL1   C23 5499   1.588   3.898   9.095  0.0124 -0.3679  0.5083
   41CHL1  H23A 5500   1.583   3.841   8.999  1.1803 -1.3158  0.9924
   41CHL1  H23B 5501   1.483   3.916   9.129 -0.0204 -0.6092  0.5382
   41CHL1   C24 5502   1.664   4.025   9.044  0.4169  0.2478  0.4281
   41CHL1  H24A 5503   1.680   4.099   9.125 -1.6382  1.6597 -0.3652
   41CHL1  H24B 5504   1.761   4.001   8.995 -0.5332  0.2315 -1.5349
   41CHL1   C25 5505   1.586   4.109   8.938 -0.5252 -0.0706  0.2806
   41CHL1   H25 5506   1.656   4.190   8.910  0.0005 -0.4159  0.5994
   41CHL1   C26 5507   1.539   4.046   8.811 -0.8599  0.4873 -0.7457
   41CHL1  H26A 5508   1.529   4.118   8.727 -0.0044 -0.0577 -1.3412
   41CHL1  H26B 5509   1.603   3.960   8.779 -0.9709 -1.2941  3.1991
   41CHL1  H26C 5510   1.441   3.997   8.829  0.5831 -1.8309  1.4694
   41CHL1   C27 5511   1.458   4.171   9.013  1.0170 -0.4581 -0.3654
   41CHL1  H27A 5512   1.399   4.086   9.054  1.0420  0.1105  0.8734
   41CHL1  H27B 5513   1.508   4.231   9.092 -0.3051  0.2749 -0.0731
   41CHL1  H27C 5514   1.392   4.240   8.957  0.6255  0.7973  1.5809
   42CHL1    C3 5515   1.116   2.298   9.850 -1.1196  0.5243  0.5455
   42CHL1    H3 5516   1.037   2.375   9.838  0.0072  1.4461 -1.4192
   42CHL1    O3 5517   1.132   2.284   9.991 -0.3894 -0.4004  0.4934
   42CHL1   H3' 5518   1.203   2.220   9.996 -0.3956 -0.3661  1.0532
   42CHL1    C4 5519   1.065   2.171   9.782 -0.1686  0.4071 -0.0850
   42CHL1   H4A 5520   1.127   2.084   9.813 -0.6115 -0.0218 -0.3793
   42CHL1   H4B 5521   0.968   2.155   9.833 -0.8599  2.2392 -0.7502
   42CHL1    C5 5522   1.075   2.183   9.630 -0.1278 -0.8626 -0.8727
   42CHL1    C6 5523   0.962   2.158   9.552  0.1548 -0.5761 -0.2007
   42CHL1    H6 5524   0.867   2.124   9.595 -0.2753  1.2141  0.3507
   42CHL1    C7 5525   0.970   2.171   9.399 -0.2783  0.3721  0.2198
   42CHL1   H7A 5526   0.913   2.083   9.364  1.4086  0.2574 -2.5707
   42CHL1   H7B 5527   0.912   2.261   9.368 -1.8129 -0.8459 -0.6148
   42CHL1    C8 5528   1.118   2.167   9.337  0.2802  0.1931  1.0245
   42CHL1    H8 5529   1.154   2.063   9.352  2.5687  0.9379  1.1180
   42CHL1   C14 5530   1.118   2.204   9.190  0.3917  1.2918 -0.0914
   42CHL1   H14 5531   1.068   2.302   9.173  1.9341  1.8857 -1.6309
   42CHL1   C15 5532   1.018   2.124   9.108 -0.4689 -0.1567 -0.8215
   42CHL1  H15A 5533   1.034   2.016   9.129 -1.0845 -0.1082 -0.0660
   42CHL1  H15B 5534   0.913   2.154   9.131  0.0697 -0.2511  2.1424
   42CHL1   C16 5535   1.072   2.155   8.969  0.2754  0.3655 -0.0170
   42CHL1  H16A 5536   1.085   2.062   8.910 -0.8005 -0.3618  0.8455
   42CHL1  H16B 5537   0.992   2.206   8.911 -0.3810  1.9930  2.1462
   42CHL1   C17 5538   1.207   2.235   8.980  0.0982  0.7066 -0.3014
   42CHL1   H17 5539   1.178   2.342   8.979  1.1910  1.0224 -0.0960
   42CHL1   C13 5540   1.252   2.208   9.126 -0.3035 -0.2661  0.6018
   42CHL1   C18 5541   1.327   2.073   9.130 -0.7364  0.1681 -0.0411
   42CHL1  H18A 5542   1.329   2.032   9.233  0.0410 -3.2263 -1.2582
   42CHL1  H18B 5543   1.267   1.996   9.076 -4.0307  3.1503 -1.0965
   42CHL1  H18C 5544   1.430   2.078   9.088  0.5079  1.3511  2.9239
   42CHL1   C12 5545   1.329   2.316   9.197  0.5239  0.1994  0.0992
   42CHL1  H12A 5546   1.435   2.322   9.164  1.6672 -1.2894  3.1133
   42CHL1  H12B 5547   1.271   2.409   9.182 -0.5450 -0.7681 -2.2901
   42CHL1   C11 5548   1.342   2.274   9.351  0.1106  0.0215 -0.5045
   42CHL1  H11A 5549   1.412   2.188   9.351  0.1235  0.0072 -2.3265
   42CHL1  H11B 5550   1.401   2.354   9.402  3.0980 -2.8220  0.8648
   42CHL1    C9 5551   1.206   2.260   9.415  0.3039  0.5298 -0.1750
   42CHL1    H9 5552   1.156   2.359   9.409  1.5077  1.3591  2.3101
   42CHL1   C10 5553   1.212   2.222   9.572 -0.6138 -0.9973 -0.2084
   42CHL1   C19 5554   1.301   2.099   9.596 -0.5038 -0.3522  0.2442
   42CHL1  H19A 5555   1.309   2.068   9.702  2.2716  1.0391  0.5177
   42CHL1  H19B 5556   1.260   2.014   9.536 -1.0871  1.0157 -1.3663
   42CHL1  H19C 5557   1.398   2.124   9.549 -0.5897 -0.2733  0.1096
   42CHL1    C1 5558   1.254   2.359   9.639  0.4443  0.4952 -0.8140
   42CHL1   H1A 5559   1.353   2.396   9.604  0.1176  1.2719 -0.9315
   42CHL1   H1B 5560   1.186   2.444   9.616 -0.9300  0.7537  3.4227
   42CHL1    C2 5561   1.249   2.352   9.793  0.2589 -0.1184  0.3347
   42CHL1   H2A 5562   1.274   2.456   9.824  0.2334 -0.2298  0.7267
   42CHL1   H2B 5563   1.339   2.299   9.830 -0.7941 -1.4404  1.0834
   42CHL1   C20 5564   1.306   2.217   8.862  0.3998  0.0741 -0.7361
   42CHL1   H20 5565   1.338   2.111   8.859  2.0320  0.4271  1.3292
   42CHL1   C21 5566   1.428   2.304   8.882 -0.6163 -0.1658 -0.2596
   42CHL1  H21A 5567   1.403   2.412   8.872 -0.9635 -0.1057  1.0839
   42CHL1  H21B 5568   1.512   2.283   8.811 -1.3491 -1.4600 -0.7804
   42CHL1  H21C 5569   1.466   2.294   8.986 -0.9885  1.1824  0.0156
   42CHL1   C22 5570   1.235   2.239   8.730 -0.0752  0.0283 -0.5145
   42CHL1  H22A 5571   1.156   2.161   8.725  1.5072 -1.7212  0.5607
   42CHL1  H22B 5572   1.192   2.341   8.716  0.5123  0.0592 -2.4831
   42CHL1   C23 5573   1.321   2.199   8.609  0.3615  0.1129  0.8075
   42CHL1  H23A 5574   1.415   2.258   8.613 -0.8981  2.3875 -0.6989
   42CHL1  H23B 5575   1.344   2.091   8.620 -1.8052 -0.6283 -1.0823
   42CHL1   C24 5576   1.266   2.217   8.464 -0.0118 -0.3354  1.0236
   42CHL1  H24A 5577   1.356   2.227   8.400 -0.8892 -1.9725 -0.5496
   42CHL1  H24B 5578   1.219   2.121   8.434 -0.1258 -0.3959  1.3972
   42CHL1   C25 5579   1.172   2.337   8.435 -0.1963  0.5776 -0.0072
   42CHL1   H25 5580   1.087   2.323   8.505  1.4218 -0.9075  1.7494
   42CHL1   C26 5581   1.239   2.468   8.460  0.0138  0.1610 -0.0265
   42CHL1  H26A 5582   1.284   2.462   8.562  1.7911 -0.6932 -0.8249
   42CHL1  H26B 5583   1.316   2.475   8.381  0.6395 -2.5588  0.2141
   42CHL1  H26C 5584   1.164   2.550   8.452 -1.1111 -0.9644 -1.8530
   42CHL1   C27 5585   1.112   2.336   8.288 -0.0977 -0.1033 -0.8136
   42CHL1  H27A 5586   1.085   2.234   8.254  0.1779 -0.9529  1.3698
   42CHL1  H27B 5587   1.016   2.391   8.284 -0.2174 -0.1890  0.5571
   42CHL1  H27C 5588   1.189   2.382   8.222 -0.7609 -0.5073 -1.9047
   43CHL1    C3 5589   0.930   3.527  10.090  0.4535 -0.5447  0.3662
   43CHL1    H3 5590   1.040   3.513  10.079  0.6716  0.7847  0.6849
   43CHL1    O3 5591   0.899   3.579  10.215  0.0518 -0.4645  0.7283
   43CHL1   H3' 5592   0.920   3.514  10.283  0.1578 -1.2162 -0.0181
   43CHL1    C4 5593   0.899   3.641   9.988 -0.1208  0.0982  0.2846
   43CHL1   H4A 5594   0.790   3.662   9.991 -0.7130 -2.7388  0.7418
   43CHL1   H4B 5595   0.958   3.735   9.996 -0.0684  0.1363 -0.4342
   43CHL1    C5 5596   0.917   3.586   9.850  0.4208  0.0833 -0.8940
   43CHL1    C6 5597   1.007   3.642   9.764 -0.1339  0.2859 -0.5735
   43CHL1    H6 5598   1.062   3.730   9.799  0.4693 -1.0227  2.0571
   43CHL1    C7 5599   1.035   3.600   9.623  0.0798  0.3636 -0.6927
   43CHL1   H7A 5600   1.055   3.679   9.547  1.0889 -1.1482 -2.0702
   43CHL1   H7B 5601   1.129   3.540   9.629  0.5939  1.1862 -0.2238
   43CHL1    C8 5602   0.912   3.516   9.575 -0.3683  0.3638  1.1097
   43CHL1    H8 5603   0.825   3.585   9.563 -0.0578  0.4502 -0.8937
   43CHL1   C14 5604   0.947   3.450   9.439  0.1320 -1.1497 -0.0080
   43CHL1   H14 5605   1.039   3.388   9.453 -0.0123 -1.0020  1.8031
   43CHL1   C15 5606   0.988   3.540   9.320 -0.5392  0.5124  0.2732
   43CHL1  H15A 5607   0.914   3.621   9.300  1.3796  1.8931 -1.7414
   43CHL1  H15B 5608   1.090   3.583   9.312 -0.7371  1.2037  1.3545
   43CHL1   C16 5609   0.984   3.437   9.202 -0.2374 -0.2280 -0.0107
   43CHL1  H16A 5610   0.937   3.496   9.120 -1.0255  0.0920  0.6588
   43CHL1  H16B 5611   1.078   3.398   9.158 -0.8720 -2.6515  0.6322
   43CHL1   C17 5612   0.907   3.306   9.250 -0.5385 -0.0034 -0.1336
   43CHL1   H17 5613   0.993   3.238   9.267 -1.0885 -0.8085 -0.5484
   43CHL1   C13 5614   0.844   3.344   9.386  0.1554 -0.4093 -0.1678
   43CHL1   C18 5615   0.707   3.410   9.364 -0.6086  0.4874  0.1603
   43CHL1  H18A 5616   0.714   3.495   9.294 -0.3395  1.3105  1.1535
   43CHL1  H18B 5617   0.625   3.351   9.319  0.0464  0.0879 -0.5331
   43CHL1  H18C 5618   0.669   3.465   9.453 -0.4095  2.4176 -0.8843
   43CHL1   C12 5619   0.838   3.223   9.481 -0.9840 -0.1531 -0.2068
   43CHL1  H12A 5620   0.757   3.151   9.458  0.2278 -1.4302 -0.6580
   43CHL1  H12B 5621   0.934   3.170   9.499 -1.4317 -0.3010  2.0247
   43CHL1   C11 5622   0.805   3.278   9.619 -0.0714 -0.1265 -0.4984
   43CHL1  H11A 5623   0.706   3.325   9.604  1.3194  3.0521 -0.5704
   43CHL1  H11B 5624   0.794   3.198   9.696  2.3538 -1.2836 -1.2678
   43CHL1    C9 5625   0.887   3.404   9.673  0.9165 -0.3900 -0.2101
   43CHL1    H9 5626   0.990   3.367   9.693  0.3553 -1.2226  1.2675
   43CHL1   C10 5627   0.842   3.458   9.812 -0.5614  0.3093  0.1413
   43CHL1   C19 5628   0.695   3.493   9.808  0.1855  0.1308  0.1640
   43CHL1  H19A 5629   0.671   3.565   9.726 -2.0534  0.4636  1.0385
   43CHL1  H19B 5630   0.640   3.398   9.790  0.6119 -0.3242  1.2330
   43CHL1  H19C 5631   0.653   3.547   9.896 -0.3879  3.3103 -1.8600
   43CHL1    C1 5632   0.872   3.349   9.926 -0.2844  0.4038  0.2301
   43CHL1   H1A 5633   0.802   3.264   9.913  0.7774 -0.3453 -0.7612
   43CHL1   H1B 5634   0.969   3.299   9.905 -0.8486 -0.0851 -1.3561
   43CHL1    C2 5635   0.851   3.404  10.066 -0.8323  0.2441 -0.0507
   43CHL1   H2A 5636   0.876   3.320  10.135 -1.1103 -0.9665 -1.3666
   43CHL1   H2B 5637   0.746   3.433  10.087 -1.1940 -1.2774  0.4176
   43CHL1   C20 5638   0.830   3.244   9.142 -0.6796 -0.2535 -0.0695
   43CHL1   H20 5639   0.737   3.302   9.124 -1.9854 -1.1957  3.0530
   43CHL1   C21 5640   0.779   3.107   9.176  0.0439  0.7267 -0.4156
   43CHL1  H21A 5641   0.874   3.053   9.197 -0.5053  0.5497  1.7742
   43CHL1  H21B 5642   0.733   3.046   9.094 -0.6186  1.8540 -0.9044
   43CHL1  H21C 5643   0.710   3.106   9.262 -0.2668 -1.6343 -0.6040
   43CHL1   C22 5644   0.909   3.237   9.010  0.5183  0.0069  1.1356
   43CHL1  H22A 5645   0.919   3.341   8.971  0.6769  0.1851  1.6475
   43CHL1  H22B 5646   1.003   3.178   9.021  1.1397  0.5356 -0.8935
   43CHL1   C23 5647   0.842   3.150   8.896 -1.0334 -0.0551  0.6219
   43CHL1  H23A 5648   0.864   3.042   8.906  0.6875  0.2010 -0.0894
   43CHL1  H23B 5649   0.732   3.169   8.905 -1.2844 -1.2200  0.1757
   43CHL1   C24 5650   0.897   3.191   8.756 -0.1314 -0.2972 -0.2469
   43CHL1  H24A 5651   0.905   3.301   8.743  2.3107 -0.4875 -0.7740
   43CHL1  H24B 5652   1.000   3.150   8.749  0.2659  0.8841 -1.7841
   43CHL1   C25 5653   0.815   3.135   8.636 -0.2616  0.6631  0.1413
   43CHL1   H25 5654   0.720   3.191   8.629 -0.4044  0.6268  1.6280
   43CHL1   C26 5655   0.888   3.174   8.506 -0.8806 -0.6650 -0.2343
   43CHL1  H26A 5656   0.999   3.167   8.514 -0.8628 -1.3326 -0.9696
   43CHL1  H26B 5657   0.857   3.114   8.418 -0.0256 -2.3084  0.5551
   43CHL1  H26C 5658   0.858   3.281   8.494 -3.2580 -1.1817  0.6712
   43CHL1   C27 5659   0.806   2.982   8.654  0.2483 -0.3673  0.0634
   43CHL1  H27A 5660   0.740   2.935   8.578  0.3847 -0.2794 -0.1110
   43CHL1  H27B 5661   0.898   2.920   8.654 -0.2926 -1.3262  2.7079
   43CHL1  H27C 5662   0.755   2.969   8.752 -0.2492  1.6740  0.1151
   44CHL1    C3 5663   3.931   6.689  10.386  0.2358  0.4229 -0.3122
   44CHL1    H3 5664   3.849   6.640  10.330  0.4296  1.1967 -1.3018
   44CHL1    O3 5665   3.941   6.614  10.502 -0.5079 -0.1126 -0.5666
   44CHL1   H3' 5666   3.853   6.616  10.542 -0.8625  0.8541 -1.3469
   44CHL1    C4 5667   4.064   6.696  10.304  0.1314 -0.0107 -0.0788
   44CHL1   H4A 5668   4.144   6.740  10.367  0.6307 -1.3867  0.2805
   44CHL1   H4B 5669   4.091   6.591  10.278  0.5612 -0.2378  1.2168
   44CHL1    C5 5670   4.046   6.777  10.175 -0.1910  0.0720  0.6073
   44CHL1    C6 5671   4.077   6.723  10.057  0.6840 -0.1949  0.5663
   44CHL1    H6 5672   4.104   6.617  10.050 -1.5085 -0.7516 -0.5399
   44CHL1    C7 5673   4.072   6.811   9.928  0.0558  0.2001  0.6807
   44CHL1   H7A 5674   4.168   6.812   9.872  0.0630 -1.1235  0.6184
   44CHL1   H7B 5675   3.993   6.783   9.855  0.1493 -0.7917  0.9425
   44CHL1    C8 5676   4.050   6.966   9.955  0.4767 -0.4957 -0.1878
   44CHL1    H8 5677   4.138   6.996  10.016 -1.1321  0.1077  1.9702
   44CHL1   C14 5678   4.016   7.037   9.824  0.5863 -0.5063 -0.6000
   44CHL1   H14 5679   3.921   6.992   9.787 -1.2951  0.8704  2.1678
   44CHL1   C15 5680   4.102   7.032   9.695  0.2923  0.2725  0.7734
   44CHL1  H15A 5681   4.211   7.041   9.712  0.4380 -3.3060  2.8487
   44CHL1  H15B 5682   4.090   6.935   9.641  1.4846  0.8695 -0.6163
   44CHL1   C16 5683   4.058   7.151   9.605  0.4191  0.0697 -0.0272
   44CHL1  H16A 5684   4.141   7.225   9.612  2.0041 -1.6749  0.6071
   44CHL1  H16B 5685   4.040   7.138   9.497 -0.4765 -0.5671  0.1914
   44CHL1   C17 5686   3.933   7.214   9.687 -0.3690  0.0936  0.4298
   44CHL1   H17 5687   3.846   7.158   9.647  1.9054 -1.5150 -2.6823
   44CHL1   C13 5688   3.956   7.175   9.842 -0.6673  0.2284 -0.0833
   44CHL1   C18 5689   4.071   7.267   9.904 -0.0450 -0.0355 -0.1717
   44CHL1  H18A 5690   4.160   7.277   9.838 -0.3704 -0.5223 -0.6898
   44CHL1  H18B 5691   4.041   7.371   9.930  0.5400  0.8247 -2.7043
   44CHL1  H18C 5692   4.115   7.219   9.994  2.5444  2.2343 -0.0841
   44CHL1   C12 5693   3.827   7.157   9.927 -0.0074 -0.8693 -0.2809
   44CHL1  H12A 5694   3.779   7.256   9.918  0.0194 -0.9234 -1.1604
   44CHL1  H12B 5695   3.757   7.084   9.880 -0.3105 -1.0268  0.4138
   44CHL1   C11 5696   3.863   7.105  10.064 -0.0821  0.2885 -0.2835
   44CHL1  H11A 5697   3.922   7.187  10.110 -1.1721  0.2815  1.1996
   44CHL1  H11B 5698   3.764   7.097  10.114 -0.1433 -0.2545 -0.4833
   44CHL1    C9 5699   3.945   6.972  10.062  0.3478 -0.1816 -0.1747
   44CHL1    H9 5700   3.859   6.906  10.036 -0.1244 -0.7368  2.4908
   44CHL1   C10 5701   3.985   6.912  10.199 -1.0646  0.1157 -0.2036
   44CHL1   C19 5702   4.089   7.002  10.269 -0.1769  0.5727 -0.3127
   44CHL1  H19A 5703   4.184   7.016  10.212  0.1362  3.1641  0.6821
   44CHL1  H19B 5704   4.064   7.110  10.277 -0.6823  0.4460 -0.1573
   44CHL1  H19C 5705   4.112   6.963  10.370  0.4589 -0.7372 -0.9441
   44CHL1    C1 5706   3.862   6.904  10.294 -0.0365  0.1503  0.4133
   44CHL1   H1A 5707   3.820   7.005  10.316  1.1203  0.6682  0.2707
   44CHL1   H1B 5708   3.778   6.849  10.245 -0.3205 -0.5007  1.6118
   44CHL1    C2 5709   3.886   6.830  10.423 -0.5250  0.0540  0.1767
   44CHL1   H2A 5710   3.787   6.819  10.473 -0.0924 -1.8496  0.7107
   44CHL1   H2B 5711   3.954   6.870  10.501 -0.5520 -0.8251  0.6573
   44CHL1   C20 5712   3.914   7.362   9.641 -0.1885  0.3352 -0.2299
   44CHL1   H20 5713   3.987   7.432   9.688  0.7626  0.4582 -1.8334
   44CHL1   C21 5714   3.779   7.425   9.691 -0.2379  0.2169 -0.0620
   44CHL1  H21A 5715   3.782   7.438   9.801 -0.0562  1.6604 -0.2150
   44CHL1  H21B 5716   3.699   7.350   9.673  1.2687 -0.9810 -2.2044
   44CHL1  H21C 5717   3.767   7.525   9.644  0.4915  1.0441  1.4593
   44CHL1   C22 5718   3.925   7.373   9.486  0.2229  0.1232  1.1060
   44CHL1  H22A 5719   4.032   7.364   9.455 -0.0444 -2.7112  0.7462
   44CHL1  H22B 5720   3.878   7.286   9.436 -0.0835  1.5361 -1.2550
   44CHL1   C23 5721   3.860   7.498   9.408  0.6197  0.3182  0.0009
   44CHL1  H23A 5722   3.750   7.512   9.419  0.7015 -0.0752  1.6162
   44CHL1  H23B 5723   3.910   7.589   9.447 -0.1585  1.3091 -1.2244
   44CHL1   C24 5724   3.907   7.489   9.259  0.8837 -0.5948  0.3235
   44CHL1  H24A 5725   4.015   7.464   9.252  0.9547 -0.0309 -0.8505
   44CHL1  H24B 5726   3.849   7.407   9.211  1.7384 -2.3423  2.1382
   44CHL1   C25 5727   3.874   7.619   9.176  0.2553  0.6817  0.5102
   44CHL1   H25 5728   3.949   7.690   9.218  0.1422  0.6533  0.7666
   44CHL1   C26 5729   3.903   7.585   9.025  0.2040 -0.5854  0.4064
   44CHL1  H26A 5730   3.838   7.509   8.978 -0.2605 -0.0106  0.1034
   44CHL1  H26B 5731   3.899   7.678   8.964 -0.0173 -0.4651  0.5991
   44CHL1  H26C 5732   4.005   7.542   9.025  0.7025  0.5162 -1.2136
   44CHL1   C27 5733   3.733   7.683   9.197  0.0289 -0.1488 -0.3692
   44CHL1  H27A 5734   3.722   7.713   9.303 -1.5454 -2.7654  0.2995
   44CHL1  H27B 5735   3.723   7.771   9.130 -0.4432  1.2280  1.4503
   44CHL1  H27C 5736   3.644   7.617   9.185  0.1809 -0.6654  1.1607
   45CHL1    C3 5737   5.640   4.218  10.213 -0.0616  0.1499  1.0655
   45CHL1    H3 5738   5.542   4.271  10.217 -0.5147 -0.7629  2.7481
   45CHL1    O3 5739   5.666   4.154  10.338 -0.5105 -0.3927  0.1105
   45CHL1   H3' 5740   5.692   4.065  10.314  0.7864  0.5473 -2.2323
   45CHL1    C4 5741   5.641   4.110  10.103 -0.8182 -0.3894 -0.5048
   45CHL1   H4A 5742   5.730   4.044  10.093 -0.0399  0.4880  0.4035
   45CHL1   H4B 5743   5.550   4.051  10.128 -0.6684  0.1151  1.3610
   45CHL1    C5 5744   5.631   4.175   9.967 -0.0643  0.3600  0.2342
   45CHL1    C6 5745   5.538   4.138   9.878 -0.0962 -0.5306 -0.4919
   45CHL1    H6 5746   5.454   4.075   9.909 -1.1134  1.1131  0.2665
   45CHL1    C7 5747   5.524   4.203   9.742  0.0068 -0.4606  0.6980
   45CHL1   H7A 5748   5.465   4.134   9.679  1.1138  0.9918 -2.0769
   45CHL1   H7B 5749   5.448   4.283   9.752  0.0561 -0.2935 -0.2474
   45CHL1    C8 5750   5.656   4.269   9.684  0.2534 -0.2022  0.4147
   45CHL1    H8 5751   5.619   4.334   9.602 -3.1742 -1.1794  1.0221
   45CHL1   C14 5752   5.750   4.176   9.602 -0.4834 -0.1781 -1.4857
   45CHL1   H14 5753   5.784   4.101   9.677 -1.4123  0.5361 -0.3338
   45CHL1   C15 5754   5.685   4.118   9.480 -0.1985  0.4401 -0.1996
   45CHL1  H15A 5755   5.717   4.014   9.454  2.5467  1.3708 -0.8595
   45CHL1  H15B 5756   5.575   4.125   9.493 -0.2955 -0.0797 -0.6864
   45CHL1   C16 5757   5.733   4.202   9.367  0.1568 -0.0275  0.1108
   45CHL1  H16A 5758   5.788   4.128   9.305  2.9011  0.7997  1.3765
   45CHL1  H16B 5759   5.653   4.231   9.297  0.9580  1.3738 -0.2716
   45CHL1   C17 5760   5.833   4.313   9.412 -0.3031  0.3795 -0.1028
   45CHL1   H17 5761   5.762   4.397   9.427  0.8548  1.8763 -2.3832
   45CHL1   C13 5762   5.872   4.253   9.548  0.1374 -0.6509  0.3780
   45CHL1   C18 5763   5.979   4.156   9.514  0.2679  0.2015  0.0893
   45CHL1  H18A 5764   5.998   4.093   9.604  1.8013 -0.5837 -0.7300
   45CHL1  H18B 5765   5.967   4.084   9.430  1.0123 -0.5576  0.6111
   45CHL1  H18C 5766   6.077   4.207   9.502 -0.0853  1.4750  2.1813
   45CHL1   C12 5767   5.942   4.338   9.652  0.3404  0.3652 -0.2727
   45CHL1  H12A 5768   5.991   4.263   9.719  0.8543  1.2285  0.3398
   45CHL1  H12B 5769   6.022   4.407   9.618  1.8917 -0.4614  1.4755
   45CHL1   C11 5770   5.851   4.423   9.741  0.3614  0.1529 -0.8215
   45CHL1  H11A 5771   5.921   4.469   9.814  0.1966  1.1340 -1.2608
   45CHL1  H11B 5772   5.802   4.496   9.672 -0.4963  1.0938  0.7246
   45CHL1    C9 5773   5.729   4.347   9.796  0.0563 -0.9694 -0.5832
   45CHL1    H9 5774   5.652   4.423   9.821  0.3703 -1.1572  1.0266
   45CHL1   C10 5775   5.743   4.274   9.936  0.3827  0.4824 -0.0221
   45CHL1   C19 5776   5.874   4.200   9.947 -0.6186 -0.6562  0.3988
   45CHL1  H19A 5777   5.959   4.272   9.942 -2.2015  1.2937  0.3003
   45CHL1  H19B 5778   5.888   4.133  10.034 -3.4286 -0.6865  0.9071
   45CHL1  H19C 5779   5.896   4.140   9.855  2.3176 -1.6821  1.6390
   45CHL1    C1 5780   5.744   4.370  10.050 -0.2542  0.1822 -0.2429
   45CHL1   H1A 5781   5.839   4.427  10.047  0.4433 -0.9581 -0.7774
   45CHL1   H1B 5782   5.653   4.434  10.046  0.8757  1.8012 -1.7746
   45CHL1    C2 5783   5.755   4.311  10.192  0.2274 -0.0601 -0.1485
   45CHL1   H2A 5784   5.739   4.398  10.260 -2.1163 -0.4128 -0.1401
   45CHL1   H2B 5785   5.846   4.258  10.225 -0.6997 -1.9514 -0.4628
   45CHL1   C20 5786   5.932   4.336   9.301 -0.0487  0.4354 -0.6017
   45CHL1   H20 5787   5.997   4.247   9.289 -1.5610 -1.0997  1.8226
   45CHL1   C21 5788   6.015   4.457   9.342  0.3280 -0.3277  0.5132
   45CHL1  H21A 5789   6.080   4.487   9.257 -0.8390 -0.0083 -0.2724
   45CHL1  H21B 5790   6.082   4.433   9.428  0.0337 -0.9445  0.5790
   45CHL1  H21C 5791   5.948   4.542   9.364 -0.5713 -0.4719 -1.4792
   45CHL1   C22 5792   5.861   4.372   9.168  0.4386 -0.5365  0.0562
   45CHL1  H22A 5793   5.773   4.307   9.150 -0.7212  0.1688  2.6893
   45CHL1  H22B 5794   5.815   4.473   9.175  3.7104  1.0400  0.4383
   45CHL1   C23 5795   5.941   4.378   9.038 -0.7379  0.6142  0.1771
   45CHL1  H23A 5796   6.034   4.437   9.047 -0.0526 -0.4257  0.0921
   45CHL1  H23B 5797   5.977   4.274   9.018 -0.2594  0.8116  0.0001
   45CHL1   C24 5798   5.854   4.430   8.922 -0.2363  0.4248 -0.1332
   45CHL1  H24A 5799   5.816   4.337   8.875  0.7556 -1.1534  2.0529
   45CHL1  H24B 5800   5.772   4.484   8.974  2.2807  2.2712  2.2096
   45CHL1   C25 5801   5.924   4.524   8.826  0.0888 -0.5616 -0.3473
   45CHL1   H25 5802   5.975   4.599   8.889 -2.2309  0.8041 -0.0136
   45CHL1   C26 5803   6.034   4.451   8.726 -0.1161  0.3942  0.0343
   45CHL1  H26A 5804   5.980   4.415   8.635 -2.5934  1.8724  0.8486
   45CHL1  H26B 5805   6.105   4.528   8.689  0.4767 -0.9645 -1.7976
   45CHL1  H26C 5806   6.087   4.369   8.780  0.5009  1.0944  0.4993
   45CHL1   C27 5807   5.824   4.595   8.735 -0.5539 -0.0504  0.4273
   45CHL1  H27A 5808   5.870   4.666   8.664  0.3537  2.1527  3.0436
   45CHL1  H27B 5809   5.779   4.518   8.669 -1.2944 -0.0267  0.8944
   45CHL1  H27C 5810   5.746   4.648   8.795 -1.1823 -1.7376  1.1554
   46CHL1    C3 5811   0.976   5.778  10.206  0.1514 -0.3246  0.3449
   46CHL1    H3 5812   0.971   5.669  10.225  0.5577 -0.1603  1.4471
   46CHL1    O3 5813   1.009   5.859  10.320  0.6883  0.7539 -0.2951
   46CHL1   H3' 5814   1.016   5.949  10.285 -0.6147  0.5505 -1.1510
   46CHL1    C4 5815   1.093   5.792  10.099  0.5155 -0.4220 -0.3203
   46CHL1   H4A 5816   1.106   5.899  10.075  1.5192 -0.2702  0.7944
   46CHL1   H4B 5817   1.184   5.758  10.153 -0.8795 -0.3820  2.2208
   46CHL1    C5 5818   1.065   5.715   9.972 -0.3652  0.4101  0.1682
   46CHL1    C6 5819   1.132   5.601   9.945  0.4244 -0.1949  0.0927
   46CHL1    H6 5820   1.219   5.577  10.007 -1.4317  0.3536  3.0896
   46CHL1    C7 5821   1.098   5.519   9.822  0.6988  0.2547  0.2863
   46CHL1   H7A 5822   1.193   5.501   9.767  0.0062  0.3296 -0.9623
   46CHL1   H7B 5823   1.056   5.418   9.840  0.3052  0.1047 -1.3163
   46CHL1    C8 5824   1.015   5.598   9.713 -0.2272 -0.1276  0.6752
   46CHL1    H8 5825   1.072   5.680   9.665 -2.3343 -0.4970 -2.8195
   46CHL1   C14 5826   0.969   5.505   9.600 -0.2791  0.0279 -1.1061
   46CHL1   H14 5827   0.915   5.426   9.656  0.3953  1.3697  1.5934
   46CHL1   C15 5828   1.068   5.427   9.519 -0.5685  0.0355  0.1279
   46CHL1  H15A 5829   1.156   5.484   9.484 -0.1028 -1.4213 -1.1853
   46CHL1  H15B 5830   1.105   5.334   9.568  0.2407 -0.9687 -2.2529
   46CHL1   C16 5831   0.993   5.380   9.396  0.0273 -0.1932 -0.4010
   46CHL1  H16A 5832   1.048   5.412   9.305 -0.0401 -0.4646 -0.5382
   46CHL1  H16B 5833   0.988   5.269   9.389 -0.7984 -0.3854  2.1622
   46CHL1   C17 5834   0.856   5.442   9.408  0.1559  0.0398  0.6511
   46CHL1   H17 5835   0.805   5.363   9.467 -1.5857  0.9456  0.4085
   46CHL1   C13 5836   0.874   5.567   9.500  0.8978  0.8201  0.2357
   46CHL1   C18 5837   0.940   5.682   9.414 -0.3709 -0.3674  0.2231
   46CHL1  H18A 5838   0.852   5.715   9.355 -2.1137 -0.2457  2.7265
   46CHL1  H18B 5839   0.988   5.761   9.475 -0.4317  0.1235 -0.3606
   46CHL1  H18C 5840   1.023   5.639   9.354  2.5759  1.0202  3.0538
   46CHL1   C12 5841   0.749   5.611   9.583  0.4142  0.4920  0.0699
   46CHL1  H12A 5842   0.664   5.649   9.522 -0.8830 -0.9712  0.8640
   46CHL1  H12B 5843   0.708   5.522   9.636  0.1440  1.1004  0.8970
   46CHL1   C11 5844   0.790   5.717   9.689 -0.1034  1.4912 -0.0774
   46CHL1  H11A 5845   0.821   5.810   9.638 -1.1311  1.7212 -0.3195
   46CHL1  H11B 5846   0.700   5.745   9.749 -0.3065  1.4361 -0.3553
   46CHL1    C9 5847   0.894   5.652   9.793  0.1407  0.3300 -0.3928
   46CHL1    H9 5848   0.853   5.559   9.837  2.2243 -0.4900 -0.0835
   46CHL1   C10 5849   0.931   5.748   9.908 -0.0624  0.5286  0.2935
   46CHL1   C19 5850   0.930   5.897   9.862  0.2438 -0.0839 -0.1847
   46CHL1  H19A 5851   0.831   5.929   9.825 -0.6147 -2.9952 -0.6002
   46CHL1  H19B 5852   0.962   5.965   9.944  1.3441  0.0967 -0.7459
   46CHL1  H19C 5853   1.009   5.905   9.784 -0.8707 -1.2276 -1.4745
   46CHL1    C1 5854   0.816   5.747  10.022  0.4987  0.3964  1.0143
   46CHL1   H1A 5855   0.715   5.771   9.982 -0.2015 -1.2374  1.6868
   46CHL1   H1B 5856   0.812   5.638  10.045  0.5063  0.3467  0.7896
   46CHL1    C2 5857   0.840   5.820  10.156  0.1668  0.0081 -0.2315
   46CHL1   H2A 5858   0.767   5.774  10.225  0.6698 -0.3593  0.0662
   46CHL1   H2B 5859   0.821   5.929  10.142 -1.5190 -0.4327 -1.6686
   46CHL1   C20 5860   0.771   5.452   9.289 -0.4805 -0.1283 -0.0339
   46CHL1   H20 5861   0.693   5.528   9.313 -0.2928 -0.2642  1.0659
   46CHL1   C21 5862   0.717   5.304   9.268  0.0336  0.5694 -0.2074
   46CHL1  H21A 5863   0.625   5.282   9.327 -1.0645 -1.6228 -2.5298
   46CHL1  H21B 5864   0.793   5.225   9.288 -0.5496  0.2849  0.9795
   46CHL1  H21C 5865   0.689   5.297   9.160 -0.9923  0.9385  0.0235
   46CHL1   C22 5866   0.838   5.483   9.155 -0.0915  0.0442 -0.3690
   46CHL1  H22A 5867   0.924   5.552   9.160 -0.2908  0.4557 -2.0157
   46CHL1  H22B 5868   0.885   5.390   9.115  0.5000 -0.4518  1.4009
   46CHL1   C23 5869   0.736   5.532   9.045  0.3546 -0.6700  0.2433
   46CHL1  H23A 5870   0.666   5.448   9.025 -0.1209 -0.3314  0.4714
   46CHL1  H23B 5871   0.684   5.615   9.097 -1.9574 -2.2174  0.5265
   46CHL1   C24 5872   0.816   5.575   8.916 -0.2646 -0.5902 -0.1901
   46CHL1  H24A 5873   0.885   5.655   8.952  0.6646 -1.4285 -0.0590
   46CHL1  H24B 5874   0.874   5.489   8.876 -1.4270 -0.6722 -1.7666
   46CHL1   C25 5875   0.721   5.625   8.798  0.6442 -1.1580 -0.6968
   46CHL1   H25 5876   0.662   5.710   8.838  0.7748 -0.3574 -2.1450
   46CHL1   C26 5877   0.803   5.678   8.682  0.0906 -0.3891  0.1693
   46CHL1  H26A 5878   0.859   5.767   8.718 -1.9088  0.8436  0.4055
   46CHL1  H26B 5879   0.871   5.599   8.646  1.3807  0.8857 -0.2907
   46CHL1  H26C 5880   0.742   5.708   8.594 -1.3512 -1.6155  0.7147
   46CHL1   C27 5881   0.617   5.516   8.769  0.0980  0.3316 -0.7950
   46CHL1  H27A 5882   0.543   5.559   8.698 -0.5032  0.8797  0.1434
   46CHL1  H27B 5883   0.659   5.418   8.739 -0.8934  0.0999 -1.4943
   46CHL1  H27C 5884   0.559   5.505   8.863  1.4092 -0.3581 -0.0387
   47CHL1    C3 5885   1.375   1.211   9.996  0.1418  0.2139  0.3414
   47CHL1    H3 5886   1.485   1.198   9.993  0.2732  1.3895 -0.2539
   47CHL1    O3 5887   1.334   1.216  10.127 -0.1307  0.0733  0.4143
   47CHL1   H3' 5888   1.379   1.296  10.157  1.5692 -0.5977 -0.2373
   47CHL1    C4 5889   1.332   1.340   9.916 -0.4041  0.5019  0.6815
   47CHL1   H4A 5890   1.222   1.350   9.921 -0.7975 -1.4141 -1.9265
   47CHL1   H4B 5891   1.381   1.431   9.956  0.5892 -0.3538  1.4673
   47CHL1    C5 5892   1.366   1.333   9.765 -0.1121  0.3118  0.3105
   47CHL1    C6 5893   1.440   1.427   9.701  0.4854 -0.4218 -0.2952
   47CHL1    H6 5894   1.465   1.515   9.761 -1.0434 -0.3314  0.2740
   47CHL1    C7 5895   1.460   1.420   9.553  0.0068 -0.4396  0.1477
   47CHL1   H7A 5896   1.450   1.523   9.512 -1.3079 -0.7168 -0.2764
   47CHL1   H7B 5897   1.564   1.391   9.528  0.4613  0.3562  1.0466
   47CHL1    C8 5898   1.365   1.324   9.481 -0.4608 -0.3544 -0.0322
   47CHL1    H8 5899   1.267   1.376   9.480 -0.9961 -1.3377  0.1236
   47CHL1   C14 5900   1.419   1.301   9.341  0.9405 -0.3314  0.4410
   47CHL1   H14 5901   1.511   1.240   9.340  1.7419  0.8473  0.5184
   47CHL1   C15 5902   1.454   1.424   9.255 -0.6150  0.0837  0.0835
   47CHL1  H15A 5903   1.387   1.511   9.271 -0.8509 -0.1728  0.5543
   47CHL1  H15B 5904   1.557   1.458   9.277 -0.3387 -1.3058  1.1516
   47CHL1   C16 5905   1.430   1.377   9.113  0.8764  0.5328 -0.1414
   47CHL1  H16A 5906   1.351   1.440   9.066 -0.8831 -1.9591 -0.7693
   47CHL1  H16B 5907   1.523   1.376   9.051  0.3357 -1.7202 -1.0297
   47CHL1   C17 5908   1.375   1.235   9.112 -0.0719 -0.3763 -0.0744
   47CHL1   H17 5909   1.465   1.169   9.114  1.1001  1.1628  1.7390
   47CHL1   C13 5910   1.315   1.216   9.255 -0.1972  0.7655  0.1997
   47CHL1   C18 5911   1.174   1.274   9.259  0.8254  0.6031  0.0406
   47CHL1  H18A 5912   1.131   1.276   9.361 -0.2251  0.1471 -0.3744
   47CHL1  H18B 5913   1.173   1.376   9.215 -1.5261  1.3357  1.6114
   47CHL1  H18C 5914   1.103   1.212   9.199 -1.2473  1.8438  1.0855
   47CHL1   C12 5915   1.311   1.070   9.311 -0.7415  0.7481  0.2565
   47CHL1  H12A 5916   1.220   1.023   9.267 -0.2638  0.3791 -0.3568
   47CHL1  H12B 5917   1.409   1.021   9.291 -1.1202  0.4467 -0.9631
   47CHL1   C11 5918   1.295   1.075   9.468  0.4931  0.0883  0.1563
   47CHL1  H11A 5919   1.185   1.070   9.479  0.5213 -1.5839 -0.0230
   47CHL1  H11B 5920   1.334   0.979   9.508  1.8218  0.9670  1.0355
   47CHL1    C9 5921   1.368   1.186   9.550 -0.2514 -0.8458 -0.2776
   47CHL1    H9 5922   1.474   1.155   9.560 -0.5150 -1.4090  0.9362
   47CHL1   C10 5923   1.310   1.201   9.693 -0.1575 -0.0126  0.4755
   47CHL1   C19 5924   1.151   1.212   9.686  0.5714  0.0062  0.0388
   47CHL1  H19A 5925   1.123   1.295   9.618 -0.4105 -0.4791 -0.1676
   47CHL1  H19B 5926   1.102   1.116   9.659 -0.0392 -0.2703  2.0048
   47CHL1  H19C 5927   1.116   1.229   9.790  0.5375 -0.3317  0.0844
   47CHL1    C1 5928   1.357   1.073   9.777  0.8473  0.3736 -0.4606
   47CHL1   H1A 5929   1.310   0.985   9.729 -1.1500  0.2009  1.6516
   47CHL1   H1B 5930   1.468   1.073   9.773  0.8324  0.2204 -0.9133
   47CHL1    C2 5931   1.310   1.082   9.930 -0.3043 -0.0480  0.7933
   47CHL1   H2A 5932   1.352   0.992   9.979 -0.2338 -1.4265 -1.6712
   47CHL1   H2B 5933   1.199   1.081   9.932 -0.3623  0.5837 -0.8773
   47CHL1   C20 5934   1.285   1.202   8.986 -0.2604 -0.5751  0.8938
   47CHL1   H20 5935   1.196   1.269   8.997 -0.3649 -0.9986  3.2171
   47CHL1   C21 5936   1.251   1.053   8.985 -0.3014  0.2020  0.4015
   47CHL1  H21A 5937   1.339   0.990   9.012 -0.9755 -0.2310  1.6686
   47CHL1  H21B 5938   1.224   1.019   8.883  0.6478 -0.9591  0.5115
   47CHL1  H21C 5939   1.178   1.036   9.068 -2.2581 -0.1416 -1.3219
   47CHL1   C22 5940   1.358   1.255   8.860 -0.0541 -0.2624 -0.9429
   47CHL1  H22A 5941   1.390   1.359   8.882 -0.3361 -0.7375  2.3119
   47CHL1  H22B 5942   1.454   1.204   8.834  0.1983  0.9279 -2.4860
   47CHL1   C23 5943   1.265   1.249   8.730 -0.3716 -0.3395  0.3979
   47CHL1  H23A 5944   1.235   1.144   8.706 -1.8578  0.0388  0.5146
   47CHL1  H23B 5945   1.170   1.303   8.750 -0.8960 -0.8733 -0.5287
   47CHL1   C24 5946   1.325   1.295   8.596 -0.8508 -0.0217 -0.7235
   47CHL1  H24A 5947   1.349   1.402   8.612 -1.3056 -0.4632  5.3211
   47CHL1  H24B 5948   1.424   1.247   8.577 -0.8978 -0.1425 -0.6688
   47CHL1   C25 5949   1.238   1.287   8.477  0.2510 -0.5973 -0.1127
   47CHL1   H25 5950   1.139   1.323   8.512  0.4713 -1.5343  1.6104
   47CHL1   C26 5951   1.276   1.381   8.366  0.0944  0.6668 -0.4264
   47CHL1  H26A 5952   1.265   1.485   8.403 -3.0128  0.0458  0.6844
   47CHL1  H26B 5953   1.210   1.361   8.278 -0.2010 -1.9369  0.2834
   47CHL1  H26C 5954   1.381   1.362   8.334 -0.2862 -0.4702 -1.0955
   47CHL1   C27 5955   1.216   1.142   8.419 -0.2444 -0.1382 -0.3490
   47CHL1  H27A 5956   1.162   1.079   8.493 -2.7294  1.8478 -0.3102
   47CHL1  H27B 5957   1.152   1.161   8.330  1.3489  3.1191 -0.9758
   47CHL1  H27C 5958   1.315   1.098   8.396  0.3980 -0.5301  2.6791
   48CHL1    C3 5959   3.137   6.367  10.089  0.1760  0.0318 -0.1669
   48CHL1    H3 5960   3.112   6.265  10.054  1.4970 -0.2708 -0.3062
   48CHL1    O3 5961   3.139   6.356  10.225 -0.6618  0.2162 -0.0705
   48CHL1   H3' 5962   3.068   6.414  10.254 -1.6225 -0.2946 -1.3518
   48CHL1    C4 5963   3.267   6.423  10.030  0.5516 -0.8498  0.0224
   48CHL1   H4A 5964   3.287   6.522  10.077 -2.5389 -0.8728  1.5852
   48CHL1   H4B 5965   3.349   6.351  10.048  1.7908 -0.1776 -2.3798
   48CHL1    C5 5966   3.247   6.448   9.877 -0.7508 -0.0435 -0.2246
   48CHL1    C6 5967   3.327   6.379   9.794  0.2421 -0.1620  0.1377
   48CHL1    H6 5968   3.406   6.312   9.833 -0.7900 -0.9054  1.0161
   48CHL1    C7 5969   3.315   6.400   9.646  0.1389 -0.4074 -1.1729
   48CHL1   H7A 5970   3.416   6.414   9.602  0.1508  1.7135 -0.5708
   48CHL1   H7B 5971   3.278   6.305   9.601 -0.8674 -0.6820  0.1814
   48CHL1    C8 5972   3.228   6.525   9.608  0.4662  0.1346 -0.0491
   48CHL1    H8 5973   3.292   6.613   9.626  2.8499 -1.3963 -0.6575
   48CHL1   C14 5974   3.204   6.525   9.459  0.0937  0.1574 -0.3268
   48CHL1   H14 5975   3.160   6.427   9.434  0.4539 -0.4743  1.4298
   48CHL1   C15 5976   3.320   6.538   9.370 -0.2877  0.9042  0.1692
   48CHL1  H15A 5977   3.374   6.632   9.395 -0.8532  1.3143 -0.1170
   48CHL1  H15B 5978   3.387   6.450   9.379 -0.6701  0.8543  3.5019
   48CHL1   C16 5979   3.258   6.559   9.229 -0.1803  0.0573 -0.2938
   48CHL1  H16A 5980   3.312   6.635   9.168  0.5009 -1.6297 -1.9007
   48CHL1  H16B 5981   3.274   6.465   9.172  1.8440  0.1456  0.0601
   48CHL1   C17 5982   3.101   6.590   9.250  0.1189  0.1445 -0.8162
   48CHL1   H17 5983   3.050   6.492   9.246  0.3361  0.0555 -1.5919
   48CHL1   C13 5984   3.105   6.632   9.407  0.0592  0.3187 -0.6324
   48CHL1   C18 5985   3.163   6.776   9.415  0.0771 -0.0581  0.4469
   48CHL1  H18A 5986   3.078   6.848   9.411 -0.9569 -1.1850  1.2439
   48CHL1  H18B 5987   3.215   6.793   9.512 -0.8192  1.0004  0.7641
   48CHL1  H18C 5988   3.225   6.809   9.329 -1.7248  1.9674 -0.1691
   48CHL1   C12 5989   2.974   6.622   9.484  0.8051 -0.0529 -0.1537
   48CHL1  H12A 5990   2.904   6.697   9.443  0.2704 -1.3835 -1.7608
   48CHL1  H12B 5991   2.932   6.519   9.483  1.4190 -0.3091 -1.5005
   48CHL1   C11 5992   2.995   6.637   9.634 -0.3186  0.5034  0.6210
   48CHL1  H11A 5993   3.041   6.731   9.671  0.8626  0.7450 -1.3268
   48CHL1  H11B 5994   2.892   6.634   9.676 -0.7972  2.6857 -0.2061
   48CHL1    C9 5995   3.098   6.533   9.689  0.2835  0.2175 -0.9445
   48CHL1    H9 5996   3.048   6.435   9.673  0.5561  0.1148 -1.1697
   48CHL1   C10 5997   3.127   6.533   9.839  0.6430 -0.6306 -0.9155
   48CHL1   C19 5998   3.155   6.679   9.888  0.7161  0.4112 -0.8610
   48CHL1  H19A 5999   3.072   6.751   9.884 -0.6956 -0.7432  3.2085
   48CHL1  H19B 6000   3.176   6.679   9.997  0.5685  1.5634 -0.8244
   48CHL1  H19C 6001   3.244   6.733   9.848  1.3740  0.8296  1.0365
   48CHL1    C1 6002   3.003   6.475   9.912  0.0289  0.3192 -0.0494
   48CHL1   H1A 6003   2.915   6.537   9.884  2.1746  2.8200 -1.8046
   48CHL1   H1B 6004   2.980   6.375   9.870 -2.8829  1.4104 -1.3325
   48CHL1    C2 6005   3.020   6.457  10.064  0.4821  0.2113  0.5870
   48CHL1   H2A 6006   2.932   6.401  10.102  1.2616 -0.7320  1.0265
   48CHL1   H2B 6007   3.022   6.550  10.125 -0.8184  0.8971 -0.3780
   48CHL1   C20 6008   3.042   6.680   9.141  0.4843 -0.5922 -0.2890
   48CHL1   H20 6009   3.092   6.779   9.127 -0.1420 -0.2665 -0.2752
   48CHL1   C21 6010   2.897   6.715   9.163  0.7107  0.9639  0.3306
   48CHL1  H21A 6011   2.882   6.764   9.262  0.0550  0.4797  0.4758
   48CHL1  H21B 6012   2.836   6.623   9.155 -0.6547  2.0173 -3.7469
   48CHL1  H21C 6013   2.858   6.784   9.085 -2.8983 -0.3289  0.8466
   48CHL1   C22 6014   3.054   6.612   9.002 -0.4943 -0.4608 -0.0115
   48CHL1  H22A 6015   3.009   6.679   8.926  1.5824  0.1352 -0.7879
   48CHL1  H22B 6016   3.157   6.601   8.963 -1.4968 -1.4755 -2.5636
   48CHL1   C23 6017   3.008   6.465   8.997 -0.1984 -0.3690  0.0859
   48CHL1  H23A 6018   3.078   6.386   9.030  0.3761  0.6708  1.4854
   48CHL1  H23B 6019   2.918   6.452   9.061  0.8007 -1.8298  1.2678
   48CHL1   C24 6020   2.971   6.410   8.858 -0.3923 -0.5420 -0.5423
   48CHL1  H24A 6021   2.917   6.499   8.819  1.4875  0.6825 -0.4804
   48CHL1  H24B 6022   3.056   6.389   8.790 -0.3722 -3.2684  0.2313
   48CHL1   C25 6023   2.873   6.293   8.845 -0.2500 -0.0114 -0.2137
   48CHL1   H25 6024   2.787   6.294   8.916 -0.4250  2.0700 -0.4008
   48CHL1   C26 6025   2.808   6.298   8.708 -0.0103  0.0275  0.5661
   48CHL1  H26A 6026   2.778   6.401   8.680  3.3546  0.8424 -0.5803
   48CHL1  H26B 6027   2.890   6.288   8.634 -0.3359  2.9557 -0.3156
   48CHL1  H26C 6028   2.722   6.230   8.694 -0.1768  0.7514 -2.5273
   48CHL1   C27 6029   2.951   6.164   8.879  0.6241 -0.5838 -0.5818
   48CHL1  H27A 6030   2.886   6.083   8.840  0.7686 -0.5206 -0.9563
   48CHL1  H27B 6031   3.048   6.139   8.832  1.5153 -2.1097  1.8732
   48CHL1  H27C 6032   2.963   6.154   8.990  1.0066  1.0674 -0.4579
   49CHL1    C3 6033   1.655   5.314  10.073  0.3106 -0.0377 -0.1087
   49CHL1    H3 6034   1.701   5.415  10.070  1.7639 -0.6816 -0.2472
   49CHL1    O3 6035   1.626   5.272  10.208 -0.0739 -0.5819  0.3055
   49CHL1   H3' 6036   1.714   5.266  10.246 -0.0365  0.6375  0.4345
   49CHL1    C4 6037   1.524   5.306   9.993  0.8017  0.0999  0.6152
   49CHL1   H4A 6038   1.476   5.209  10.019 -1.0893  0.8116 -0.0536
   49CHL1   H4B 6039   1.453   5.381  10.034  0.5302  0.3540 -0.2849
   49CHL1    C5 6040   1.555   5.325   9.848 -1.0166  0.5041  0.5295
   49CHL1    C6 6041   1.492   5.415   9.774 -0.4573  0.2350 -0.4820
   49CHL1    H6 6042   1.411   5.475   9.818 -2.0452  0.6795 -3.7483
   49CHL1    C7 6043   1.519   5.441   9.632 -0.1859  0.4530  0.4538
   49CHL1   H7A 6044   1.420   5.426   9.584 -0.3100 -0.4235  0.9613
   49CHL1   H7B 6045   1.569   5.538   9.612 -0.3564  0.4311 -0.0859
   49CHL1    C8 6046   1.606   5.331   9.569 -0.8865 -0.7745 -0.2192
   49CHL1    H8 6047   1.546   5.238   9.553 -1.1959 -0.3343 -1.7711
   49CHL1   C14 6048   1.660   5.371   9.431  0.0040 -0.4503 -0.1555
   49CHL1   H14 6049   1.725   5.460   9.446 -1.4594  0.5725  0.3522
   49CHL1   C15 6050   1.549   5.433   9.339 -0.6127 -0.0477 -0.4141
   49CHL1  H15A 6051   1.455   5.374   9.341 -1.0370  0.6145  1.4351
   49CHL1  H15B 6052   1.527   5.538   9.367 -1.8143  0.0704 -1.7076
   49CHL1   C16 6053   1.617   5.429   9.204  0.0792  0.8572 -0.1816
   49CHL1  H16A 6054   1.562   5.354   9.144  1.6095 -1.6595  1.3908
   49CHL1  H16B 6055   1.626   5.528   9.154  1.1551 -0.6006 -3.1144
   49CHL1   C17 6056   1.745   5.343   9.211 -0.1136 -0.5388 -0.1681
   49CHL1   H17 6057   1.836   5.407   9.220  2.0526 -3.0924 -2.2369
   49CHL1   C13 6058   1.733   5.268   9.347 -0.2174 -0.8191  0.1669
   49CHL1   C18 6059   1.645   5.140   9.324 -0.0048 -0.2026  0.8040
   49CHL1  H18A 6060   1.618   5.097   9.422 -1.8683  0.8956  0.8174
   49CHL1  H18B 6061   1.550   5.180   9.284  1.7101  0.4727 -3.1122
   49CHL1  H18C 6062   1.681   5.062   9.253 -0.2254 -0.3090  0.8102
   49CHL1   C12 6063   1.864   5.241   9.425 -0.1427  0.4322  0.1967
   49CHL1  H12A 6064   1.927   5.170   9.368  1.9119  1.2317  1.3522
   49CHL1  H12B 6065   1.933   5.328   9.424  2.9960 -1.9051  0.0809
   49CHL1   C11 6066   1.824   5.191   9.569 -0.2166 -0.1102 -0.4625
   49CHL1  H11A 6067   1.796   5.085   9.552  2.7367 -0.9701 -0.5626
   49CHL1  H11B 6068   1.918   5.178   9.628 -1.9926 -1.1845  2.2891
   49CHL1    C9 6069   1.726   5.290   9.648 -0.9968 -0.1382 -0.3161
   49CHL1    H9 6070   1.781   5.385   9.663  1.2593 -1.3738 -0.3347
   49CHL1   C10 6071   1.681   5.239   9.790 -0.6105 -0.3141  0.3667
   49CHL1   C19 6072   1.636   5.086   9.788  0.1710 -0.6603 -0.2724
   49CHL1  H19A 6073   1.730   5.028   9.788  0.2471 -0.5460  0.4364
   49CHL1  H19B 6074   1.582   5.057   9.881  2.6802 -0.7825  1.2189
   49CHL1  H19C 6075   1.569   5.062   9.703 -0.7045  1.3241 -0.2125
   49CHL1    C1 6076   1.800   5.245   9.885 -0.2640 -0.0720 -0.2922
   49CHL1   H1A 6077   1.880   5.178   9.845  1.4411  1.3661  0.5974
   49CHL1   H1B 6078   1.841   5.348   9.889 -2.9088  1.1038 -1.0154
   49CHL1    C2 6079   1.769   5.216  10.025 -0.4039 -0.2250 -0.4357
   49CHL1   H2A 6080   1.849   5.228  10.101 -1.0252 -0.5639  0.2970
   49CHL1   H2B 6081   1.734   5.110  10.031 -1.8513  0.2422 -0.1085
   49CHL1   C20 6082   1.780   5.273   9.082  0.4691  0.0118  0.4249
   49CHL1   H20 6083   1.700   5.196   9.067  0.4360  0.1133  0.0610
   49CHL1   C21 6084   1.907   5.191   9.094 -0.5066 -0.3529  0.4443
   49CHL1  H21A 6085   1.894   5.107   9.166  0.4437 -1.3183 -0.4588
   49CHL1  H21B 6086   1.982   5.260   9.138  1.2331 -1.4964 -0.5923
   49CHL1  H21C 6087   1.940   5.144   8.999 -0.0035  0.6475  0.1146
   49CHL1   C22 6088   1.798   5.361   8.957 -0.1118 -0.3233  0.2050
   49CHL1  H22A 6089   1.729   5.445   8.933  2.8736  1.4792 -3.1846
   49CHL1  H22B 6090   1.895   5.412   8.978 -0.1706  0.4942 -1.3195
   49CHL1   C23 6091   1.809   5.287   8.829 -0.6747  0.5542 -0.6574
   49CHL1  H23A 6092   1.917   5.283   8.803 -0.9275 -1.2706 -1.5953
   49CHL1  H23B 6093   1.768   5.185   8.845 -3.5871  1.1789 -3.2073
   49CHL1   C24 6094   1.718   5.350   8.719 -0.1711  0.8330  0.2062
   49CHL1  H24A 6095   1.615   5.333   8.756  0.6377 -0.5567  2.0007
   49CHL1  H24B 6096   1.728   5.461   8.721 -1.9780  1.0578  2.7844
   49CHL1   C25 6097   1.739   5.272   8.592 -0.4924 -0.1564  0.3563
   49CHL1   H25 6098   1.841   5.282   8.549 -1.0095 -1.1369 -1.2154
   49CHL1   C26 6099   1.717   5.118   8.613 -0.1893  0.1267  0.2897
   49CHL1  H26A 6100   1.628   5.113   8.680  0.1809  1.1776  0.8792
   49CHL1  H26B 6101   1.682   5.075   8.516 -0.8846  2.5266 -0.6185
   49CHL1  H26C 6102   1.813   5.076   8.649  0.0456  1.6303  1.5307
   49CHL1   C27 6103   1.648   5.322   8.479  0.9442  0.0675  1.1495
   49CHL1  H27A 6104   1.542   5.317   8.511  0.3895 -0.5354 -0.6663
   49CHL1  H27B 6105   1.664   5.429   8.452 -0.2435  0.0391  0.2614
   49CHL1  H27C 6106   1.668   5.259   8.390  0.8824  0.8746  0.5608
   50CHL1    C3 6107   5.582   0.884  10.274  0.3830  0.2723  0.0002
   50CHL1    H3 6108   5.482   0.933  10.271  0.7381  1.0553 -2.9789
   50CHL1    O3 6109   5.624   0.869  10.409 -0.4393 -0.3785 -0.3434
   50CHL1   H3' 6110   5.718   0.851  10.414 -0.0506  1.2330 -1.2853
   50CHL1    C4 6111   5.568   0.741  10.213 -1.0411  0.9031 -0.5241
   50CHL1   H4A 6112   5.664   0.686  10.224 -1.3640  0.0366 -1.8040
   50CHL1   H4B 6113   5.494   0.686  10.275 -1.0006  0.9079 -0.4724
   50CHL1    C5 6114   5.518   0.765  10.069 -0.1802  0.0381  0.0331
   50CHL1    C6 6115   5.411   0.693  10.025 -0.0855 -0.5979  0.2931
   50CHL1    H6 6116   5.371   0.618  10.095  2.1717 -0.6518  1.6037
   50CHL1    C7 6117   5.363   0.694   9.884  0.3047 -0.4430  0.0426
   50CHL1   H7A 6118   5.352   0.594   9.837  3.8434 -0.9036 -0.1069
   50CHL1   H7B 6119   5.264   0.742   9.868  0.9868  0.0054 -4.2197
   50CHL1    C8 6120   5.469   0.745   9.784 -0.7614 -0.1399 -0.5496
   50CHL1    H8 6121   5.548   0.668   9.772  0.9137  0.8990  2.6018
   50CHL1   C14 6122   5.393   0.780   9.662 -0.4226  0.2357 -0.0269
   50CHL1   H14 6123   5.317   0.857   9.687 -0.9681  0.1235 -1.2402
   50CHL1   C15 6124   5.322   0.666   9.581  0.7422  0.6790  0.1977
   50CHL1  H15A 6125   5.373   0.568   9.580  0.0503  0.3057 -1.3150
   50CHL1  H15B 6126   5.218   0.646   9.617  0.9162 -0.5912  0.0328
   50CHL1   C16 6127   5.306   0.723   9.438  0.6310 -0.3297  0.2174
   50CHL1  H16A 6128   5.333   0.640   9.370  3.2446  1.5864 -1.2741
   50CHL1  H16B 6129   5.200   0.753   9.427  1.0425  0.7791 -1.0103
   50CHL1   C17 6130   5.376   0.855   9.430 -0.0807 -0.3523 -0.2025
   50CHL1   H17 6131   5.311   0.940   9.460  1.2784  0.2259  1.1870
   50CHL1   C13 6132   5.479   0.851   9.549 -0.4232 -0.3080  0.3843
   50CHL1   C18 6133   5.597   0.766   9.495  0.4484 -0.3578 -0.8454
   50CHL1  H18A 6134   5.653   0.819   9.415 -0.9496  1.9203 -0.3769
   50CHL1  H18B 6135   5.661   0.742   9.583  0.2684 -2.1316 -1.1633
   50CHL1  H18C 6136   5.570   0.666   9.454  2.2605 -1.5901  0.7802
   50CHL1   C12 6137   5.528   0.984   9.613  0.5297 -0.0409  1.1486
   50CHL1  H12A 6138   5.583   1.044   9.538  1.2303 -1.7090  0.2756
   50CHL1  H12B 6139   5.434   1.036   9.643 -0.5400 -0.7734 -0.7249
   50CHL1   C11 6140   5.617   0.959   9.734  0.5336  0.2183  0.7864
   50CHL1  H11A 6141   5.718   0.919   9.715  0.2255 -0.0902 -0.2820
   50CHL1  H11B 6142   5.621   1.067   9.760  1.3605  0.5253 -0.5132
   50CHL1    C9 6143   5.536   0.872   9.841  0.1335 -0.0930  0.4711
   50CHL1    H9 6144   5.452   0.943   9.857  1.1974  0.8851  1.9678
   50CHL1   C10 6145   5.599   0.850   9.978 -0.3540  0.0204 -0.2254
   50CHL1   C19 6146   5.729   0.771   9.952  0.6289  0.2639  0.5245
   50CHL1  H19A 6147   5.721   0.661   9.937  0.7375  0.4495 -1.0819
   50CHL1  H19B 6148   5.791   0.814   9.870  0.5203  1.0462  0.8390
   50CHL1  H19C 6149   5.795   0.777  10.042 -0.3916 -3.2349  1.6572
   50CHL1    C1 6150   5.622   0.981  10.058 -0.1065  0.1238  0.0928
   50CHL1   H1A 6151   5.691   1.043   9.996  0.5479  0.2135  0.8945
   50CHL1   H1B 6152   5.523   1.029  10.071  1.1449  2.8553  0.4458
   50CHL1    C2 6153   5.673   0.972  10.201  0.1651 -0.0932  0.1073
   50CHL1   H2A 6154   5.670   1.072  10.247 -0.2411 -0.8965  1.8994
   50CHL1   H2B 6155   5.777   0.933  10.192  1.0158  2.1341 -0.1839
   50CHL1   C20 6156   5.421   0.897   9.294 -0.6435  0.0397  0.6935
   50CHL1   H20 6157   5.500   0.827   9.261 -2.8133 -1.6860 -1.1650
   50CHL1   C21 6158   5.490   1.039   9.289  0.0319 -0.2157 -0.1069
   50CHL1  H21A 6159   5.432   1.118   9.342 -0.1750 -1.5716  1.8079
   50CHL1  H21B 6160   5.504   1.084   9.189 -0.5426 -1.2958 -0.6907
   50CHL1  H21C 6161   5.587   1.033   9.343 -0.3598 -0.0043  0.6413
   50CHL1   C22 6162   5.315   0.902   9.186 -0.0978  1.0264  0.1426
   50CHL1  H22A 6163   5.266   0.802   9.191  0.5622  0.5985 -1.4349
   50CHL1  H22B 6164   5.223   0.960   9.212 -1.4911 -2.1638  3.2190
   50CHL1   C23 6165   5.358   0.912   9.039  0.4703  0.2303  0.4144
   50CHL1  H23A 6166   5.400   1.014   9.023 -0.9415  0.6797 -0.5651
   50CHL1  H23B 6167   5.432   0.830   9.024 -0.0031  0.0678 -1.1758
   50CHL1   C24 6168   5.236   0.876   8.956 -0.1757  0.3344  0.2672
   50CHL1  H24A 6169   5.194   0.776   8.976  1.1464  0.2286  3.0148
   50CHL1  H24B 6170   5.156   0.947   8.986  0.2616  0.1670  1.9540
   50CHL1   C25 6171   5.261   0.890   8.795 -0.2777  0.3784 -0.7047
   50CHL1   H25 6172   5.365   0.855   8.775  0.8871  1.5673  2.6290
   50CHL1   C26 6173   5.159   0.811   8.714 -1.1879  0.3282 -0.2569
   50CHL1  H26A 6174   5.181   0.835   8.608  4.0302 -2.2546 -0.0844
   50CHL1  H26B 6175   5.169   0.700   8.715  2.7862  0.5607  0.4901
   50CHL1  H26C 6176   5.055   0.838   8.744 -1.3575  1.0751 -1.4593
   50CHL1   C27 6177   5.248   1.037   8.760 -0.5636  0.3626  0.6284
   50CHL1  H27A 6178   5.328   1.106   8.796 -0.6813 -0.0243  1.6542
   50CHL1  H27B 6179   5.253   1.053   8.651  0.1252  2.4825  0.9241
   50CHL1  H27C 6180   5.152   1.076   8.803  0.0999  2.1160  0.6248
   51CHL1    C3 6181   0.610   3.016  10.058 -0.0243  0.1050 -0.7207
   51CHL1    H3 6182   0.625   3.118  10.017  1.3787  0.6130  0.9294
   51CHL1    O3 6183   0.558   3.034  10.192 -0.1687  0.5921  0.2822
   51CHL1   H3' 6184   0.575   2.951  10.237 -1.0840 -0.7806 -1.7697
   51CHL1    C4 6185   0.521   2.926   9.975 -0.1764  0.1022  0.2573
   51CHL1   H4A 6186   0.512   2.832  10.034 -1.8163  1.1411  1.7624
   51CHL1   H4B 6187   0.421   2.974   9.975 -0.2391 -0.0320  0.1118
   51CHL1    C5 6188   0.585   2.908   9.842  0.2290  0.2874  0.1541
   51CHL1    C6 6189   0.513   2.941   9.725  0.4606 -0.0004 -1.1534
   51CHL1    H6 6190   0.409   2.975   9.735 -0.1319 -2.4374  2.4625
   51CHL1    C7 6191   0.563   2.912   9.588  0.3120 -0.2833 -0.2643
   51CHL1   H7A 6192   0.476   2.876   9.529 -0.6071  4.0436 -1.9758
   51CHL1   H7B 6193   0.586   3.015   9.553 -3.1060  0.7753  0.2352
   51CHL1    C8 6194   0.684   2.812   9.587  0.1905 -0.3222 -0.3106
   51CHL1    H8 6195   0.633   2.714   9.601  0.1446  0.0888  3.7382
   51CHL1   C14 6196   0.759   2.808   9.458 -0.6196  0.9090  0.4187
   51CHL1   H14 6197   0.789   2.913   9.438  0.4114  0.8675  1.6235
   51CHL1   C15 6198   0.684   2.768   9.325 -0.1664 -0.1151  0.3808
   51CHL1  H15A 6199   0.625   2.675   9.344  1.8519 -1.2815  1.2480
   51CHL1  H15B 6200   0.621   2.853   9.293  1.1657  0.1462 -1.7408
   51CHL1   C16 6201   0.797   2.750   9.225 -0.1974  0.7149  0.0557
   51CHL1  H16A 6202   0.773   2.652   9.177  0.7197  0.3168  0.3740
   51CHL1  H16B 6203   0.797   2.832   9.150  0.9658  0.5204 -0.1750
   51CHL1   C17 6204   0.927   2.742   9.303  0.1302  0.7774 -0.3759
   51CHL1   H17 6205   0.966   2.845   9.288  1.4809  0.6360  1.7188
   51CHL1   C13 6206   0.886   2.729   9.454 -0.1890  0.0125 -0.0897
   51CHL1   C18 6207   0.858   2.582   9.482 -0.1413  0.3690 -0.1909
   51CHL1  H18A 6208   0.804   2.577   9.579 -1.3308  1.2784 -0.7770
   51CHL1  H18B 6209   0.790   2.550   9.401  1.8395  1.7228 -2.5181
   51CHL1  H18C 6210   0.946   2.515   9.494 -2.0543 -2.0895  0.8782
   51CHL1   C12 6211   0.985   2.793   9.558  0.1292 -0.2295  0.5508
   51CHL1  H12A 6212   1.083   2.740   9.563  0.2845 -0.5681 -3.0019
   51CHL1  H12B 6213   1.007   2.890   9.508  0.2242 -2.2013 -3.6802
   51CHL1   C11 6214   0.926   2.797   9.694 -0.7304  0.0467  0.3897
   51CHL1  H11A 6215   0.930   2.696   9.741 -1.5990 -1.3795 -2.3907
   51CHL1  H11B 6216   0.990   2.863   9.757  0.1493 -1.6498  1.3471
   51CHL1    C9 6217   0.778   2.854   9.700 -0.8294  0.8690  0.2761
   51CHL1    H9 6218   0.804   2.958   9.668  1.1023 -0.1602 -1.8032
   51CHL1   C10 6219   0.728   2.853   9.842  0.2550  0.9084 -0.3764
   51CHL1   C19 6220   0.733   2.705   9.901 -0.2649  0.7471  0.0848
   51CHL1  H19A 6221   0.676   2.702   9.997 -0.3125 -1.6918  0.0323
   51CHL1  H19B 6222   0.684   2.632   9.834 -0.5386  0.3539  0.6980
   51CHL1  H19C 6223   0.835   2.671   9.929 -1.1223 -0.2327  2.2859
   51CHL1    C1 6224   0.820   2.945   9.935 -0.0104  0.0296  0.7155
   51CHL1   H1A 6225   0.914   2.891   9.961  0.3695  0.4768  0.2927
   51CHL1   H1B 6226   0.851   3.042   9.890  0.7869 -0.6776 -0.3044
   51CHL1    C2 6227   0.753   2.968  10.073 -0.8214  0.2890 -0.6964
   51CHL1   H2A 6228   0.801   3.040  10.143  0.6650 -0.4042 -0.9643
   51CHL1   H2B 6229   0.767   2.874  10.130  0.3727  1.3472  0.8909
   51CHL1   C20 6230   1.028   2.630   9.250  0.0974 -0.1130  0.1121
   51CHL1   H20 6231   0.979   2.531   9.257  0.0006  0.0393  2.5367
   51CHL1   C21 6232   1.155   2.642   9.343  0.2488  0.4322 -0.2208
   51CHL1  H21A 6233   1.141   2.578   9.432 -2.5615  2.2065  0.7359
   51CHL1  H21B 6234   1.159   2.748   9.376 -0.5303  0.0653  1.1360
   51CHL1  H21C 6235   1.254   2.627   9.295  0.0165  0.2253 -0.6444
   51CHL1   C22 6236   1.080   2.659   9.106  0.2900 -0.0699 -0.6685
   51CHL1  H22A 6237   1.129   2.562   9.080  0.0811 -0.3181 -0.1473
   51CHL1  H22B 6238   0.991   2.657   9.039  2.4463 -0.7952 -3.7126
   51CHL1   C23 6239   1.150   2.791   9.082  0.6747 -0.7740  0.0903
   51CHL1  H23A 6240   1.102   2.874   9.138  1.9190 -0.1329  0.2232
   51CHL1  H23B 6241   1.256   2.774   9.111  1.1998  1.8704 -0.0067
   51CHL1   C24 6242   1.147   2.844   8.946 -0.3201 -0.1294  0.4383
   51CHL1  H24A 6243   1.044   2.850   8.905 -0.5453 -0.6769  0.9103
   51CHL1  H24B 6244   1.191   2.945   8.929 -0.2283  0.1454  2.1062
   51CHL1   C25 6245   1.228   2.744   8.848 -0.2061  0.3578  0.4928
   51CHL1   H25 6246   1.194   2.639   8.861  1.5965 -0.0405  2.4971
   51CHL1   C26 6247   1.201   2.786   8.705  0.1127  0.8722 -0.1508
   51CHL1  H26A 6248   1.271   2.729   8.640 -0.5197 -1.1510  0.8332
   51CHL1  H26B 6249   1.092   2.776   8.684  0.0619 -0.1288  0.5018
   51CHL1  H26C 6250   1.226   2.892   8.687  2.4162  0.0932 -2.0399
   51CHL1   C27 6251   1.376   2.747   8.872 -0.5311  0.3461  0.2684
   51CHL1  H27A 6252   1.422   2.842   8.838  0.7687 -0.2549  0.2663
   51CHL1  H27B 6253   1.403   2.740   8.980  0.6799 -0.9639 -0.0880
   51CHL1  H27C 6254   1.431   2.670   8.814 -0.2951  0.2465  0.6197
   52CHL1    C3 6255   1.656   2.844  10.140  0.8790 -0.2736 -0.6881
   52CHL1    H3 6256   1.574   2.799  10.081 -1.7202  2.5471  0.5331
   52CHL1    O3 6257   1.621   2.821  10.277 -0.4997  0.2920  0.0389
   52CHL1   H3' 6258   1.527   2.801  10.277 -0.0046 -2.5454  1.4285
   52CHL1    C4 6259   1.790   2.791  10.110 -0.2123 -0.0045 -0.0488
   52CHL1   H4A 6260   1.863   2.843  10.175  0.4764 -1.0042  0.0089
   52CHL1   H4B 6261   1.779   2.682  10.131  2.7302 -0.1204  1.4518
   52CHL1    C5 6262   1.822   2.826   9.963 -1.0064 -0.0018  0.1871
   52CHL1    C6 6263   1.849   2.728   9.876  0.4526  0.2068  0.2334
   52CHL1    H6 6264   1.845   2.627   9.919 -1.2497 -0.2461 -0.9130
   52CHL1    C7 6265   1.890   2.743   9.734 -1.0522 -0.0303 -0.1121
   52CHL1   H7A 6266   1.980   2.681   9.712 -0.5280 -0.1549  2.0610
   52CHL1   H7B 6267   1.808   2.709   9.669 -1.6213 -1.9590  1.5058
   52CHL1    C8 6268   1.918   2.893   9.692 -0.3952  0.7644  0.1505
   52CHL1    H8 6269   2.016   2.925   9.733 -0.7125  1.1411  0.6362
   52CHL1   C14 6270   1.908   2.911   9.541  0.4795 -0.0145  0.1081
   52CHL1   H14 6271   1.801   2.892   9.516  0.3817  1.4241 -0.6405
   52CHL1   C15 6272   1.988   2.816   9.448 -0.2088  0.1627  0.6421
   52CHL1  H15A 6273   2.090   2.787   9.483  2.4141  3.8863 -2.8349
   52CHL1  H15B 6274   1.929   2.727   9.418  2.1664 -0.8032 -1.6644
   52CHL1   C16 6275   2.030   2.904   9.329  0.2554 -0.0420  1.1042
   52CHL1  H16A 6276   2.140   2.913   9.331  0.1356  1.5610  2.2439
   52CHL1  H16B 6277   1.990   2.859   9.235  1.2407  1.2345  0.0282
   52CHL1   C17 6278   1.953   3.040   9.351  0.1881 -0.3700  0.0802
   52CHL1   H17 6279   1.849   3.027   9.314  0.1932  0.4481 -0.2487
   52CHL1   C13 6280   1.943   3.059   9.507 -0.1538 -0.5623 -0.1277
   52CHL1   C18 6281   2.079   3.121   9.555 -0.8772 -0.6727 -0.3094
   52CHL1  H18A 6282   2.074   3.126   9.665 -1.0251  0.6542 -0.3608
   52CHL1  H18B 6283   2.166   3.057   9.529 -1.6017 -1.4282 -0.9606
   52CHL1  H18C 6284   2.095   3.226   9.522 -0.8141 -1.0241 -1.4694
   52CHL1   C12 6285   1.822   3.131   9.551  0.1131  0.3545 -1.1104
   52CHL1  H12A 6286   1.809   3.235   9.515 -1.9251 -0.4982 -3.0980
   52CHL1  H12B 6287   1.728   3.081   9.518 -1.3975  2.2178  0.1142
   52CHL1   C11 6288   1.819   3.134   9.709  0.0966  0.9698 -0.4249
   52CHL1  H11A 6289   1.902   3.192   9.754 -0.2371  0.3076  1.1027
   52CHL1  H11B 6290   1.716   3.164   9.740 -0.5585 -4.6877  4.9692
   52CHL1    C9 6291   1.817   2.990   9.764  0.5946  0.3521 -0.4080
   52CHL1    H9 6292   1.720   2.949   9.726  0.7449  0.2637 -0.6933
   52CHL1   C10 6293   1.811   2.972   9.918  0.5325 -0.0163 -0.4981
   52CHL1   C19 6294   1.926   3.050   9.980 -0.3830  0.1440 -0.5871
   52CHL1  H19A 6295   1.912   3.161   9.979  1.7923  0.5562  2.1803
   52CHL1  H19B 6296   1.935   3.021  10.086  0.0695  0.8418 -0.4256
   52CHL1  H19C 6297   2.019   3.028   9.924 -0.3229  0.3403 -0.5660
   52CHL1    C1 6298   1.674   3.029   9.971  0.2954 -0.5181 -0.2815
   52CHL1   H1A 6299   1.668   3.135   9.937  2.1818 -0.4844 -0.6202
   52CHL1   H1B 6300   1.591   2.985   9.911  1.0540 -2.1077 -0.2105
   52CHL1    C2 6301   1.638   3.001  10.121 -0.1586 -1.0850  0.1723
   52CHL1   H2A 6302   1.539   3.043  10.148  0.0078  1.0291 -2.1464
   52CHL1   H2B 6303   1.710   3.054  10.186 -1.0510  1.4722 -0.8009
   52CHL1   C20 6304   2.011   3.157   9.266 -0.1132 -0.5163  0.1381
   52CHL1   H20 6305   2.112   3.182   9.304 -0.7043  2.3681 -0.0305
   52CHL1   C21 6306   1.918   3.277   9.281 -0.1230  0.4152 -0.3281
   52CHL1  H21A 6307   1.812   3.244   9.272 -0.4004  1.2179 -0.0436
   52CHL1  H21B 6308   1.941   3.351   9.201  1.2691 -0.1084 -0.4387
   52CHL1  H21C 6309   1.922   3.321   9.383 -5.5287 -1.1365  0.8692
   52CHL1   C22 6310   2.015   3.128   9.115  0.7499 -0.0603  0.0918
   52CHL1  H22A 6311   2.059   3.027   9.097 -0.7408 -0.5991 -0.7215
   52CHL1  H22B 6312   1.913   3.128   9.071  1.2118 -0.6747 -1.0286
   52CHL1   C23 6313   2.092   3.231   9.028 -0.2098 -0.7496  0.1218
   52CHL1  H23A 6314   2.022   3.308   8.989  0.6028 -0.4488 -0.7668
   52CHL1  H23B 6315   2.164   3.275   9.099 -0.5852  0.7114 -0.3680
   52CHL1   C24 6316   2.172   3.184   8.909 -0.6260  0.1526  0.1519
   52CHL1  H24A 6317   2.270   3.150   8.950 -1.3968 -1.3527  0.8062
   52CHL1  H24B 6318   2.121   3.107   8.848 -0.5398 -0.3143  0.6629
   52CHL1   C25 6319   2.204   3.296   8.806 -0.4764  0.1452  0.1885
   52CHL1   H25 6320   2.236   3.395   8.843  0.7279 -0.0567 -0.2646
   52CHL1   C26 6321   2.320   3.251   8.718  0.1769 -0.0337  0.1867
   52CHL1  H26A 6322   2.348   3.328   8.643 -0.3468  1.1586  1.1845
   52CHL1  H26B 6323   2.411   3.226   8.776  1.9249  0.7023 -2.0852
   52CHL1  H26C 6324   2.293   3.168   8.649 -2.3364  1.4617 -0.7606
   52CHL1   C27 6325   2.077   3.325   8.716 -0.2323  0.7863  0.3708
   52CHL1  H27A 6326   2.097   3.392   8.630  0.6431  0.4951  0.3363
   52CHL1  H27B 6327   2.020   3.241   8.672 -1.3108  1.0454  1.2129
   52CHL1  H27C 6328   2.006   3.377   8.784  0.3839  0.3702  1.3643
   53CHL1    C3 6329   5.132   6.023  10.070  0.3702  0.9340 -0.3535
   53CHL1    H3 6330   5.233   5.981  10.050 -0.0894 -0.0800 -0.6170
   53CHL1    O3 6331   5.128   6.039  10.213  0.1758  0.1101 -1.0938
   53CHL1   H3' 6332   5.039   6.060  10.241  0.4754 -1.3527  1.2207
   53CHL1    C4 6333   5.109   6.149   9.994  0.1939 -0.2572  0.7921
   53CHL1   H4A 6334   5.011   6.192  10.026  0.0071 -0.2037  0.1554
   53CHL1   H4B 6335   5.185   6.228  10.012  0.6524 -0.2368 -1.0684
   53CHL1    C5 6336   5.102   6.126   9.843  0.2012 -0.3110  0.3233
   53CHL1    C6 6337   5.192   6.179   9.757 -0.4225 -1.1200 -0.4941
   53CHL1    H6 6338   5.260   6.260   9.790  0.3641 -1.4595 -1.2317
   53CHL1    C7 6339   5.193   6.161   9.608  0.2960  0.3718 -1.0833
   53CHL1   H7A 6340   5.220   6.254   9.554  1.7194  1.7828  1.8613
   53CHL1   H7B 6341   5.279   6.099   9.576 -0.1910 -1.7329  1.2930
   53CHL1    C8 6342   5.059   6.105   9.564 -0.4103 -0.1568  0.3252
   53CHL1    H8 6343   4.975   6.176   9.583 -0.4195  0.8533 -2.9287
   53CHL1   C14 6344   5.067   6.074   9.420  0.1530 -0.0950  0.3335
   53CHL1   H14 6345   5.151   6.001   9.422  1.5890  1.4471 -0.9498
   53CHL1   C15 6346   5.124   6.178   9.315 -0.0042 -0.3028 -0.6033
   53CHL1  H15A 6347   5.068   6.273   9.322  0.6185 -0.0174  1.0214
   53CHL1  H15B 6348   5.233   6.187   9.333 -0.5108  0.8416  2.5260
   53CHL1   C16 6349   5.080   6.113   9.182 -0.1603  0.7973  0.3399
   53CHL1  H16A 6350   5.022   6.190   9.126  0.8260 -0.7205 -3.0225
   53CHL1  H16B 6351   5.171   6.091   9.124  1.5134 -0.4589  3.2264
   53CHL1   C17 6352   4.997   5.984   9.219 -0.2666  0.0431 -1.0119
   53CHL1   H17 6353   5.062   5.893   9.222 -4.5182 -3.3185 -1.7997
   53CHL1   C13 6354   4.946   6.006   9.360  0.8172 -0.0188 -0.5532
   53CHL1   C18 6355   4.819   6.097   9.347 -0.1019  0.6496  0.7984
   53CHL1  H18A 6356   4.785   6.112   9.452 -1.0087  0.0163  0.6085
   53CHL1  H18B 6357   4.850   6.191   9.296  1.5119  1.5190  3.2318
   53CHL1  H18C 6358   4.738   6.048   9.288  0.3968  2.4325 -1.5153
   53CHL1   C12 6359   4.917   5.873   9.441  0.3152  0.3070  0.8466
   53CHL1  H12A 6360   4.827   5.811   9.417 -0.8826  1.3385  2.4640
   53CHL1  H12B 6361   4.991   5.792   9.429 -1.8715 -1.8923  1.3115
   53CHL1   C11 6362   4.899   5.901   9.591 -0.2878 -0.0916 -0.2818
   53CHL1  H11A 6363   4.804   5.958   9.601 -0.3192 -0.2176  0.1555
   53CHL1  H11B 6364   4.894   5.813   9.659  1.1829  0.2963  0.3514
   53CHL1    C9 6365   5.021   5.979   9.649 -0.5505  0.1271 -0.1708
   53CHL1    H9 6366   5.104   5.906   9.643 -0.6354 -0.0635  0.8108
   53CHL1   C10 6367   5.006   6.012   9.804  0.4246  0.6453 -0.0027
   53CHL1   C19 6368   4.861   6.062   9.825 -0.3072 -0.3253 -0.1522
   53CHL1  H19A 6369   4.846   6.100   9.928 -0.0541 -2.1545  0.6011
   53CHL1  H19B 6370   4.846   6.135   9.743  1.6879 -0.2080 -0.4711
   53CHL1  H19C 6371   4.783   5.984   9.818  0.0750 -0.7026 -0.2511
   53CHL1    C1 6372   5.033   5.886   9.888 -0.0839  0.6637 -0.3535
   53CHL1   H1A 6373   4.971   5.795   9.871 -2.3674  1.9435  0.5999
   53CHL1   H1B 6374   5.139   5.868   9.862 -0.5361 -0.7441 -1.3256
   53CHL1    C2 6375   5.027   5.913  10.035  0.6543 -0.0837  0.1392
   53CHL1   H2A 6376   5.058   5.818  10.083  0.1371 -0.7653 -0.8607
   53CHL1   H2B 6377   4.931   5.952  10.075  0.6580  1.7959 -1.5524
   53CHL1   C20 6378   4.898   5.935   9.110  0.3226 -0.2093  0.3865
   53CHL1   H20 6379   4.816   6.010   9.096 -1.8258 -2.5189 -0.2035
   53CHL1   C21 6380   4.832   5.802   9.144  0.2416 -0.0015 -0.2199
   53CHL1  H21A 6381   4.809   5.746   9.052  1.0460  0.0496 -0.4574
   53CHL1  H21B 6382   4.739   5.814   9.204 -0.8563 -2.1013 -1.4066
   53CHL1  H21C 6383   4.901   5.746   9.211  1.3315  1.6907  0.1347
   53CHL1   C22 6384   4.972   5.926   8.971 -0.0414  0.6973 -1.0487
   53CHL1  H22A 6385   5.079   5.952   8.979 -0.2855  1.2297  1.5822
   53CHL1  H22B 6386   4.969   5.825   8.926 -0.3631 -0.1583  0.7980
   53CHL1   C23 6387   4.917   6.028   8.872 -0.1562 -0.1078  0.5963
   53CHL1  H23A 6388   4.806   6.029   8.872 -0.1874 -0.5574  1.9482
   53CHL1  H23B 6389   4.939   6.127   8.919 -2.0702  1.8563 -2.2976
   53CHL1   C24 6390   4.977   6.024   8.737 -0.3620 -0.4411 -0.4429
   53CHL1  H24A 6391   4.977   5.924   8.688 -1.2622 -1.2522  1.1320
   53CHL1  H24B 6392   4.914   6.084   8.668  0.6579  0.7967 -0.3287
   53CHL1   C25 6393   5.121   6.092   8.730 -0.1603  0.1011 -0.1241
   53CHL1   H25 6394   5.178   6.049   8.816 -0.9347 -0.1305  0.2825
   53CHL1   C26 6395   5.190   6.058   8.602  0.5279  0.6092  0.1708
   53CHL1  H26A 6396   5.178   5.947   8.593 -1.1670  0.7072  0.9049
   53CHL1  H26B 6397   5.126   6.097   8.520  0.1640 -1.3717 -0.5531
   53CHL1  H26C 6398   5.296   6.092   8.601 -0.0279  2.4308 -0.0269
   53CHL1   C27 6399   5.125   6.241   8.759 -0.8402  0.4924 -0.4367
   53CHL1  H27A 6400   5.217   6.279   8.710  0.1307  0.5651  1.3596
   53CHL1  H27B 6401   5.038   6.291   8.709 -1.3764 -0.0801 -0.0879
   53CHL1  H27C 6402   5.125   6.258   8.869 -1.4655  0.4637 -0.4268
   54CHL1    C3 6403   3.676   4.176  10.258 -0.0191 -0.0204 -0.0288
   54CHL1    H3 6404   3.774   4.142  10.218  0.5732  2.2118 -0.6406
   54CHL1    O3 6405   3.695   4.214  10.399  0.3525  0.5266 -0.4152
   54CHL1   H3' 6406   3.614   4.256  10.428 -0.5651 -0.0269 -2.0750
   54CHL1    C4 6407   3.629   4.300  10.196 -0.0111 -0.1606  0.9757
   54CHL1   H4A 6408   3.531   4.327  10.240 -1.9331 -3.3924 -0.8987
   54CHL1   H4B 6409   3.707   4.377  10.211  1.7874 -1.6848  0.0069
   54CHL1    C5 6410   3.608   4.287  10.046  0.4111  0.4206  0.2894
   54CHL1    C6 6411   3.679   4.378   9.964  0.5156  0.4474 -0.1472
   54CHL1    H6 6412   3.747   4.450  10.012  2.9557 -2.6728  1.5077
   54CHL1    C7 6413   3.670   4.378   9.816 -0.5519 -0.1369 -0.1668
   54CHL1   H7A 6414   3.666   4.477   9.765  3.5177 -0.5621 -1.6212
   54CHL1   H7B 6415   3.767   4.338   9.780 -0.4579 -0.2162  0.1743
   54CHL1    C8 6416   3.559   4.278   9.769  0.8494  0.0338 -0.1962
   54CHL1    H8 6417   3.463   4.331   9.783  2.0211  2.5799 -1.1340
   54CHL1   C14 6418   3.596   4.229   9.635 -0.7211  0.3500 -0.0724
   54CHL1   H14 6419   3.694   4.176   9.644 -0.1244  1.3844 -0.2787
   54CHL1   C15 6420   3.630   4.327   9.525 -0.3906  0.0645  0.0177
   54CHL1  H15A 6421   3.578   4.426   9.530 -1.6319 -0.5975  0.8395
   54CHL1  H15B 6422   3.737   4.354   9.532 -0.5262  0.3332  1.4449
   54CHL1   C16 6423   3.605   4.254   9.394  0.0212 -0.0384 -0.3500
   54CHL1  H16A 6424   3.523   4.299   9.334 -0.6777 -2.6624 -1.5333
   54CHL1  H16B 6425   3.701   4.252   9.337 -0.2970 -0.3387 -0.8845
   54CHL1   C17 6426   3.566   4.108   9.425 -0.3870 -0.0650 -0.5396
   54CHL1   H17 6427   3.659   4.055   9.456  1.4025  3.9430  1.7672
   54CHL1   C13 6428   3.494   4.134   9.559  0.1254 -0.8324  0.3815
   54CHL1   C18 6429   3.362   4.203   9.542  0.2954  0.4866  0.1704
   54CHL1  H18A 6430   3.319   4.221   9.643  1.6751  0.3272  0.8131
   54CHL1  H18B 6431   3.374   4.294   9.480  3.8948  0.0749  0.0175
   54CHL1  H18C 6432   3.295   4.131   9.490 -0.1250 -0.1967  1.5972
   54CHL1   C12 6433   3.485   4.011   9.653  0.1320 -0.3143 -0.2176
   54CHL1  H12A 6434   3.409   3.941   9.612  0.7393 -0.9672 -0.2372
   54CHL1  H12B 6435   3.574   3.946   9.655  0.7018  0.4681  0.2587
   54CHL1   C11 6436   3.451   4.043   9.797 -0.3448  0.7055 -0.0646
   54CHL1  H11A 6437   3.345   4.074   9.810 -0.8543 -1.1287  0.4824
   54CHL1  H11B 6438   3.452   3.944   9.849 -1.5007  0.7676  0.1127
   54CHL1    C9 6439   3.549   4.148   9.851  0.6786  0.3094  0.5381
   54CHL1    H9 6440   3.651   4.105   9.843  1.3784  1.8085  1.0872
   54CHL1   C10 6441   3.523   4.171  10.002 -0.4647  0.7581 -0.0876
   54CHL1   C19 6442   3.368   4.201  10.025 -0.0713 -0.3905  0.4050
   54CHL1  H19A 6443   3.311   4.106  10.015 -0.6312  0.1677 -2.8855
   54CHL1  H19B 6444   3.351   4.244  10.126 -1.9936 -3.2493  1.4321
   54CHL1  H19C 6445   3.335   4.269   9.944  1.8015 -1.5379 -1.4333
   54CHL1    C1 6446   3.555   4.042  10.080 -0.3501 -0.0107 -0.8612
   54CHL1   H1A 6447   3.472   3.967  10.075  0.1756 -0.7049  0.3313
   54CHL1   H1B 6448   3.646   3.999  10.034 -0.3164 -0.6975 -0.1866
   54CHL1    C2 6449   3.562   4.075  10.236  0.3979  0.1528  0.3213
   54CHL1   H2A 6450   3.589   3.984  10.293  3.6206 -1.3933 -3.2253
   54CHL1   H2B 6451   3.468   4.118  10.278  1.0945  0.5304  1.5233
   54CHL1   C20 6452   3.490   4.044   9.306 -0.2229  0.5673  0.2467
   54CHL1   H20 6453   3.395   4.099   9.287  0.5823  1.7059 -0.6042
   54CHL1   C21 6454   3.449   3.897   9.337 -0.0542 -0.3262  0.3870
   54CHL1  H21A 6455   3.414   3.846   9.245  0.3626  1.4196 -0.7839
   54CHL1  H21B 6456   3.363   3.904   9.407 -3.2872 -1.5430 -3.1288
   54CHL1  H21C 6457   3.531   3.840   9.387  1.1772  1.1143  0.0925
   54CHL1   C22 6458   3.572   4.062   9.174  0.1686  0.1771  0.1512
   54CHL1  H22A 6459   3.574   4.165   9.133 -0.4982 -0.8977 -2.8674
   54CHL1  H22B 6460   3.680   4.037   9.181  0.0407 -0.3627  0.2393
   54CHL1   C23 6461   3.527   3.990   9.048 -0.0504 -0.0628  0.4051
   54CHL1  H23A 6462   3.543   3.881   9.060 -0.8282 -0.1399  0.7979
   54CHL1  H23B 6463   3.418   4.005   9.032 -0.0332  0.6833  0.9591
   54CHL1   C24 6464   3.605   4.031   8.925  0.3342 -0.4367  0.0183
   54CHL1  H24A 6465   3.615   4.141   8.937 -1.9862  0.1226 -2.1408
   54CHL1  H24B 6466   3.703   3.979   8.926 -0.0457 -1.1570  0.6610
   54CHL1   C25 6467   3.539   4.015   8.795 -0.7544 -0.4518  0.4331
   54CHL1   H25 6468   3.435   4.056   8.798 -0.7930 -0.3204 -1.5036
   54CHL1   C26 6469   3.627   4.087   8.693 -0.2147 -0.1938 -0.0660
   54CHL1  H26A 6470   3.717   4.024   8.676  0.6274  1.0809 -0.4931
   54CHL1  H26B 6471   3.576   4.113   8.598  0.3866  1.0384 -0.0706
   54CHL1  H26C 6472   3.657   4.183   8.741  0.7058 -0.9615  0.9566
   54CHL1   C27 6473   3.516   3.872   8.758 -0.2872 -0.0752  0.5081
   54CHL1  H27A 6474   3.455   3.811   8.829 -0.2915 -1.7293 -0.8448
   54CHL1  H27B 6475   3.484   3.849   8.654  2.6439  0.8219 -0.6846
   54CHL1  H27C 6476   3.614   3.822   8.775 -0.9423 -1.1403  1.2899
   55CHL1    C3 6477   4.614   5.815  10.019 -0.6862 -0.2119  0.5788
   55CHL1    H3 6478   4.708   5.872  10.003  0.9670 -2.7379  0.5714
   55CHL1    O3 6479   4.619   5.790  10.151 -0.1864 -0.2530 -0.0204
   55CHL1   H3' 6480   4.548   5.726  10.164  0.5764 -1.3153 -0.8623
   55CHL1    C4 6481   4.486   5.882   9.974  0.3536 -0.0425  0.2790
   55CHL1   H4A 6482   4.403   5.822  10.018  0.4489 -1.8459 -1.8278
   55CHL1   H4B 6483   4.492   5.979  10.027  1.3394 -0.2312  0.5360
   55CHL1    C5 6484   4.459   5.901   9.823  0.0041 -0.2811  0.2780
   55CHL1    C6 6485   4.416   6.016   9.765 -0.2266 -0.3083 -0.4922
   55CHL1    H6 6486   4.398   6.104   9.828 -2.4883 -1.6932  0.9323
   55CHL1    C7 6487   4.388   6.035   9.619  0.0143  0.6896 -0.6397
   55CHL1   H7A 6488   4.295   6.093   9.605 -1.4425 -1.1435  0.7897
   55CHL1   H7B 6489   4.478   6.092   9.588 -0.6226  2.2774  0.3609
   55CHL1    C8 6490   4.373   5.897   9.543 -0.1589 -0.3004 -0.0672
   55CHL1    H8 6491   4.273   5.854   9.565 -1.7371  1.5009 -3.0533
   55CHL1   C14 6492   4.379   5.926   9.385 -0.3966  0.3387 -0.2337
   55CHL1   H14 6493   4.476   5.977   9.369  1.2603 -2.2967  0.7861
   55CHL1   C15 6494   4.275   6.020   9.325 -0.1266 -0.8076 -0.1046
   55CHL1  H15A 6495   4.172   5.997   9.359  0.1070 -0.7229  0.6621
   55CHL1  H15B 6496   4.305   6.123   9.351  2.4073 -1.5735  0.3002
   55CHL1   C16 6497   4.285   5.991   9.169  0.1982  0.1752 -0.3480
   55CHL1  H16A 6498   4.185   5.953   9.139 -0.0410  0.4810  0.0612
   55CHL1  H16B 6499   4.325   6.077   9.112  3.3145 -0.9449 -0.0764
   55CHL1   C17 6500   4.390   5.869   9.157  0.0400  0.5837 -0.8149
   55CHL1   H17 6501   4.485   5.922   9.138  0.1531  0.2667 -1.1370
   55CHL1   C13 6502   4.383   5.800   9.298  1.2593 -0.5772  0.2396
   55CHL1   C18 6503   4.253   5.722   9.318 -0.2455  0.3040  0.0248
   55CHL1  H18A 6504   4.166   5.790   9.301  0.3020  0.8135 -0.8357
   55CHL1  H18B 6505   4.258   5.647   9.236  3.2425  1.2017 -0.7660
   55CHL1  H18C 6506   4.242   5.676   9.418 -0.9019 -1.2364 -0.7279
   55CHL1   C12 6507   4.512   5.727   9.346  0.5644 -0.2187  0.6556
   55CHL1  H12A 6508   4.535   5.630   9.296 -2.0211 -1.9162  2.5168
   55CHL1  H12B 6509   4.596   5.799   9.334  1.0667 -0.9612 -0.4506
   55CHL1   C11 6510   4.513   5.690   9.488 -0.2805 -0.0379 -0.3937
   55CHL1  H11A 6511   4.443   5.608   9.512 -0.2845 -0.6461 -2.3124
   55CHL1  H11B 6512   4.615   5.656   9.514 -0.1702  0.6238  0.0824
   55CHL1    C9 6513   4.487   5.807   9.586 -0.3431 -0.1504 -0.5909
   55CHL1    H9 6514   4.581   5.866   9.576  0.0627 -0.9690 -1.8495
   55CHL1   C10 6515   4.484   5.772   9.740 -0.2778 -0.6655  0.4767
   55CHL1   C19 6516   4.378   5.663   9.761 -0.4223 -0.1563 -0.1961
   55CHL1  H19A 6517   4.380   5.648   9.871  1.7449  0.3765 -0.1141
   55CHL1  H19B 6518   4.283   5.702   9.719  1.7292  3.0894 -2.5513
   55CHL1  H19C 6519   4.404   5.568   9.709  0.7311 -0.2611  0.5458
   55CHL1    C1 6520   4.622   5.719   9.782 -0.1492 -0.2531  0.6296
   55CHL1   H1A 6521   4.639   5.629   9.719  2.1468 -0.3472  1.3227
   55CHL1   H1B 6522   4.700   5.792   9.756 -0.6827  0.3058  0.5711
   55CHL1    C2 6523   4.636   5.685   9.935 -0.3778 -0.4910 -0.7547
   55CHL1   H2A 6524   4.741   5.657   9.955 -1.2941 -2.8817  1.2080
   55CHL1   H2B 6525   4.563   5.607   9.963 -1.2141  0.3977 -0.3924
   55CHL1   C20 6526   4.371   5.793   9.031  0.5579  0.2264 -0.5062
   55CHL1   H20 6527   4.263   5.767   9.026  0.4471  0.1614  1.3663
   55CHL1   C21 6528   4.464   5.678   9.022 -0.3670 -0.4856 -0.8315
   55CHL1  H21A 6529   4.460   5.627   8.923  0.0316  0.1717 -1.1953
   55CHL1  H21B 6530   4.446   5.605   9.104  0.4588 -0.4803 -0.6372
   55CHL1  H21C 6531   4.569   5.713   9.032  0.2018 -1.9058 -1.4999
   55CHL1   C22 6532   4.376   5.886   8.902 -0.0539 -0.5499 -0.1683
   55CHL1  H22A 6533   4.375   5.814   8.817  1.5305  0.3767 -1.0102
   55CHL1  H22B 6534   4.292   5.959   8.905  0.6516  0.2544  0.5488
   55CHL1   C23 6535   4.514   5.968   8.888 -0.0426  0.5333 -0.3302
   55CHL1  H23A 6536   4.529   6.035   8.975  1.3764  0.4774 -0.5151
   55CHL1  H23B 6537   4.593   5.890   8.891 -1.1826 -0.6344  0.7952
   55CHL1   C24 6538   4.521   6.048   8.762 -0.7473  0.5575 -0.3810
   55CHL1  H24A 6539   4.433   6.117   8.765 -1.5156 -0.4107  0.0735
   55CHL1  H24B 6540   4.613   6.110   8.756 -0.2356 -0.2653 -1.2884
   55CHL1   C25 6541   4.504   5.974   8.624  0.4964  0.2163  0.0209
   55CHL1   H25 6542   4.419   5.903   8.619  0.0329  0.8076 -0.5762
   55CHL1   C26 6543   4.476   6.082   8.517  0.2865  0.2030  0.2819
   55CHL1  H26A 6544   4.473   6.047   8.412  0.8870  2.7145 -0.6473
   55CHL1  H26B 6545   4.378   6.133   8.532  0.0242 -0.7014  1.9068
   55CHL1  H26C 6546   4.560   6.155   8.520  0.5342  0.0107 -1.2372
   55CHL1   C27 6547   4.630   5.893   8.583 -0.0267  0.4284 -0.1806
   55CHL1  H27A 6548   4.662   5.818   8.658 -0.5012  0.2250 -0.1787
   55CHL1  H27B 6549   4.603   5.837   8.491 -0.1937  0.5250 -0.1906
   55CHL1  H27C 6550   4.713   5.962   8.554  0.6557  0.1826  1.1109
   56CHL1    C3 6551   6.245   3.993  10.223 -0.8724 -0.9937 -0.6222
   56CHL1    H3 6552   6.291   3.892  10.212  1.7642  0.1711 -1.1686
   56CHL1    O3 6553   6.182   3.987  10.350 -0.1006  0.6289  0.2599
   56CHL1   H3' 6554   6.225   4.052  10.406 -2.0621  2.0000  0.2920
   56CHL1    C4 6555   6.355   4.101  10.208 -0.2691 -0.5598  0.0914
   56CHL1   H4A 6556   6.296   4.193  10.229 -0.5206 -0.5702 -0.5356
   56CHL1   H4B 6557   6.428   4.097  10.291 -0.4048 -0.5031  0.2135
   56CHL1    C5 6558   6.413   4.119  10.064 -1.3280  0.5510  0.2403
   56CHL1    C6 6559   6.542   4.116  10.038 -0.6208  0.1067  0.2346
   56CHL1    H6 6560   6.618   4.115  10.117 -1.8669  0.3974  1.4717
   56CHL1    C7 6561   6.604   4.135   9.898  0.3169 -0.1648  0.4275
   56CHL1   H7A 6562   6.675   4.220   9.887 -1.1710  1.0896  0.1274
   56CHL1   H7B 6563   6.660   4.041   9.880 -1.4577 -1.2374  0.2170
   56CHL1    C8 6564   6.495   4.146   9.785  0.4380 -0.4044  0.8256
   56CHL1    H8 6565   6.477   4.255   9.773  2.0892  0.0594  2.1295
   56CHL1   C14 6566   6.550   4.103   9.650  1.5701 -0.5450 -0.8677
   56CHL1   H14 6567   6.567   3.994   9.663  1.8789 -0.2823  1.1771
   56CHL1   C15 6568   6.682   4.160   9.604 -0.6349  0.2976  0.2255
   56CHL1  H15A 6569   6.684   4.271   9.607 -0.6550  0.2780  1.2644
   56CHL1  H15B 6570   6.758   4.123   9.676 -1.9379 -0.2529  1.3635
   56CHL1   C16 6571   6.689   4.110   9.461  0.1978 -0.1834  0.2943
   56CHL1  H16A 6572   6.719   4.193   9.394 -1.9436  0.4183 -0.0042
   56CHL1  H16B 6573   6.758   4.024   9.452 -0.9207 -0.9223 -1.8497
   56CHL1   C17 6574   6.546   4.062   9.418  0.0856 -0.5663  0.6467
   56CHL1   H17 6575   6.559   3.953   9.436  1.6550 -0.5589 -0.3065
   56CHL1   C13 6576   6.457   4.120   9.527  0.1982 -0.1639 -0.4706
   56CHL1   C18 6577   6.426   4.272   9.499 -0.1514  0.0625 -0.5725
   56CHL1  H18A 6578   6.406   4.325   9.595 -0.0761 -0.4493 -0.2696
   56CHL1  H18B 6579   6.518   4.319   9.458  0.6108 -0.3249  0.6385
   56CHL1  H18C 6580   6.344   4.280   9.424 -1.6760  0.5097  1.0760
   56CHL1   C12 6581   6.331   4.042   9.557  0.8066  0.7729  0.5547
   56CHL1  H12A 6582   6.261   4.035   9.471  0.5143 -0.5346  0.8690
   56CHL1  H12B 6583   6.348   3.933   9.575  0.9185  0.2861 -2.0703
   56CHL1   C11 6584   6.267   4.085   9.692 -0.5410  0.4246 -0.4919
   56CHL1  H11A 6585   6.240   4.193   9.693 -1.3184  0.4866  5.1354
   56CHL1  H11B 6586   6.166   4.039   9.690 -1.3197  2.0672 -2.1525
   56CHL1    C9 6587   6.366   4.073   9.816 -0.0554 -0.9083 -0.1408
   56CHL1    H9 6588   6.386   3.964   9.830 -0.3879 -1.0439 -0.6614
   56CHL1   C10 6589   6.308   4.117   9.951  0.3102 -0.0240  0.3023
   56CHL1   C19 6590   6.251   4.256   9.942  0.6655 -0.0491 -0.2664
   56CHL1  H19A 6591   6.198   4.262  10.039 -1.1709 -0.1773 -1.2251
   56CHL1  H19B 6592   6.325   4.339   9.939  1.0253 -0.3177  0.8258
   56CHL1  H19C 6593   6.169   4.273   9.870 -0.6455  1.1697  1.4564
   56CHL1    C1 6594   6.202   4.005   9.985  0.0997 -1.3775 -0.0003
   56CHL1   H1A 6595   6.116   4.008   9.915  0.4837 -2.6557 -0.5397
   56CHL1   H1B 6596   6.260   3.912   9.973 -0.3516 -1.4537 -1.7912
   56CHL1    C2 6597   6.129   4.011  10.118 -0.6088 -0.2270 -0.8798
   56CHL1   H2A 6598   6.064   3.921  10.115  0.4824 -1.0222 -1.3636
   56CHL1   H2B 6599   6.068   4.102  10.135 -0.8684 -0.7679  1.5294
   56CHL1   C20 6600   6.501   4.078   9.270 -0.3146 -0.0434  0.8504
   56CHL1   H20 6601   6.494   4.187   9.247  2.1609 -0.1267 -0.6609
   56CHL1   C21 6602   6.367   4.006   9.245 -0.4004  0.1644 -0.4307
   56CHL1  H21A 6603   6.352   3.987   9.137 -0.1524  1.3831 -0.6974
   56CHL1  H21B 6604   6.293   4.080   9.284 -1.0197  0.5036 -2.1540
   56CHL1  H21C 6605   6.370   3.909   9.299 -3.4144 -0.1834 -0.6758
   56CHL1   C22 6606   6.610   4.037   9.172 -0.2447 -0.2528  0.2564
   56CHL1  H22A 6607   6.696   4.105   9.187  1.1867 -2.1051  0.9238
   56CHL1  H22B 6608   6.650   3.934   9.187 -0.7440 -0.4946 -0.0261
   56CHL1   C23 6609   6.573   4.050   9.021  0.6073 -0.8691 -0.4131
   56CHL1  H23A 6610   6.484   3.987   8.997 -0.2000 -0.8170  2.1493
   56CHL1  H23B 6611   6.551   4.157   9.003  2.7575 -0.2758  0.2153
   56CHL1   C24 6612   6.682   4.026   8.920  0.2342 -0.9189 -0.0217
   56CHL1  H24A 6613   6.640   4.058   8.822 -0.1155  1.6471  0.8633
   56CHL1  H24B 6614   6.766   4.091   8.952 -0.9614  0.5482  0.2533
   56CHL1   C25 6615   6.733   3.880   8.911  0.3025 -0.6352  0.2262
   56CHL1   H25 6616   6.737   3.843   9.015 -0.1382 -0.3617  0.3404
   56CHL1   C26 6617   6.633   3.780   8.845 -0.2815 -0.3639 -0.9854
   56CHL1  H26A 6618   6.528   3.790   8.879  0.4104 -1.9877  1.9498
   56CHL1  H26B 6619   6.628   3.809   8.738 -0.8443  1.8707 -0.4046
   56CHL1  H26C 6620   6.664   3.674   8.856  1.1750  0.0011 -1.3353
   56CHL1   C27 6621   6.878   3.871   8.848 -0.2852  0.3491  0.1503
   56CHL1  H27A 6622   6.882   3.915   8.746  1.5551 -0.7754 -0.3265
   56CHL1  H27B 6623   6.950   3.923   8.914  0.2934 -1.0666  0.6700
   56CHL1  H27C 6624   6.906   3.763   8.845  0.8244  0.5689  1.5923
   57CHL1    C3 6625   3.715   0.992  10.446 -0.1130 -0.0855 -1.4619
   57CHL1    H3 6626   3.616   1.027  10.410 -0.8178 -0.1778  0.2705
   57CHL1    O3 6627   3.697   0.920  10.567  0.3773  0.2398 -0.0782
   57CHL1   H3' 6628   3.783   0.906  10.606  0.3689  1.2185  0.3177
   57CHL1    C4 6629   3.770   0.891  10.345 -0.4701  0.4034 -0.0301
   57CHL1   H4A 6630   3.848   0.823  10.386 -2.3638 -1.4611  0.6750
   57CHL1   H4B 6631   3.685   0.822  10.324 -0.3237  0.3839 -0.5772
   57CHL1    C5 6632   3.812   0.947  10.207 -0.0388  0.4716 -0.2887
   57CHL1    C6 6633   3.756   0.911  10.089  0.3539  0.0827  0.0016
   57CHL1    H6 6634   3.704   0.814  10.088  2.5457 -1.1517 -0.0738
   57CHL1    C7 6635   3.795   0.969   9.958  0.4966  0.4392  0.1156
   57CHL1   H7A 6636   3.786   0.893   9.878  2.7776 -0.1714  0.3528
   57CHL1   H7B 6637   3.725   1.045   9.920 -0.8200 -1.2445 -0.9660
   57CHL1    C8 6638   3.934   1.040   9.969 -0.9375 -0.5100  0.5254
   57CHL1    H8 6639   4.013   0.963   9.981  0.1144  0.6926  1.6816
   57CHL1   C14 6640   3.958   1.115   9.843 -0.2236  0.4404 -0.2342
   57CHL1   H14 6641   3.879   1.194   9.842 -0.0229  0.7390  1.8916
   57CHL1   C15 6642   3.945   1.038   9.708 -0.1290  0.0679 -0.1340
   57CHL1  H15A 6643   3.987   0.937   9.727 -0.6649 -0.2970 -0.8219
   57CHL1  H15B 6644   3.839   1.025   9.679  0.0271  1.9435 -1.7897
   57CHL1   C16 6645   4.019   1.127   9.610 -0.6623  0.3182  0.7636
   57CHL1  H16A 6646   4.109   1.081   9.564 -0.4424  1.9651 -0.5573
   57CHL1  H16B 6647   3.961   1.182   9.533 -1.6632 -2.7860 -0.8708
   57CHL1   C17 6648   4.084   1.242   9.685  0.0241 -0.5407  0.4069
   57CHL1   H17 6649   4.011   1.324   9.701  0.7631  0.3157 -0.5001
   57CHL1   C13 6650   4.090   1.195   9.835 -0.1478  0.4992  0.0519
   57CHL1   C18 6651   4.209   1.097   9.859  0.4625 -0.2181 -0.1421
   57CHL1  H18A 6652   4.309   1.140   9.839  0.0463  0.6107 -0.4800
   57CHL1  H18B 6653   4.209   1.049   9.959  1.4944 -0.5780 -0.3000
   57CHL1  H18C 6654   4.200   1.016   9.783 -0.5621  0.5063 -0.8180
   57CHL1   C12 6655   4.078   1.300   9.952 -0.4873  0.2155 -0.3066
   57CHL1  H12A 6656   4.163   1.371   9.955  0.1040 -0.5029  0.2032
   57CHL1  H12B 6657   3.993   1.368   9.933 -0.1621  0.8614  0.4711
   57CHL1   C11 6658   4.057   1.230  10.086  0.4498  0.6686  0.0715
   57CHL1  H11A 6659   4.153   1.189  10.125  0.4001  0.8477  0.3872
   57CHL1  H11B 6660   4.027   1.322  10.141 -0.5353  1.5512 -1.8752
   57CHL1    C9 6661   3.936   1.142  10.089  0.2567 -0.1904  0.0176
   57CHL1    H9 6662   3.849   1.200  10.053 -0.2041 -1.0741 -0.3193
   57CHL1   C10 6663   3.907   1.068  10.221 -0.0269  0.8139  0.5181
   57CHL1   C19 6664   4.046   1.015  10.278 -0.1161 -0.7507  0.2314
   57CHL1  H19A 6665   4.040   0.946  10.365  0.2067 -1.6320 -0.4326
   57CHL1  H19B 6666   4.106   0.955  10.205  1.9307 -1.4640  2.3654
   57CHL1  H19C 6667   4.109   1.098  10.316  1.3237 -1.4008 -0.6321
   57CHL1    C1 6668   3.852   1.167  10.325 -0.4227 -0.5810  0.2951
   57CHL1   H1A 6669   3.931   1.240  10.353  1.1528 -2.5444  1.1878
   57CHL1   H1B 6670   3.764   1.218  10.280  0.3178 -0.8380 -1.5495
   57CHL1    C2 6671   3.803   1.121  10.468  0.1723 -1.0442  0.3267
   57CHL1   H2A 6672   3.751   1.197  10.529  2.0240  0.7313 -0.1861
   57CHL1   H2B 6673   3.897   1.110  10.527  0.1360  1.4641  0.9647
   57CHL1   C20 6674   4.212   1.294   9.623  0.0325  0.1154  0.3315
   57CHL1   H20 6675   4.292   1.217   9.622  0.7954  0.8865 -0.8478
   57CHL1   C21 6676   4.265   1.405   9.712  0.2537  0.6686 -0.4526
   57CHL1  H21A 6677   4.186   1.482   9.728 -2.0022 -1.3941 -1.1054
   57CHL1  H21B 6678   4.357   1.457   9.677  1.7779 -1.3484  0.3151
   57CHL1  H21C 6679   4.298   1.371   9.812 -0.4612  3.0440  0.6550
   57CHL1   C22 6680   4.187   1.358   9.487  0.1746  0.5822 -0.1428
   57CHL1  H22A 6681   4.174   1.272   9.419 -1.1169  0.4868  0.1978
   57CHL1  H22B 6682   4.100   1.427   9.472  1.5915  1.9442 -2.7916
   57CHL1   C23 6683   4.314   1.432   9.431  0.0392 -0.5469  0.2887
   57CHL1  H23A 6684   4.327   1.528   9.484  2.1740 -0.9810  0.6192
   57CHL1  H23B 6685   4.405   1.372   9.450  1.0795  1.6432  2.8036
   57CHL1   C24 6686   4.309   1.451   9.277  0.3768 -0.1364 -0.5484
   57CHL1  H24A 6687   4.293   1.347   9.241 -0.4547 -0.8855  1.7889
   57CHL1  H24B 6688   4.221   1.514   9.249  0.0013 -0.4059  0.0053
   57CHL1   C25 6689   4.436   1.511   9.214  0.3762  0.4137 -0.0444
   57CHL1   H25 6690   4.519   1.442   9.239 -0.1407 -0.6212 -1.1011
   57CHL1   C26 6691   4.420   1.522   9.059  0.5821  0.6403 -0.1322
   57CHL1  H26A 6692   4.392   1.421   9.022  0.1261  1.3040 -1.7019
   57CHL1  H26B 6693   4.337   1.591   9.032  0.1579  0.6797  1.2164
   57CHL1  H26C 6694   4.511   1.560   9.007  1.3934 -1.4944 -0.3597
   57CHL1   C27 6695   4.456   1.652   9.273 -0.5746 -0.5619 -0.2774
   57CHL1  H27A 6696   4.372   1.717   9.242  0.0399 -0.4123 -1.7125
   57CHL1  H27B 6697   4.465   1.639   9.383  0.6632 -0.3619 -0.3388
   57CHL1  H27C 6698   4.547   1.706   9.238 -2.0603  0.6054 -2.5695
   58CHL1    C3 6699   1.498   0.150  10.066  0.7282 -0.1565  0.7314
   58CHL1    H3 6700   1.569   0.193   9.992 -0.8930  1.3672 -0.0009
   58CHL1    O3 6701   1.568   0.158  10.188  1.2050 -0.0445 -0.1440
   58CHL1   H3' 6702   1.548   0.245  10.223 -0.6074 -0.3570 -0.2769
   58CHL1    C4 6703   1.368   0.235  10.066  0.2558  0.1853  0.7540
   58CHL1   H4A 6704   1.297   0.197  10.142  1.2339 -2.2658  0.5394
   58CHL1   H4B 6705   1.402   0.335  10.101  1.7137 -0.4529  1.2492
   58CHL1    C5 6706   1.301   0.234   9.935 -0.0131 -0.4782  1.1712
   58CHL1    C6 6707   1.287   0.345   9.849 -0.6092 -0.0020 -0.8408
   58CHL1    H6 6708   1.318   0.444   9.885 -1.9057 -0.3117  1.3295
   58CHL1    C7 6709   1.214   0.351   9.716 -0.2584  0.6205  0.0545
   58CHL1   H7A 6710   1.136   0.429   9.722 -0.4078  0.4107  1.3339
   58CHL1   H7B 6711   1.292   0.365   9.638  1.6479  0.1348  1.7782
   58CHL1    C8 6712   1.123   0.224   9.708 -0.7146 -0.3063 -0.1776
   58CHL1    H8 6713   1.038   0.243   9.777 -0.8747 -0.9766 -0.1841
   58CHL1   C14 6714   1.078   0.220   9.557 -0.3409 -0.0754 -0.2830
   58CHL1   H14 6715   1.172   0.206   9.500 -0.2473 -1.2445  0.1377
   58CHL1   C15 6716   1.000   0.346   9.505  0.1207 -0.9261  0.1169
   58CHL1  H15A 6717   0.919   0.369   9.577  2.8315  2.0774  2.5362
   58CHL1  H15B 6718   1.058   0.439   9.484 -1.7049 -0.0769 -1.4513
   58CHL1   C16 6719   0.934   0.294   9.378  0.2936  0.3266  0.0546
   58CHL1  H16A 6720   0.825   0.315   9.384 -0.4863 -2.4665 -2.0087
   58CHL1  H16B 6721   0.976   0.334   9.284 -0.5694 -0.5832 -0.7533
   58CHL1   C17 6722   0.967   0.141   9.373  0.3053  0.2485 -0.1548
   58CHL1   H17 6723   1.064   0.132   9.321  0.4179 -3.5865  0.4431
   58CHL1   C13 6724   0.992   0.103   9.515 -0.0786  0.8570  0.1939
   58CHL1   C18 6725   0.867   0.095   9.608 -0.0101  0.1012  0.4068
   58CHL1  H18A 6726   0.891   0.081   9.715  1.9297 -2.1873 -0.2433
   58CHL1  H18B 6727   0.796   0.180   9.593 -0.1122 -0.3451 -2.0516
   58CHL1  H18C 6728   0.809   0.004   9.580 -1.0485  0.4076  1.4708
   58CHL1   C12 6729   1.074  -0.032   9.545 -0.8773  0.2662 -0.2251
   58CHL1  H12A 6730   1.012  -0.121   9.522 -0.8782  0.3058 -0.3823
   58CHL1  H12B 6731   1.171  -0.033   9.491 -0.4775 -0.1508  0.4859
   58CHL1   C11 6732   1.135  -0.038   9.692  0.4768  0.0092  0.7687
   58CHL1  H11A 6733   1.046  -0.056   9.757 -0.3035 -0.9595 -0.5131
   58CHL1  H11B 6734   1.205  -0.124   9.704 -0.0875 -0.6226 -0.3126
   58CHL1    C9 6735   1.202   0.094   9.737  0.3905  0.0065  0.0926
   58CHL1    H9 6736   1.294   0.105   9.676  1.2803 -1.2169  1.1542
   58CHL1   C10 6737   1.258   0.093   9.885 -0.5204 -0.3658 -0.4913
   58CHL1   C19 6738   1.143   0.047   9.971  0.0733 -0.3752 -0.0758
   58CHL1  H19A 6739   1.050   0.108   9.973  1.0823  1.2095  0.1056
   58CHL1  H19B 6740   1.113  -0.056   9.941  0.5987 -0.8130  0.8621
   58CHL1  H19C 6741   1.174   0.047  10.078  0.4147  1.0083 -0.1524
   58CHL1    C1 6742   1.381  -0.005   9.901 -0.0079  0.2150 -0.8188
   58CHL1   H1A 6743   1.334  -0.103   9.882 -2.5627  1.3099 -0.6295
   58CHL1   H1B 6744   1.458  -0.001   9.822  1.3568 -1.6783  0.3431
   58CHL1    C2 6745   1.462   0.003  10.026  0.2462  0.2238 -0.3695
   58CHL1   H2A 6746   1.544  -0.069  10.008  0.1025  0.1330 -0.6549
   58CHL1   H2B 6747   1.393  -0.025  10.109 -0.4766  0.7785 -0.7697
   58CHL1   C20 6748   0.866   0.058   9.287  0.5906  0.0690  1.1876
   58CHL1   H20 6749   0.764   0.050   9.330  0.0874  0.7460  0.1718
   58CHL1   C21 6750   0.920  -0.084   9.260 -0.0556  0.2494 -0.4221
   58CHL1  H21A 6751   0.918  -0.159   9.341 -0.4989  2.0541  1.3303
   58CHL1  H21B 6752   1.028  -0.070   9.240  0.2933  0.8990  1.7203
   58CHL1  H21C 6753   0.874  -0.124   9.167 -0.3344 -0.6573  0.0928
   58CHL1   C22 6754   0.853   0.124   9.146  0.2016 -0.7308 -0.0197
   58CHL1  H22A 6755   0.835   0.232   9.167 -0.3627 -1.0824  1.4121
   58CHL1  H22B 6756   0.950   0.124   9.091 -0.1682  0.8756 -0.7424
   58CHL1   C23 6757   0.737   0.087   9.056 -0.7386 -0.2963  0.1646
   58CHL1  H23A 6758   0.729  -0.024   9.058  0.6647 -0.4183 -0.0118
   58CHL1  H23B 6759   0.645   0.109   9.115  0.4531  0.1255  1.9463
   58CHL1   C24 6760   0.721   0.150   8.920 -1.3337  0.6165 -0.2749
   58CHL1  H24A 6761   0.733   0.260   8.925  1.5073  0.3779 -0.1278
   58CHL1  H24B 6762   0.810   0.119   8.860  0.3476  0.0527  2.3191
   58CHL1   C25 6763   0.593   0.117   8.858  0.9139  0.4967  0.4234
   58CHL1   H25 6764   0.511   0.135   8.931  0.7874  2.5938 -0.1553
   58CHL1   C26 6765   0.550   0.199   8.734  0.0930 -0.1765 -0.2849
   58CHL1  H26A 6766   0.461   0.151   8.687 -1.2424  0.9247  1.0226
   58CHL1  H26B 6767   0.516   0.302   8.759 -3.5790 -1.8084  2.4973
   58CHL1  H26C 6768   0.631   0.191   8.660 -0.9519 -0.4985 -1.4278
   58CHL1   C27 6769   0.581  -0.033   8.828 -0.2205 -0.4062  0.1441
   58CHL1  H27A 6770   0.669  -0.061   8.766  1.5395 -0.0606  2.3487
   58CHL1  H27B 6771   0.577  -0.090   8.924 -2.3752 -0.0741  0.2881
   58CHL1  H27C 6772   0.490  -0.055   8.769 -1.0980  1.1405  0.8620
   59CHL1    C3 6773   0.032   4.936  10.308  0.1535 -0.8810 -0.6288
   59CHL1    H3 6774   0.001   4.830  10.304 -0.2758 -0.7270 -2.0090
   59CHL1    O3 6775   0.061   4.978  10.436 -0.1342  0.1941 -0.0281
   59CHL1   H3' 6776   0.106   5.062  10.424 -0.1398  0.6566  2.6649
   59CHL1    C4 6777   0.157   4.957  10.216 -0.4454  0.1866  0.3590
   59CHL1   H4A 6778   0.196   5.058  10.238 -0.0939  0.3194 -0.8023
   59CHL1   H4B 6779   0.235   4.886  10.249 -0.9327 -0.7942 -0.5080
   59CHL1    C5 6780   0.138   4.958  10.065 -0.3982 -0.3071 -0.9460
   59CHL1    C6 6781   0.217   4.891   9.990  0.1122  0.4864  0.1957
   59CHL1    H6 6782   0.299   4.829  10.029  0.4338 -1.2911 -2.9531
   59CHL1    C7 6783   0.207   4.886   9.841  0.1461 -0.1071  0.1255
   59CHL1   H7A 6784   0.304   4.929   9.806  0.1988  2.0212  2.5790
   59CHL1   H7B 6785   0.184   4.785   9.801  0.0947  0.2699 -0.8056
   59CHL1    C8 6786   0.106   4.983   9.783  0.5023 -0.4614 -0.1319
   59CHL1    H8 6787   0.159   5.080   9.775  1.3643 -0.9879 -0.9796
   59CHL1   C14 6788   0.076   4.946   9.641  0.1831  0.4543  0.2464
   59CHL1   H14 6789   0.020   4.851   9.647  0.2272  0.4922  1.7146
   59CHL1   C15 6790   0.194   4.930   9.548 -0.7961  0.0734  0.7979
   59CHL1  H15A 6791   0.264   5.014   9.572 -1.3618  0.8998 -0.3314
   59CHL1  H15B 6792   0.258   4.840   9.560 -0.0690  0.3580 -0.6246
   59CHL1   C16 6793   0.132   4.933   9.409 -0.3298 -0.1441 -0.9880
   59CHL1  H16A 6794   0.186   5.010   9.349  1.7782 -2.1519 -1.7906
   59CHL1  H16B 6795   0.131   4.834   9.360 -1.3119 -1.3699  1.3623
   59CHL1   C17 6796  -0.020   4.970   9.434  0.4840  0.5038  0.2955
   59CHL1   H17 6797  -0.070   4.871   9.441  0.2029  0.6048 -0.2029
   59CHL1   C13 6798  -0.027   5.035   9.575 -0.4195 -0.7626 -0.4975
   59CHL1   C18 6799   0.013   5.183   9.578 -0.2745  1.5479  1.0121
   59CHL1  H18A 6800   0.102   5.195   9.512 -2.8907  1.5337 -2.8475
   59CHL1  H18B 6801  -0.062   5.242   9.520 -1.3129 -1.7813 -1.3552
   59CHL1  H18C 6802   0.033   5.229   9.677 -0.2312  2.5883  0.5323
   59CHL1   C12 6803  -0.167   5.029   9.653 -0.3729  0.6754  0.3447
   59CHL1  H12A 6804  -0.238   5.104   9.611 -0.5736 -0.0056 -0.5546
   59CHL1  H12B 6805  -0.212   4.929   9.643 -0.1923  0.6676 -0.4823
   59CHL1   C11 6806  -0.145   5.064   9.806  0.0645 -0.7413 -0.5750
   59CHL1  H11A 6807  -0.145   5.174   9.820  3.2523 -0.6573 -0.6778
   59CHL1  H11B 6808  -0.236   5.037   9.863  0.9125 -2.0582  0.1990
   59CHL1    C9 6809  -0.020   5.000   9.873 -1.2273 -0.1467  0.7408
   59CHL1    H9 6810  -0.062   4.899   9.895 -1.2102  0.0940  1.9190
   59CHL1   C10 6811   0.019   5.041  10.020 -0.7655  0.5653 -0.8582
   59CHL1   C19 6812   0.058   5.184  10.031  0.1583 -0.0014  0.1075
   59CHL1  H19A 6813   0.142   5.213   9.964 -0.3701  0.9612 -0.1644
   59CHL1  H19B 6814  -0.023   5.251   9.996 -1.1155 -1.9252 -0.7737
   59CHL1  H19C 6815   0.091   5.224  10.130  1.0364  1.9403 -0.9133
   59CHL1    C1 6816  -0.104   5.008  10.110 -0.2300 -0.1378 -0.6790
   59CHL1   H1A 6817  -0.191   5.075  10.088 -0.3347 -0.0114  0.1148
   59CHL1   H1B 6818  -0.133   4.902  10.096  3.2419 -1.0636 -1.8119
   59CHL1    C2 6819  -0.080   5.030  10.263 -0.1216 -0.4402  0.6498
   59CHL1   H2A 6820  -0.177   5.008  10.313  0.2506 -3.3817  0.2745
   59CHL1   H2B 6821  -0.044   5.134  10.277  0.2839 -0.3993 -0.5894
   59CHL1   C20 6822  -0.061   5.047   9.305  0.5859 -0.1230  0.3121
   59CHL1   H20 6823  -0.000   5.139   9.313  0.7904  0.0891 -2.7925
   59CHL1   C21 6824  -0.211   5.071   9.319  0.0961 -0.6974 -0.6249
   59CHL1  H21A 6825  -0.219   5.144   9.402  0.2114 -0.7126 -0.6015
   59CHL1  H21B 6826  -0.272   4.978   9.332  3.4739 -2.7753  2.0947
   59CHL1  H21C 6827  -0.262   5.108   9.227 -2.2351 -0.7630  0.5491
   59CHL1   C22 6828  -0.023   4.977   9.165 -0.1219  0.1553  0.8803
   59CHL1  H22A 6829   0.084   4.946   9.168 -0.0939  0.1554  0.0849
   59CHL1  H22B 6830  -0.080   4.883   9.155  1.4538 -0.7660  0.1173
   59CHL1   C23 6831  -0.051   5.067   9.040  0.3311  0.2164  0.3714
   59CHL1  H23A 6832  -0.148   5.121   9.038  2.1901  3.8625 -0.1540
   59CHL1  H23B 6833   0.013   5.158   9.044 -0.8102  1.0297  0.8890
   59CHL1   C24 6834  -0.028   4.990   8.905 -0.4315  0.6904 -0.6762
   59CHL1  H24A 6835   0.078   4.959   8.911 -0.5181  0.2505 -1.3355
   59CHL1  H24B 6836  -0.095   4.901   8.901 -1.8453  1.7599 -1.5688
   59CHL1   C25 6837  -0.044   5.074   8.779  0.3209  0.1487  1.4554
   59CHL1   H25 6838   0.019   5.165   8.774 -1.5262  1.4503  0.5166
   59CHL1   C26 6839   0.021   4.991   8.666 -0.1522  0.4858 -0.4088
   59CHL1  H26A 6840  -0.000   5.024   8.562 -1.9579 -2.0988 -0.9729
   59CHL1  H26B 6841   0.127   4.974   8.696 -0.3621  1.7931  1.1963
   59CHL1  H26C 6842  -0.033   4.894   8.660 -0.8393  0.7613  1.0423
   59CHL1   C27 6843  -0.196   5.086   8.747 -0.7568 -0.0856  0.0003
   59CHL1  H27A 6844  -0.199   5.131   8.645  1.5114 -0.3022 -0.1961
   59CHL1  H27B 6845  -0.238   4.983   8.745 -0.3123 -0.2749  0.4260
   59CHL1  H27C 6846  -0.254   5.148   8.819 -1.4483 -0.4797 -0.2031
   60CHL1    C3 6847   3.645   3.014  10.081  0.9571 -0.0661 -0.1507
   60CHL1    H3 6848   3.718   3.072  10.020  1.1674 -1.0807 -0.8755
   60CHL1    O3 6849   3.650   3.059  10.218 -0.4030  0.1184  0.0805
   60CHL1   H3' 6850   3.577   3.023  10.268  0.2429 -0.8804  0.3320
   60CHL1    C4 6851   3.504   3.035  10.025  0.7468 -0.7182 -0.4663
   60CHL1   H4A 6852   3.441   2.970  10.089 -1.4017 -0.6815 -2.3937
   60CHL1   H4B 6853   3.477   3.142  10.039 -0.4870 -1.3958  3.3095
   60CHL1    C5 6854   3.495   2.990   9.883  0.0667  0.3671 -0.0897
   60CHL1    C6 6855   3.463   3.072   9.784 -0.3188 -0.2671 -0.3148
   60CHL1    H6 6856   3.435   3.173   9.818  0.1080 -0.6475  1.2562
   60CHL1    C7 6857   3.439   3.037   9.643 -0.3684 -0.1978  0.3988
   60CHL1   H7A 6858   3.352   3.060   9.578 -0.3328 -1.9561 -0.3063
   60CHL1   H7B 6859   3.528   3.075   9.588  0.3155 -1.4457  0.6001
   60CHL1    C8 6860   3.451   2.878   9.621  0.6020 -0.1446 -0.2605
   60CHL1    H8 6861   3.348   2.839   9.630  0.6902 -0.4751 -0.6698
   60CHL1   C14 6862   3.493   2.861   9.471 -0.4595  0.9490  0.3048
   60CHL1   H14 6863   3.598   2.896   9.466 -0.0711 -0.4097 -2.6339
   60CHL1   C15 6864   3.419   2.932   9.359  0.1094 -0.9440 -0.0828
   60CHL1  H15A 6865   3.309   2.925   9.375  0.2775 -2.3213  0.6120
   60CHL1  H15B 6866   3.444   3.038   9.337 -2.7863  0.2626  1.8398
   60CHL1   C16 6867   3.450   2.854   9.235 -0.6592  0.4687 -0.1643
   60CHL1  H16A 6868   3.359   2.810   9.189 -1.0545  0.5109  0.5561
   60CHL1  H16B 6869   3.508   2.907   9.156  0.2066  0.4952  0.4787
   60CHL1   C17 6870   3.543   2.732   9.282  0.1735 -0.7335  0.2413
   60CHL1   H17 6871   3.645   2.777   9.276 -0.1391 -0.0687 -0.2777
   60CHL1   C13 6872   3.507   2.718   9.426 -1.1700 -0.2153  0.1930
   60CHL1   C18 6873   3.377   2.647   9.424  0.4021  0.3001 -0.1078
   60CHL1  H18A 6874   3.400   2.539   9.411  0.4972  0.2135  0.6916
   60CHL1  H18B 6875   3.328   2.659   9.523  0.6332 -0.3172  0.0877
   60CHL1  H18C 6876   3.297   2.669   9.351  0.4844  1.5623  0.1640
   60CHL1   C12 6877   3.611   2.648   9.519  0.6187  0.3191 -0.8159
   60CHL1  H12A 6878   3.604   2.540   9.492 -1.7563  0.2120  0.0277
   60CHL1  H12B 6879   3.714   2.682   9.497  0.1790  0.3157 -3.1345
   60CHL1   C11 6880   3.586   2.667   9.673  0.1454  0.3619 -0.4238
   60CHL1  H11A 6881   3.492   2.612   9.698 -1.0662  1.6999 -1.7957
   60CHL1  H11B 6882   3.675   2.630   9.727  1.7079  1.9913 -1.7524
   60CHL1    C9 6883   3.554   2.813   9.708 -0.6681  0.0620  0.3147
   60CHL1    H9 6884   3.646   2.864   9.672  0.5661 -1.5900  1.0033
   60CHL1   C10 6885   3.529   2.840   9.858  0.2622 -0.7815 -0.4785
   60CHL1   C19 6886   3.420   2.744   9.919 -0.1814  0.1983 -0.1794
   60CHL1  H19A 6887   3.328   2.744   9.856  0.9809 -1.4288 -1.9953
   60CHL1  H19B 6888   3.465   2.643   9.923  1.4414  0.8420 -1.1291
   60CHL1  H19C 6889   3.413   2.769  10.027  2.1903  1.1194 -0.1663
   60CHL1    C1 6890   3.666   2.815   9.935  0.5687  0.4488  0.7236
   60CHL1   H1A 6891   3.692   2.708   9.948  0.5136  0.4664  1.0063
   60CHL1   H1B 6892   3.746   2.840   9.863  0.1641 -0.3630 -0.0288
   60CHL1    C2 6893   3.682   2.875  10.071  0.0473 -0.0876 -0.5590
   60CHL1   H2A 6894   3.779   2.860  10.122  0.3373 -1.9622 -1.6018
   60CHL1   H2B 6895   3.615   2.820  10.140  1.0755 -0.4644  0.1612
   60CHL1   C20 6896   3.536   2.611   9.180  0.8509  0.6739 -0.3999
   60CHL1   H20 6897   3.433   2.572   9.172  0.5750  0.9273  1.5653
   60CHL1   C21 6898   3.632   2.504   9.232  0.7074 -0.2101  0.0352
   60CHL1  H21A 6899   3.671   2.446   9.146  0.6730 -0.9977  0.5369
   60CHL1  H21B 6900   3.593   2.427   9.303  0.0804 -1.3238 -1.4614
   60CHL1  H21C 6901   3.721   2.556   9.274 -1.0222  3.7390 -0.8230
   60CHL1   C22 6902   3.574   2.636   9.033 -0.0446 -0.8497  0.7105
   60CHL1  H22A 6903   3.503   2.713   8.996 -0.2394 -1.8682 -1.2017
   60CHL1  H22B 6904   3.679   2.670   9.020 -0.2529 -0.6467 -0.5772
   60CHL1   C23 6905   3.528   2.516   8.936  0.0771 -0.2888 -0.2672
   60CHL1  H23A 6906   3.597   2.430   8.945 -1.7763 -1.8433 -0.3350
   60CHL1  H23B 6907   3.421   2.491   8.954  0.2845 -0.6316  0.5058
   60CHL1   C24 6908   3.540   2.565   8.793  0.1295  0.2692 -0.5615
   60CHL1  H24A 6909   3.478   2.656   8.776 -1.1585 -0.5356 -0.2872
   60CHL1  H24B 6910   3.643   2.608   8.790  0.6583 -0.6541  2.1961
   60CHL1   C25 6911   3.543   2.460   8.677  0.0194 -0.9800  0.5493
   60CHL1   H25 6912   3.613   2.380   8.710  2.3199  0.1177 -1.3374
   60CHL1   C26 6913   3.412   2.389   8.656  0.1089  0.0180 -0.4713
   60CHL1  H26A 6914   3.326   2.454   8.629 -0.4579  0.6218  2.4707
   60CHL1  H26B 6915   3.418   2.297   8.593 -0.9614  0.6350 -1.5183
   60CHL1  H26C 6916   3.375   2.345   8.751 -2.5857  1.9176 -0.5353
   60CHL1   C27 6917   3.588   2.528   8.552 -0.3453  0.2106 -0.3756
   60CHL1  H27A 6918   3.512   2.602   8.519  0.5097  1.0741 -0.4295
   60CHL1  H27B 6919   3.684   2.584   8.562 -1.0960  1.8261 -1.6278
   60CHL1  H27C 6920   3.601   2.455   8.469 -0.0814  2.5307 -2.5210
   61CHL1    C3 6921   1.785   2.233  10.208 -0.2998 -0.4200 -0.4450
   61CHL1    H3 6922   1.853   2.150  10.179 -0.4563  0.1251 -2.4963
   61CHL1    O3 6923   1.766   2.229  10.350 -0.8390 -0.0836  0.2345
   61CHL1   H3' 6924   1.745   2.314  10.389  1.2712 -0.3314  2.0695
   61CHL1    C4 6925   1.851   2.362  10.160 -0.8165 -0.3217 -0.3101
   61CHL1   H4A 6926   1.787   2.446  10.193 -1.2182 -0.7074 -0.1031
   61CHL1   H4B 6927   1.946   2.363  10.218  0.1488  0.3729 -1.8145
   61CHL1    C5 6928   1.869   2.359  10.005 -0.1562  0.2080  0.1858
   61CHL1    C6 6929   1.990   2.372   9.951 -0.3719  0.0425  0.0428
   61CHL1    H6 6930   2.070   2.404  10.019 -0.4290  0.9304 -0.2886
   61CHL1    C7 6931   2.023   2.360   9.807  0.2623 -0.4242 -0.0092
   61CHL1   H7A 6932   2.090   2.442   9.772 -2.5920  1.6657 -0.9726
   61CHL1   H7B 6933   2.089   2.275   9.782  2.8185  2.2795 -3.4630
   61CHL1    C8 6934   1.893   2.360   9.720  0.5388  0.5968  0.5632
   61CHL1    H8 6935   1.846   2.461   9.721  2.4417  1.5902 -1.3119
   61CHL1   C14 6936   1.928   2.319   9.580 -0.1221  0.2082  0.6831
   61CHL1   H14 6937   1.973   2.217   9.581  1.8895  1.0609  0.7789
   61CHL1   C15 6938   2.034   2.409   9.498 -0.1697 -0.0510  0.3227
   61CHL1  H15A 6939   2.022   2.519   9.503 -1.0505  0.0998 -2.9728
   61CHL1  H15B 6940   2.140   2.390   9.527 -0.3757 -0.5442  0.7813
   61CHL1   C16 6941   2.017   2.361   9.353  0.8281  0.4433 -0.1652
   61CHL1  H16A 6942   2.007   2.456   9.295 -1.2991  0.1227 -0.3872
   61CHL1  H16B 6943   2.102   2.294   9.327 -0.4700 -2.3645  2.3047
   61CHL1   C17 6944   1.880   2.281   9.343 -0.1675  0.1185 -0.1208
   61CHL1   H17 6945   1.906   2.173   9.342  0.2436  0.2105  0.2759
   61CHL1   C13 6946   1.813   2.306   9.483  0.3406 -0.1953  0.4459
   61CHL1   C18 6947   1.737   2.439   9.474 -0.2026 -0.4605 -0.3964
   61CHL1  H18A 6948   1.725   2.490   9.572  2.2033  0.5222 -0.5292
   61CHL1  H18B 6949   1.798   2.510   9.414  1.7661  0.3959  2.3823
   61CHL1  H18C 6950   1.641   2.422   9.422  1.5405 -0.9220 -3.7407
   61CHL1   C12 6951   1.720   2.197   9.535  0.0008  0.0801  0.8086
   61CHL1  H12A 6952   1.623   2.182   9.484 -1.0160  1.6344  2.2056
   61CHL1  H12B 6953   1.783   2.105   9.531  2.4047  1.6337  1.0297
   61CHL1   C11 6954   1.681   2.226   9.679  0.4278 -0.5550  0.3409
   61CHL1  H11A 6955   1.611   2.312   9.672  1.1417 -0.0122 -0.2920
   61CHL1  H11B 6956   1.611   2.143   9.703 -0.6312  0.2624  0.1661
   61CHL1    C9 6957   1.794   2.262   9.777 -0.5220  0.1706  0.3647
   61CHL1    H9 6958   1.866   2.180   9.798 -0.3191  0.3763  0.4915
   61CHL1   C10 6959   1.750   2.302   9.924  0.4009 -0.0629 -0.2693
   61CHL1   C19 6960   1.652   2.422   9.913 -0.0542  0.0446 -0.6173
   61CHL1  H19A 6961   1.630   2.470  10.010  0.7893  2.3052 -1.4614
   61CHL1  H19B 6962   1.697   2.503   9.850  1.3644  1.2099  1.7491
   61CHL1  H19C 6963   1.550   2.389   9.883  0.5930 -1.8128 -0.9173
   61CHL1    C1 6964   1.678   2.181   9.991  0.0653 -0.7321  0.1429
   61CHL1   H1A 6965   1.586   2.165   9.930  0.1807 -2.8838  0.4577
   61CHL1   H1B 6966   1.737   2.088   9.989  0.6273 -0.4156  1.3677
   61CHL1    C2 6967   1.647   2.214  10.140  0.1011 -1.1110 -0.3911
   61CHL1   H2A 6968   1.597   2.131  10.194 -0.5822  0.0707  0.8698
   61CHL1   H2B 6969   1.580   2.303  10.147  0.0339 -0.9965 -2.1043
   61CHL1   C20 6970   1.814   2.306   9.208  0.3558 -0.0430  0.2759
   61CHL1   H20 6971   1.806   2.417   9.201  1.1588  0.0131  0.1012
   61CHL1   C21 6972   1.686   2.226   9.213  0.3310  0.2753  0.7368
   61CHL1  H21A 6973   1.618   2.282   9.281 -0.2288  0.6037 -0.0766
   61CHL1  H21B 6974   1.706   2.118   9.229  0.4313  0.3958  1.4488
   61CHL1  H21C 6975   1.623   2.238   9.122  0.3214  1.8968  0.9400
   61CHL1   C22 6976   1.901   2.268   9.084 -0.0231  0.2988  0.0280
   61CHL1  H22A 6977   2.005   2.306   9.092  0.2801 -0.2048 -1.2671
   61CHL1  H22B 6978   1.900   2.157   9.076 -1.0272  0.3008  0.0727
   61CHL1   C23 6979   1.838   2.309   8.946  0.4387 -0.0523  0.2122
   61CHL1  H23A 6980   1.733   2.276   8.956  0.1110  1.4883  3.2032
   61CHL1  H23B 6981   1.833   2.420   8.940 -0.3832 -0.0658  0.5971
   61CHL1   C24 6982   1.902   2.240   8.818  0.3526  0.1349  0.7413
   61CHL1  H24A 6983   2.010   2.233   8.842  1.4278 -1.0680 -3.6157
   61CHL1  H24B 6984   1.868   2.134   8.824  2.4540 -0.5076  3.4565
   61CHL1   C25 6985   1.881   2.326   8.692 -0.1641 -0.5999 -0.5004
   61CHL1   H25 6986   1.913   2.431   8.706  0.1705 -0.6994 -0.4914
   61CHL1   C26 6987   1.946   2.261   8.568 -0.4126 -0.0011 -0.0620
   61CHL1  H26A 6988   2.057   2.262   8.575 -0.4925 -1.6674  3.0120
   61CHL1  H26B 6989   1.921   2.153   8.571  1.2451 -0.4618 -1.2979
   61CHL1  H26C 6990   1.914   2.294   8.466  2.9251 -0.4375 -1.3758
   61CHL1   C27 6991   1.725   2.328   8.657  0.0837 -0.4873 -0.1947
   61CHL1  H27A 6992   1.696   2.220   8.658  1.0700 -0.7641  0.8167
   61CHL1  H27B 6993   1.667   2.386   8.732  2.0614 -0.4130  1.3765
   61CHL1  H27C 6994   1.723   2.371   8.555  1.9453  4.3773  1.5459
   62CHL1    C3 6995   5.488   1.360  10.299  0.8533 -0.4987  0.5393
   62CHL1    H3 6996   5.532   1.261  10.275  1.8544  0.1501 -0.4445
   62CHL1    O3 6997   5.444   1.370  10.430  0.0373 -0.0994 -0.3368
   62CHL1   H3' 6998   5.413   1.461  10.431  2.3452  0.7773 -1.4467
   62CHL1    C4 6999   5.593   1.461  10.270 -0.2453 -0.5674 -0.0641
   62CHL1   H4A 7000   5.546   1.561  10.280  0.4196 -0.1144 -1.2258
   62CHL1   H4B 7001   5.672   1.445  10.346 -1.5475  0.9791  1.7136
   62CHL1    C5 7002   5.647   1.451  10.137 -0.2265  0.0314  0.7728
   62CHL1    C6 7003   5.781   1.433  10.124  0.3126 -0.3898 -0.4512
   62CHL1    H6 7004   5.838   1.424  10.217 -0.5243  0.5301  0.1652
   62CHL1    C7 7005   5.857   1.445   9.992 -0.4453  0.3108 -0.4300
   62CHL1   H7A 7006   5.952   1.502   9.992  0.2733 -0.8465 -1.0445
   62CHL1   H7B 7007   5.896   1.342   9.974  2.3071  0.6528  2.6274
   62CHL1    C8 7008   5.765   1.468   9.866  0.0833 -0.4165 -0.1661
   62CHL1    H8 7009   5.767   1.579   9.865  1.9977 -0.4115 -0.9582
   62CHL1   C14 7010   5.827   1.411   9.743  0.2649  0.2849  0.3695
   62CHL1   H14 7011   5.814   1.302   9.759 -3.5583  0.6181  0.3841
   62CHL1   C15 7012   5.975   1.448   9.716  0.3222  0.5133  0.0916
   62CHL1  H15A 7013   6.003   1.544   9.765  2.3933 -0.9311  1.9467
   62CHL1  H15B 7014   6.042   1.373   9.763  1.0121  1.9032  1.4265
   62CHL1   C16 7015   5.989   1.448   9.559 -0.4101  0.4255  0.2950
   62CHL1  H16A 7016   6.015   1.554   9.535 -0.6255  1.1801  3.0717
   62CHL1  H16B 7017   6.074   1.381   9.536 -0.3874  0.0266  1.4584
   62CHL1   C17 7018   5.852   1.405   9.506 -0.5666  0.8248 -1.0976
   62CHL1   H17 7019   5.860   1.295   9.516  0.7768  1.1126  1.8818
   62CHL1   C13 7020   5.756   1.450   9.615 -0.4445  0.1318 -0.0837
   62CHL1   C18 7021   5.747   1.606   9.608  0.7066  0.1978  0.5875
   62CHL1  H18A 7022   5.701   1.635   9.512  2.4204 -0.7257 -0.5668
   62CHL1  H18B 7023   5.672   1.648   9.678 -0.4111  0.9269 -0.9959
   62CHL1  H18C 7024   5.843   1.662   9.614  0.1803  1.4136 -1.5619
   62CHL1   C12 7025   5.612   1.393   9.619  0.2211 -0.1851 -0.1665
   62CHL1  H12A 7026   5.557   1.439   9.534  1.2360  0.1663 -0.6570
   62CHL1  H12B 7027   5.603   1.282   9.614 -0.1974 -0.3945  3.3026
   62CHL1   C11 7028   5.540   1.422   9.758  0.0437  0.1245  0.0227
   62CHL1  H11A 7029   5.522   1.530   9.737  0.8700  0.1715 -0.4777
   62CHL1  H11B 7030   5.438   1.379   9.766 -0.5801  1.7472  1.2564
   62CHL1    C9 7031   5.622   1.408   9.886 -0.4542  0.2734 -0.7273
   62CHL1    H9 7032   5.639   1.298   9.894 -0.9685  0.2296 -0.1907
   62CHL1   C10 7033   5.549   1.452  10.017  0.4327  0.9737 -0.4616
   62CHL1   C19 7034   5.506   1.600   9.990  0.5182  0.0538  0.5145
   62CHL1  H19A 7035   5.469   1.661  10.076 -2.7609  0.2418 -0.8992
   62CHL1  H19B 7036   5.590   1.659   9.946 -0.7586  0.9341 -0.8051
   62CHL1  H19C 7037   5.422   1.607   9.919 -0.5957  0.4406  1.8224
   62CHL1    C1 7038   5.426   1.358  10.048 -0.4019 -0.0820 -0.3759
   62CHL1   H1A 7039   5.343   1.370   9.975  0.1169 -1.0180 -1.1428
   62CHL1   H1B 7040   5.454   1.250  10.040  2.7106  0.5706  0.4030
   62CHL1    C2 7041   5.372   1.360  10.196 -0.2601  0.4015  0.3017
   62CHL1   H2A 7042   5.304   1.276  10.221  0.0812 -0.2959 -1.0260
   62CHL1   H2B 7043   5.319   1.455  10.218 -0.3338  0.2240  0.9351
   62CHL1   C20 7044   5.832   1.442   9.361  0.8707  0.2216  0.1123
   62CHL1   H20 7045   5.775   1.538   9.363 -0.8065 -0.7548  1.3945
   62CHL1   C21 7046   5.738   1.335   9.297 -0.2853  0.1550 -0.1787
   62CHL1  H21A 7047   5.655   1.311   9.368  0.2222 -1.0608  0.0260
   62CHL1  H21B 7048   5.791   1.242   9.270 -3.3796 -1.0894 -2.5947
   62CHL1  H21C 7049   5.696   1.372   9.201 -0.8834 -0.7727 -0.2816
   62CHL1   C22 7050   5.950   1.470   9.276  0.8163 -1.1956 -0.1473
   62CHL1  H22A 7051   6.007   1.560   9.310  2.7522 -0.8482 -3.8313
   62CHL1  H22B 7052   6.018   1.382   9.280  0.5281 -1.4332 -0.4689
   62CHL1   C23 7053   5.923   1.521   9.123  0.2784  0.1348  0.7189
   62CHL1  H23A 7054   5.848   1.459   9.070  0.4354 -2.1111  2.9409
   62CHL1  H23B 7055   5.869   1.617   9.133 -0.9321 -0.4830  0.2013
   62CHL1   C24 7056   6.055   1.534   9.054 -1.1948 -0.1489  0.3139
   62CHL1  H24A 7057   6.118   1.605   9.112 -2.6890  1.9525 -0.4941
   62CHL1  H24B 7058   6.106   1.436   9.051 -0.1562  0.2852  2.1821
   62CHL1   C25 7059   6.045   1.590   8.909 -0.0885  0.6891 -0.1430
   62CHL1   H25 7060   5.969   1.670   8.899  0.6034  1.3899  0.1326
   62CHL1   C26 7061   6.184   1.638   8.870 -0.3973 -0.3890  0.2075
   62CHL1  H26A 7062   6.189   1.692   8.773 -2.0239 -0.6298 -0.0438
   62CHL1  H26B 7063   6.208   1.712   8.949  0.1901  0.1927 -0.5037
   62CHL1  H26C 7064   6.252   1.551   8.883 -0.6507 -0.6231 -0.0096
   62CHL1   C27 7065   6.015   1.476   8.803  0.0405 -0.3182 -0.2851
   62CHL1  H27A 7066   5.968   1.529   8.716 -0.7035  0.4565  0.5609
   62CHL1  H27B 7067   6.101   1.413   8.772  0.2688  0.2685 -0.8757
   62CHL1  H27C 7068   5.939   1.409   8.848  1.8456 -1.9242  0.4810
   63CHL1    C3 7069   6.168   0.490  10.467 -0.5316 -0.4644  0.4215
   63CHL1    H3 7070   6.186   0.381  10.468 -0.5461 -0.4879 -0.7663
   63CHL1    O3 7071   6.178   0.536  10.599  0.1116  0.0262 -0.2596
   63CHL1   H3' 7072   6.195   0.631  10.595 -1.0639  0.3460  1.3071
   63CHL1    C4 7073   6.291   0.548  10.386  0.1782  0.8103 -0.2233
   63CHL1   H4A 7074   6.290   0.657  10.408  2.5937  0.6310  1.1103
   63CHL1   H4B 7075   6.384   0.507  10.431 -0.7025 -0.6465  0.3348
   63CHL1    C5 7076   6.284   0.515  10.243  0.2522 -0.4562 -0.0232
   63CHL1    C6 7077   6.386   0.473  10.173  0.9440  0.7415 -0.4657
   63CHL1    H6 7078   6.487   0.470  10.216  0.2074 -0.2157  1.3005
   63CHL1    C7 7079   6.379   0.434  10.029 -0.2459 -0.2546 -0.6318
   63CHL1   H7A 7080   6.475   0.464   9.982  2.0865 -0.0576  3.7700
   63CHL1   H7B 7081   6.366   0.323  10.026  0.0573 -0.3061 -0.1214
   63CHL1    C8 7082   6.261   0.496   9.948 -0.0319  0.6280 -0.3331
   63CHL1    H8 7083   6.278   0.605   9.933  2.0121  0.5063  0.7558
   63CHL1   C14 7084   6.245   0.432   9.813 -0.2324 -0.0547 -1.1355
   63CHL1   H14 7085   6.225   0.326   9.838  0.1884  0.4120  1.4697
   63CHL1   C15 7086   6.370   0.447   9.735  0.1661  0.5188  0.0942
   63CHL1  H15A 7087   6.410   0.550   9.742 -1.3008  1.0691  1.0233
   63CHL1  H15B 7088   6.446   0.369   9.758 -1.2331 -1.1665 -0.7537
   63CHL1   C16 7089   6.318   0.432   9.586  0.7567  0.1255 -0.3557
   63CHL1  H16A 7090   6.352   0.518   9.524 -2.3637  1.5095 -0.3287
   63CHL1  H16B 7091   6.354   0.335   9.546  0.4865 -0.1798  0.1383
   63CHL1   C17 7092   6.160   0.417   9.596 -0.5023 -0.1949  0.4126
   63CHL1   H17 7093   6.127   0.312   9.609 -0.5676 -0.4626 -1.5586
   63CHL1   C13 7094   6.128   0.488   9.731  0.1305  0.2701 -0.2459
   63CHL1   C18 7095   6.135   0.642   9.713  0.4707 -0.4634  0.0458
   63CHL1  H18A 7096   6.230   0.668   9.661  0.5287 -1.4804 -0.3668
   63CHL1  H18B 7097   6.053   0.679   9.647  2.1323  0.9839 -1.3241
   63CHL1  H18C 7098   6.135   0.704   9.805 -0.6665  2.0095 -1.4860
   63CHL1   C12 7099   5.994   0.446   9.806 -0.7516  0.6122  0.5548
   63CHL1  H12A 7100   5.902   0.478   9.752 -1.1749 -0.9463  0.3266
   63CHL1  H12B 7101   5.995   0.336   9.814 -3.2486  0.5731  1.1738
   63CHL1   C11 7102   6.001   0.508   9.948 -0.2085  0.0332 -0.1707
   63CHL1  H11A 7103   5.989   0.619   9.949 -2.0861 -0.1293 -0.6351
   63CHL1  H11B 7104   5.914   0.476  10.009  0.1041  1.7527  1.2949
   63CHL1    C9 7105   6.130   0.475  10.024  0.2808  0.1230 -0.0585
   63CHL1    H9 7106   6.130   0.365  10.039 -2.6322 -0.0833 -1.0743
   63CHL1   C10 7107   6.142   0.542  10.170  0.1692  0.1482 -0.5425
   63CHL1   C19 7108   6.128   0.697  10.158 -0.0025 -0.3172  0.3934
   63CHL1  H19A 7109   6.020   0.717  10.143  0.1666  0.3433 -0.0061
   63CHL1  H19B 7110   6.162   0.745  10.253 -0.2134 -2.6526  1.7198
   63CHL1  H19C 7111   6.189   0.732  10.072  1.9929 -0.0858  1.8185
   63CHL1    C1 7112   6.028   0.478  10.260 -0.9818  0.0955  0.3970
   63CHL1   H1A 7113   5.927   0.514  10.230 -0.6520 -0.2749 -1.2496
   63CHL1   H1B 7114   6.026   0.367  10.250 -2.3116  0.2477 -1.6333
   63CHL1    C2 7115   6.039   0.523  10.404  0.5475 -0.1837 -0.9258
   63CHL1   H2A 7116   5.956   0.473  10.458  0.8005 -0.3109 -0.6489
   63CHL1   H2B 7117   6.019   0.632  10.396 -1.1795 -0.3603  0.4656
   63CHL1   C20 7118   6.093   0.463   9.463 -0.1299 -0.2776  0.3315
   63CHL1   H20 7119   6.128   0.567   9.445 -0.6282 -0.2399 -0.4563
   63CHL1   C21 7120   5.935   0.458   9.486  0.0229  0.0987  0.0543
   63CHL1  H21A 7121   5.909   0.362   9.535 -2.6332  0.3720 -0.6606
   63CHL1  H21B 7122   5.894   0.456   9.383 -0.7648 -2.8930  0.3226
   63CHL1  H21C 7123   5.913   0.551   9.543 -1.0582  0.6213 -1.1635
   63CHL1   C22 7124   6.141   0.375   9.344  0.2601 -0.0659  0.2822
   63CHL1  H22A 7125   6.251   0.390   9.337  0.0904  0.8992 -0.6982
   63CHL1  H22B 7126   6.103   0.272   9.360 -1.5090  0.3609 -0.8973
   63CHL1   C23 7127   6.094   0.418   9.203 -0.1493  0.8628 -0.0274
   63CHL1  H23A 7128   5.982   0.417   9.203 -0.3763 -4.5495  1.6647
   63CHL1  H23B 7129   6.133   0.520   9.186 -0.4997  0.9391 -0.3888
   63CHL1   C24 7130   6.147   0.324   9.087  0.0240 -0.0759 -1.0242
   63CHL1  H24A 7131   6.257   0.314   9.078 -0.1931 -0.9860 -3.2238
   63CHL1  H24B 7132   6.103   0.225   9.108 -0.2673  0.1979 -0.2933
   63CHL1   C25 7133   6.108   0.372   8.946  0.1050  0.3956 -0.1949
   63CHL1   H25 7134   6.132   0.290   8.874 -2.6930 -2.0505  1.3955
   63CHL1   C26 7135   5.961   0.401   8.923  0.1540  0.4139  0.2688
   63CHL1  H26A 7136   5.942   0.398   8.813  1.9529  1.8983 -0.1297
   63CHL1  H26B 7137   5.889   0.334   8.975 -3.1786  1.9964 -2.0015
   63CHL1  H26C 7138   5.940   0.505   8.956 -2.2048  0.4037 -0.9980
   63CHL1   C27 7139   6.188   0.495   8.900 -0.4733  0.2852 -0.2159
   63CHL1  H27A 7140   6.297   0.478   8.912 -0.8178 -2.3799 -0.3940
   63CHL1  H27B 7141   6.166   0.522   8.795 -2.0935  3.1121  0.7320
   63CHL1  H27C 7142   6.141   0.577   8.960 -1.4838  0.3410 -1.0552
   64CHL1    C3 7143   3.111   2.365  10.062  0.2799  0.2962 -0.3734
   64CHL1    H3 7144   3.065   2.465  10.074  0.8808  0.3717  1.6262
   64CHL1    O3 7145   3.138   2.306  10.186 -0.0605 -0.3769 -0.0232
   64CHL1   H3' 7146   3.195   2.377  10.216 -0.8153  0.1327  0.2301
   64CHL1    C4 7147   3.002   2.271   9.991  0.0556 -0.1161  0.4819
   64CHL1   H4A 7148   3.033   2.167  10.012  0.8798 -0.0749 -0.4641
   64CHL1   H4B 7149   2.906   2.283  10.047 -0.8719  2.5992 -1.4848
   64CHL1    C5 7150   2.994   2.300   9.839 -0.3977 -0.0685  0.5400
   64CHL1    C6 7151   2.875   2.313   9.776  0.8607 -0.7048  0.1985
   64CHL1    H6 7152   2.779   2.305   9.829  0.6213  0.5833 -0.0022
   64CHL1    C7 7153   2.863   2.330   9.625  0.1123  0.2176  0.3637
   64CHL1   H7A 7154   2.775   2.270   9.592 -0.1676  0.8707 -0.1039
   64CHL1   H7B 7155   2.849   2.433   9.586  1.5867 -0.2693 -1.6171
   64CHL1    C8 7156   2.986   2.261   9.553 -0.3297  0.5302 -0.9090
   64CHL1    H8 7157   2.985   2.150   9.566  0.8282  0.4687 -1.2240
   64CHL1   C14 7158   2.988   2.296   9.404  0.5079 -0.8830  0.3394
   64CHL1   H14 7159   3.009   2.405   9.404 -1.2859 -0.5067 -0.2595
   64CHL1   C15 7160   2.860   2.268   9.328 -0.1670 -0.6998  0.2813
   64CHL1  H15A 7161   2.819   2.171   9.363  0.6319 -0.6277  1.4726
   64CHL1  H15B 7162   2.788   2.352   9.337  1.5545  0.8235  0.4937
   64CHL1   C16 7163   2.902   2.253   9.181  1.1749 -0.3718 -0.5247
   64CHL1  H16A 7164   2.886   2.149   9.145 -0.7130  0.0093 -0.8690
   64CHL1  H16B 7165   2.842   2.320   9.116 -2.3941 -1.4061  1.3894
   64CHL1   C17 7166   3.051   2.277   9.183 -0.6691 -0.2136  0.5434
   64CHL1   H17 7167   3.063   2.387   9.180 -0.8510 -0.1988  0.3263
   64CHL1   C13 7168   3.105   2.240   9.326  0.0476  1.2403  1.5779
   64CHL1   C18 7169   3.111   2.088   9.331  0.3041 -0.2472  0.5065
   64CHL1  H18A 7170   3.013   2.051   9.293  0.9626  0.3850 -1.9401
   64CHL1  H18B 7171   3.197   2.047   9.274 -0.4070  1.0248 -1.5655
   64CHL1  H18C 7172   3.126   2.051   9.435  2.7432 -1.3443 -0.1619
   64CHL1   C12 7173   3.232   2.305   9.380 -0.0372 -0.1523  0.5521
   64CHL1  H12A 7174   3.327   2.270   9.332 -1.7168 -0.0574 -3.1885
   64CHL1  H12B 7175   3.237   2.415   9.365  1.6850  0.0068  1.9036
   64CHL1   C11 7176   3.236   2.272   9.527 -0.1946 -0.3857 -0.2184
   64CHL1  H11A 7177   3.260   2.165   9.545  1.2212  0.2086  1.7048
   64CHL1  H11B 7178   3.323   2.332   9.563  1.2160 -2.5470  0.1798
   64CHL1    C9 7179   3.117   2.319   9.611  0.4619  0.2855  0.1333
   64CHL1    H9 7180   3.107   2.429   9.597 -1.6170 -0.0469 -1.4615
   64CHL1   C10 7181   3.130   2.298   9.763 -0.1525 -0.2592 -0.4371
   64CHL1   C19 7182   3.184   2.151   9.783  0.6354  0.2078 -0.1012
   64CHL1  H19A 7183   3.285   2.139   9.740  0.5439 -0.7352 -0.0704
   64CHL1  H19B 7184   3.190   2.130   9.891  0.4077  2.3005  0.3594
   64CHL1  H19C 7185   3.130   2.075   9.722  3.1699 -0.8223 -1.2035
   64CHL1    C1 7186   3.220   2.403   9.828 -0.4705  0.4004  0.0828
   64CHL1   H1A 7187   3.313   2.394   9.769 -1.1867 -2.2614 -0.7607
   64CHL1   H1B 7188   3.180   2.507   9.818 -1.1056  0.1798  0.2887
   64CHL1    C2 7189   3.243   2.378   9.978  0.4254 -0.2217 -0.8406
   64CHL1   H2A 7190   3.314   2.456  10.013  2.5806 -2.2522 -0.3956
   64CHL1   H2B 7191   3.301   2.283   9.975 -0.3877 -0.7281 -3.7143
   64CHL1   C20 7192   3.126   2.216   9.065 -0.1764  0.3069  0.0754
   64CHL1   H20 7193   3.131   2.105   9.058  1.0420 -0.0025  3.7459
   64CHL1   C21 7194   3.274   2.261   9.052 -0.7526  0.2132 -0.0206
   64CHL1  H21A 7195   3.279   2.365   9.012  2.8086 -0.3235 -1.3539
   64CHL1  H21B 7196   3.325   2.206   8.970 -2.1322 -1.2737  0.0800
   64CHL1  H21C 7197   3.334   2.235   9.141 -0.7584 -1.6326 -0.5296
   64CHL1   C22 7198   3.050   2.247   8.929 -0.0067  0.2160 -0.4830
   64CHL1  H22A 7199   3.118   2.201   8.854  0.9597 -0.7331  0.9099
   64CHL1  H22B 7200   2.950   2.198   8.928 -0.6088  1.1650  2.2085
   64CHL1   C23 7201   3.027   2.393   8.904 -0.2673  0.9029 -0.3009
   64CHL1  H23A 7202   2.979   2.445   8.990  0.2423  2.2685 -0.8134
   64CHL1  H23B 7203   3.132   2.430   8.893  1.3699 -3.1399  0.0106
   64CHL1   C24 7204   2.963   2.419   8.767  0.0428 -0.4496 -0.5932
   64CHL1  H24A 7205   2.979   2.523   8.732 -0.8858 -0.2983 -0.5825
   64CHL1  H24B 7206   3.011   2.351   8.693 -0.5296 -0.7465 -0.6987
   64CHL1   C25 7207   2.808   2.409   8.767  0.7010  0.9446  0.2186
   64CHL1   H25 7208   2.780   2.305   8.794  2.2005  0.8846  1.7671
   64CHL1   C26 7209   2.742   2.505   8.858  0.1597  0.1262  0.2506
   64CHL1  H26A 7210   2.792   2.604   8.855  2.4018 -0.9789 -0.9289
   64CHL1  H26B 7211   2.634   2.504   8.833  0.3598 -0.8820 -0.6105
   64CHL1  H26C 7212   2.756   2.481   8.966 -2.8920 -0.0698  0.6859
   64CHL1   C27 7213   2.751   2.429   8.625 -0.5408  0.9839 -0.0418
   64CHL1  H27A 7214   2.642   2.451   8.625 -0.5583  1.0087  1.5864
   64CHL1  H27B 7215   2.795   2.523   8.586  0.4626  1.0995  1.2816
   64CHL1  H27C 7216   2.770   2.340   8.562  0.1639  0.9258  0.2460
   65CHL1    C3 7217   6.522   3.615  10.151 -0.2943  0.2726 -0.0241
   65CHL1    H3 7218   6.413   3.633  10.165 -0.4979 -0.6728 -0.2814
   65CHL1    O3 7219   6.586   3.631  10.278 -0.2672 -0.1662  0.1498
   65CHL1   H3' 7220   6.531   3.595  10.348 -1.0135 -2.1187 -1.3418
   65CHL1    C4 7221   6.531   3.465  10.104  0.3632 -0.2271 -0.3071
   65CHL1   H4A 7222   6.636   3.434  10.128  0.0671  1.0556  3.0885
   65CHL1   H4B 7223   6.467   3.397  10.164 -1.3007 -0.0920 -1.8480
   65CHL1    C5 7224   6.500   3.446   9.954 -0.4330  0.6345  0.1691
   65CHL1    C6 7225   6.424   3.342   9.911 -0.5441  0.0335 -0.5116
   65CHL1    H6 7226   6.380   3.274   9.985 -2.8947  0.9700 -0.9638
   65CHL1    C7 7227   6.390   3.311   9.770 -0.2266  0.1709 -0.0634
   65CHL1   H7A 7228   6.407   3.203   9.748 -2.5617 -0.7282  2.0590
   65CHL1   H7B 7229   6.282   3.331   9.753 -0.1035  1.9463  1.0014
   65CHL1    C8 7230   6.472   3.397   9.680 -0.4157 -0.3062 -0.1076
   65CHL1    H8 7231   6.574   3.351   9.681 -0.3430 -0.2071  2.1246
   65CHL1   C14 7232   6.398   3.400   9.540  0.5941 -0.8261 -0.9034
   65CHL1   H14 7233   6.299   3.448   9.559  0.5166 -1.5429  0.6536
   65CHL1   C15 7234   6.351   3.260   9.482 -0.0795 -0.2075 -0.0262
   65CHL1  H15A 7235   6.441   3.195   9.493  1.3408  1.8415  1.0616
   65CHL1  H15B 7236   6.263   3.211   9.528  0.9215 -3.1332 -0.9466
   65CHL1   C16 7237   6.322   3.290   9.336 -0.7712 -0.6825 -0.8652
   65CHL1  H16A 7238   6.369   3.213   9.272 -0.1884 -1.2493  0.2149
   65CHL1  H16B 7239   6.213   3.280   9.313 -0.6753 -0.3581 -1.4845
   65CHL1   C17 7240   6.379   3.435   9.317 -0.1469  0.2653  0.5722
   65CHL1   H17 7241   6.288   3.497   9.331 -0.2906  0.4959 -1.1162
   65CHL1   C13 7242   6.476   3.467   9.431  0.2047 -0.6339 -0.0193
   65CHL1   C18 7243   6.605   3.395   9.403 -0.6675  0.1211 -0.2940
   65CHL1  H18A 7244   6.662   3.461   9.334 -0.8032  1.4394  0.8162
   65CHL1  H18B 7245   6.678   3.386   9.485 -0.6529  2.1353 -0.0508
   65CHL1  H18C 7246   6.580   3.295   9.361 -1.5694 -0.2603  1.0731
   65CHL1   C12 7247   6.491   3.613   9.478 -0.0699 -0.0337  0.7594
   65CHL1  H12A 7248   6.535   3.683   9.404 -0.0810  0.9528  1.6496
   65CHL1  H12B 7249   6.390   3.653   9.502  0.3398  1.2964  0.3493
   65CHL1   C11 7250   6.560   3.626   9.611 -0.4138 -0.7351  0.1075
   65CHL1  H11A 7251   6.667   3.597   9.606  0.5338  2.4402 -0.0670
   65CHL1  H11B 7252   6.559   3.733   9.640  0.5534 -0.3529 -1.2010
   65CHL1    C9 7253   6.492   3.539   9.723 -0.3550  0.4558  0.0945
   65CHL1    H9 7254   6.387   3.574   9.726 -0.7037 -0.5605 -0.1440
   65CHL1   C10 7255   6.560   3.554   9.863 -0.1655 -0.0452 -0.3479
   65CHL1   C19 7256   6.719   3.535   9.847 -0.3435  0.9361  0.4049
   65CHL1  H19A 7257   6.736   3.428   9.819 -0.1485  1.3714 -1.2681
   65CHL1  H19B 7258   6.764   3.608   9.776  1.0064 -0.7728 -0.5810
   65CHL1  H19C 7259   6.775   3.534   9.943 -1.7797  0.3700  1.2710
   65CHL1    C1 7260   6.530   3.698   9.922 -0.1036  0.0060  0.4580
   65CHL1   H1A 7261   6.572   3.776   9.854  0.1075 -0.0237  0.5536
   65CHL1   H1B 7262   6.420   3.706   9.933  0.0361  1.8507  0.8359
   65CHL1    C2 7263   6.585   3.715  10.057 -0.5190 -0.4655 -0.3053
   65CHL1   H2A 7264   6.566   3.822  10.081  1.4952  0.1581 -1.3262
   65CHL1   H2B 7265   6.694   3.705  10.073 -0.2122  3.6280  1.2990
   65CHL1   C20 7266   6.420   3.459   9.167  0.1125  0.4260 -0.9113
   65CHL1   H20 7267   6.503   3.390   9.141  0.4343  0.4598 -0.0196
   65CHL1   C21 7268   6.468   3.597   9.141  0.6875  0.1035 -0.1306
   65CHL1  H21A 7269   6.569   3.605   9.186  0.3165  1.8331  0.4557
   65CHL1  H21B 7270   6.400   3.675   9.182  0.2654  0.0694 -0.7433
   65CHL1  H21C 7271   6.469   3.604   9.030 -1.2115 -0.2288 -0.2087
   65CHL1   C22 7272   6.315   3.410   9.065 -0.1537  0.4439  0.1449
   65CHL1  H22A 7273   6.352   3.434   8.963 -3.2401 -0.9812 -1.4439
   65CHL1  H22B 7274   6.298   3.301   9.076  0.9363  0.0363 -1.7294
   65CHL1   C23 7275   6.175   3.474   9.076 -0.5806 -0.0904  0.0251
   65CHL1  H23A 7276   6.127   3.458   9.175 -0.2435 -1.2994  0.0106
   65CHL1  H23B 7277   6.191   3.582   9.055  3.4878 -0.8265 -1.5797
   65CHL1   C24 7278   6.087   3.423   8.959 -0.3597 -0.4327 -0.0484
   65CHL1  H24A 7279   6.107   3.499   8.880  0.5237  1.3878  1.8419
   65CHL1  H24B 7280   6.117   3.333   8.902 -0.9500  0.3728 -1.7012
   65CHL1   C25 7281   5.933   3.420   8.978  0.6303 -0.0013  0.6229
   65CHL1   H25 7282   5.912   3.520   9.022 -0.3081  0.4233 -0.7253
   65CHL1   C26 7283   5.865   3.414   8.848 -0.3444  0.1545 -0.2371
   65CHL1  H26A 7284   5.759   3.437   8.872  0.1622 -1.3673  4.3302
   65CHL1  H26B 7285   5.910   3.487   8.778 -1.6415  0.8593 -0.3703
   65CHL1  H26C 7286   5.857   3.321   8.787  0.7686  0.4650 -0.8947
   65CHL1   C27 7287   5.878   3.304   9.070  0.1488 -0.0079  0.1769
   65CHL1  H27A 7288   5.931   3.308   9.167 -0.5440  3.8065  0.5295
   65CHL1  H27B 7289   5.772   3.315   9.100 -0.1526 -0.7631 -0.5423
   65CHL1  H27C 7290   5.880   3.206   9.017 -1.7766 -0.6409  1.1625
   66CHL1    C3 7291   4.050   4.057  10.501  0.2721 -0.7706 -0.4014
   66CHL1    H3 7292   3.942   4.084  10.499  0.2298 -0.7452  0.9561
   66CHL1    O3 7293   4.080   4.060  10.642 -0.1963 -0.1839 -0.2448
   66CHL1   H3' 7294   4.150   3.995  10.653  2.0611  2.1706 -0.0192
   66CHL1    C4 7295   4.075   3.922  10.446 -0.0184  0.4715 -0.3407
   66CHL1   H4A 7296   4.182   3.892  10.448 -0.3041 -0.5695  1.5271
   66CHL1   H4B 7297   4.019   3.846  10.505  0.3969  1.1671  0.9620
   66CHL1    C5 7298   4.030   3.913  10.299  0.8624  0.8085  0.5306
   66CHL1    C6 7299   3.950   3.820  10.247 -0.6518  0.4754 -0.3807
   66CHL1    H6 7300   3.916   3.751  10.325 -0.0113  0.2718 -0.2705
   66CHL1    C7 7301   3.914   3.802  10.101  1.2734  0.3128 -0.3687
   66CHL1   H7A 7302   3.916   3.694  10.076  2.1208  0.0433  0.7358
   66CHL1   H7B 7303   3.809   3.832  10.083  1.2583  0.0819 -0.6847
   66CHL1    C8 7304   4.002   3.885  10.004 -0.7276 -0.1041  0.8291
   66CHL1    H8 7305   4.102   3.836  10.004 -0.4554  0.2982  3.8573
   66CHL1   C14 7306   3.940   3.894   9.864 -0.0810  0.5438 -0.1829
   66CHL1   H14 7307   3.842   3.944   9.876 -2.0885 -2.7423 -1.5411
   66CHL1   C15 7308   3.915   3.758   9.793  0.9925  0.1092  0.1471
   66CHL1  H15A 7309   4.009   3.701   9.807 -0.1713 -1.6702  1.0917
   66CHL1  H15B 7310   3.829   3.703   9.835  0.8268  0.4975  0.3258
   66CHL1   C16 7311   3.896   3.803   9.646 -0.0662  0.0140  0.0257
   66CHL1  H16A 7312   3.953   3.729   9.585 -0.5322 -0.9433  0.7129
   66CHL1  H16B 7313   3.789   3.792   9.618 -0.0392 -3.2236  0.7597
   66CHL1   C17 7314   3.935   3.957   9.635 -0.2532 -0.2685 -0.3159
   66CHL1   H17 7315   3.839   4.012   9.645 -0.3903 -0.2446 -1.6143
   66CHL1   C13 7316   4.024   3.981   9.766 -0.5315  0.4252  0.7236
   66CHL1   C18 7317   4.164   3.921   9.739 -0.2964  0.1976 -0.0686
   66CHL1  H18A 7318   4.233   3.921   9.826 -0.8340  1.9426  0.4068
   66CHL1  H18B 7319   4.154   3.823   9.689  0.4429 -0.0754  0.2983
   66CHL1  H18C 7320   4.213   3.999   9.677  0.9206 -0.3807  0.1221
   66CHL1   C12 7321   4.025   4.127   9.815 -0.6727 -0.0865 -0.0175
   66CHL1  H12A 7322   4.096   4.194   9.763  0.8709 -1.5378  0.1292
   66CHL1  H12B 7323   3.921   4.167   9.816 -1.5312 -2.1625 -0.3382
   66CHL1   C11 7324   4.088   4.133   9.955  0.2187  0.1047 -0.3976
   66CHL1  H11A 7325   4.197   4.120   9.937  0.2729 -0.7945  0.4626
   66CHL1  H11B 7326   4.081   4.233  10.003  0.7233 -0.2968  0.5547
   66CHL1    C9 7327   4.022   4.027  10.058 -0.0548  0.0129 -0.5313
   66CHL1    H9 7328   3.924   4.072  10.085  1.1430  0.6779  3.3597
   66CHL1   C10 7329   4.096   4.024  10.201  0.5304  0.0097  0.6844
   66CHL1   C19 7330   4.240   3.972  10.182  0.9543 -0.5183  0.0345
   66CHL1  H19A 7331   4.284   3.975  10.284  0.6609 -2.3885  0.2471
   66CHL1  H19B 7332   4.258   3.866  10.156  0.5649 -0.6814  0.4176
   66CHL1  H19C 7333   4.302   4.039  10.118  0.7965  0.2646  0.6929
   66CHL1    C1 7334   4.084   4.160  10.274  0.6368  1.0064 -0.1136
   66CHL1   H1A 7335   4.139   4.246  10.229  0.2286  1.5987  0.5008
   66CHL1   H1B 7336   3.978   4.192  10.270  0.3502  0.2306  1.0301
   66CHL1    C2 7337   4.126   4.161  10.423 -0.0448  0.1159 -0.2663
   66CHL1   H2A 7338   4.103   4.263  10.461  1.5572  0.9962 -1.5263
   66CHL1   H2B 7339   4.236   4.147  10.434 -0.0746  0.9408  1.3952
   66CHL1   C20 7340   3.992   3.996   9.491  0.1278 -0.2050  0.1592
   66CHL1   H20 7341   4.102   3.982   9.491  0.3810  1.4204  1.7524
   66CHL1   C21 7342   3.974   4.154   9.470 -0.5690 -0.3077  0.5170
   66CHL1  H21A 7343   4.024   4.209   9.553 -1.0355  0.4511  0.2971
   66CHL1  H21B 7344   3.864   4.166   9.479 -1.2309 -3.2461 -1.8958
   66CHL1  H21C 7345   4.009   4.189   9.371 -0.6570  0.1495  0.6471
   66CHL1   C22 7346   3.925   3.923   9.372  0.0863 -0.1549  0.8974
   66CHL1  H22A 7347   3.927   3.814   9.392 -1.8161  0.0958  2.9827
   66CHL1  H22B 7348   3.816   3.944   9.369 -0.3678 -2.4657 -0.3015
   66CHL1   C23 7349   3.993   3.949   9.239 -0.6918 -0.1317  0.3757
   66CHL1  H23A 7350   3.968   4.053   9.209  1.4609  0.1448 -0.6366
   66CHL1  H23B 7351   4.100   3.924   9.251 -0.9241  0.0496  3.7615
   66CHL1   C24 7352   3.934   3.840   9.136  0.2309  0.1452 -0.2912
   66CHL1  H24A 7353   3.946   3.736   9.175 -0.4538  0.6182  1.2724
   66CHL1  H24B 7354   3.826   3.860   9.126  0.6323  1.6134 -2.2742
   66CHL1   C25 7355   3.992   3.834   8.989  0.7011  0.3283 -0.0047
   66CHL1   H25 7356   3.966   3.930   8.940  0.4210  0.7481  0.9392
   66CHL1   C26 7357   4.141   3.804   8.990  0.1930  0.1927  0.0133
   66CHL1  H26A 7358   4.183   3.815   8.887 -0.2507 -1.5672 -0.3896
   66CHL1  H26B 7359   4.190   3.881   9.052 -0.0270  0.3335  0.0127
   66CHL1  H26C 7360   4.157   3.702   9.031 -0.9377 -0.0878 -0.2267
   66CHL1   C27 7361   3.921   3.726   8.905  0.4412 -0.2421 -0.4119
   66CHL1  H27A 7362   3.812   3.747   8.906  0.1084 -1.8597 -0.2805
   66CHL1  H27B 7363   3.947   3.737   8.797  0.9606  1.7166 -0.1321
   66CHL1  H27C 7364   3.935   3.624   8.946 -0.3866 -0.1037  0.2395
   67CHL1    C3 7365   3.896   5.446  10.340 -0.4471 -0.4391  0.6906
   67CHL1    H3 7366   3.823   5.364  10.358  0.9397 -1.3674  2.3149
   67CHL1    O3 7367   3.910   5.509  10.465  0.1136 -0.2757  0.5161
   67CHL1   H3' 7368   3.840   5.575  10.469  0.5578  0.3643 -1.2046
   67CHL1    C4 7369   4.033   5.383  10.314 -0.4483  0.2101  0.6571
   67CHL1   H4A 7370   4.107   5.465  10.314 -0.3127  0.0881  0.6667
   67CHL1   H4B 7371   4.071   5.312  10.391  1.4083 -0.9404 -1.2120
   67CHL1    C5 7372   4.032   5.322  10.174  0.2919  0.2124  0.2751
   67CHL1    C6 7373   4.065   5.194  10.160  0.0032  0.4998  0.5797
   67CHL1    H6 7374   4.089   5.129  10.245  2.1026  0.9249  0.3543
   67CHL1    C7 7375   4.079   5.121  10.020  0.2669 -0.6027 -0.7379
   67CHL1   H7A 7376   4.171   5.060  10.020  0.7385  0.0877 -0.3246
   67CHL1   H7B 7377   3.992   5.053  10.009  1.4598 -2.3972  0.5754
   67CHL1    C8 7378   4.083   5.222   9.910  0.2566 -0.1538  0.7774
   67CHL1    H8 7379   4.180   5.275   9.904  0.6462 -0.9555 -0.1281
   67CHL1   C14 7380   4.053   5.155   9.777  0.6379 -0.1006 -0.3819
   67CHL1   H14 7381   3.954   5.105   9.774  0.3291  0.5073 -0.5236
   67CHL1   C15 7382   4.149   5.044   9.731 -0.1892  0.5411 -0.5691
   67CHL1  H15A 7383   4.256   5.070   9.748 -0.6063  1.0551  1.5372
   67CHL1  H15B 7384   4.134   4.954   9.794  0.0694  0.4399 -0.6506
   67CHL1   C16 7385   4.111   5.013   9.586  0.5296 -0.5756  0.3030
   67CHL1  H16A 7386   4.201   4.976   9.532  0.3842  0.9054 -1.0336
   67CHL1  H16B 7387   4.046   4.924   9.595 -2.1849  1.3118  0.6969
   67CHL1   C17 7388   4.034   5.134   9.532 -0.0476  0.3457 -0.0657
   67CHL1   H17 7389   3.927   5.104   9.526  0.3602 -1.3025  0.3369
   67CHL1   C13 7390   4.048   5.236   9.651  0.4804 -0.8212 -0.6324
   67CHL1   C18 7391   4.186   5.317   9.624  0.5081 -0.7339 -0.7170
   67CHL1  H18A 7392   4.227   5.361   9.718  3.1581 -4.0260 -0.1240
   67CHL1  H18B 7393   4.264   5.244   9.595 -0.5088 -2.2258  0.1223
   67CHL1  H18C 7394   4.172   5.406   9.560  0.6609  0.6271  1.0648
   67CHL1   C12 7395   3.926   5.329   9.663 -0.1806  0.6538  0.2749
   67CHL1  H12A 7396   3.905   5.394   9.575  2.0984  0.7665 -0.2436
   67CHL1  H12B 7397   3.828   5.277   9.668 -0.2941  0.9691  1.8133
   67CHL1   C11 7398   3.942   5.418   9.793  0.2899  0.6078  0.2557
   67CHL1  H11A 7399   4.017   5.496   9.771  2.0211 -1.9076 -4.2910
   67CHL1  H11B 7400   3.844   5.467   9.810 -0.4062 -0.1019 -1.4422
   67CHL1    C9 7401   3.971   5.333   9.924  0.2383 -0.5262 -0.3285
   67CHL1    H9 7402   3.882   5.268   9.939  1.2611 -2.0665 -0.6182
   67CHL1   C10 7403   3.994   5.415  10.058 -0.5949  0.1946  0.5647
   67CHL1   C19 7404   4.111   5.515  10.026 -0.1972 -0.1427 -0.8010
   67CHL1  H19A 7405   4.200   5.457   9.992  0.3947 -0.3672  1.0198
   67CHL1  H19B 7406   4.094   5.591   9.947  0.1221  0.5325 -0.2270
   67CHL1  H19C 7407   4.145   5.568  10.117 -1.4628 -2.3121  1.0421
   67CHL1    C1 7408   3.863   5.495  10.081 -0.5905  0.3638 -0.0120
   67CHL1   H1A 7409   3.860   5.585  10.016 -0.3084  1.9936  2.1161
   67CHL1   H1B 7410   3.772   5.439  10.050  0.2256  0.1795 -2.3130
   67CHL1    C2 7411   3.848   5.542  10.223  0.0871 -0.2325 -0.2500
   67CHL1   H2A 7412   3.743   5.568  10.252  0.2669 -0.2922  0.4725
   67CHL1   H2B 7413   3.906   5.637  10.228 -1.7088  0.9030 -0.0012
   67CHL1   C20 7414   4.083   5.166   9.391  0.4917  0.3883  0.1368
   67CHL1   H20 7415   4.194   5.174   9.395  0.4769  0.7890 -0.2282
   67CHL1   C21 7416   4.025   5.300   9.334 -0.4458  0.5331  0.7323
   67CHL1  H21A 7417   4.079   5.322   9.239 -1.2019 -0.4289  0.0538
   67CHL1  H21B 7418   4.024   5.381   9.410 -1.6365 -0.5171  1.8836
   67CHL1  H21C 7419   3.920   5.284   9.302 -1.0509  1.8492  1.9514
   67CHL1   C22 7420   4.045   5.060   9.284 -0.0309  0.4552 -0.0508
   67CHL1  H22A 7421   4.076   4.960   9.319  0.2030  0.7329  0.5531
   67CHL1  H22B 7422   3.935   5.044   9.275  0.4640 -3.1174 -1.1228
   67CHL1   C23 7423   4.095   5.078   9.138  0.2000  0.6952  0.9940
   67CHL1  H23A 7424   4.090   5.176   9.087  1.2200  0.0336 -0.4396
   67CHL1  H23B 7425   4.204   5.065   9.154  0.3514  0.3367 -0.2629
   67CHL1   C24 7426   4.029   4.976   9.042  0.5607  0.4660 -0.0537
   67CHL1  H24A 7427   4.031   4.874   9.085  0.7205  0.9815  1.1986
   67CHL1  H24B 7428   3.919   4.992   9.030  0.5727  0.5276 -0.0822
   67CHL1   C25 7429   4.088   4.982   8.895 -0.6753 -0.1024 -0.2143
   67CHL1   H25 7430   4.198   4.983   8.907 -0.8608  0.7504  1.7538
   67CHL1   C26 7431   4.046   4.862   8.806  0.1691 -0.0731  0.0307
   67CHL1  H26A 7432   4.097   4.767   8.830  2.4453  0.4801 -2.2016
   67CHL1  H26B 7433   3.935   4.856   8.804  0.1848 -0.4246  0.1634
   67CHL1  H26C 7434   4.074   4.895   8.704 -0.2953 -0.9681 -0.4005
   67CHL1   C27 7435   4.045   5.105   8.813 -0.5707  0.6864 -1.3548
   67CHL1  H27A 7436   4.080   5.200   8.858  0.2603  0.4072 -1.3928
   67CHL1  H27B 7437   4.096   5.095   8.714  1.0071  0.0750 -0.5178
   67CHL1  H27C 7438   3.936   5.122   8.804 -0.4831  1.7626 -0.4849
   68CHL1    C3 7439   1.597   5.938  10.123 -0.1841 -0.4292 -0.1134
   68CHL1    H3 7440   1.696   5.891  10.106 -0.7166 -1.7027  0.1482
   68CHL1    O3 7441   1.596   5.970  10.261 -0.1741 -0.3287 -0.2176
   68CHL1   H3' 7442   1.626   6.061  10.262 -1.1244  0.0150  1.3048
   68CHL1    C4 7443   1.573   6.068  10.046  0.3752 -0.8021  1.1985
   68CHL1   H4A 7444   1.490   6.125  10.092 -1.2228 -0.0664 -2.2669
   68CHL1   H4B 7445   1.660   6.134  10.063 -1.1566  1.9040 -0.7208
   68CHL1    C5 7446   1.544   6.048   9.894  0.3812 -0.0193 -0.0560
   68CHL1    C6 7447   1.611   6.122   9.810  0.3749  0.1422  0.0557
   68CHL1    H6 7448   1.669   6.209   9.845 -1.3502  1.7553 -0.8574
   68CHL1    C7 7449   1.590   6.110   9.660 -0.4406  0.5954  1.0121
   68CHL1   H7A 7450   1.577   6.211   9.616 -2.6473  0.0428  0.2714
   68CHL1   H7B 7451   1.680   6.061   9.617 -1.5437 -2.1239  1.6185
   68CHL1    C8 7452   1.461   6.028   9.619 -0.6194  0.6699 -0.1070
   68CHL1    H8 7453   1.364   6.081   9.636 -1.4202  0.0047 -2.3359
   68CHL1   C14 7454   1.475   6.002   9.468 -0.1764 -0.1514  0.0093
   68CHL1   H14 7455   1.577   5.959   9.456  0.4833  1.3222 -0.0062
   68CHL1   C15 7456   1.485   6.123   9.359  0.0768 -0.1860  0.3055
   68CHL1  H15A 7457   1.402   6.195   9.379 -0.3010 -0.7435  0.7749
   68CHL1  H15B 7458   1.587   6.161   9.380 -0.8990  1.6919  1.9840
   68CHL1   C16 7459   1.461   6.052   9.225  0.2337  0.1070 -0.5372
   68CHL1  H16A 7460   1.389   6.103   9.157 -1.4403 -0.9902  0.3427
   68CHL1  H16B 7461   1.562   6.048   9.179  1.1982 -0.7728  1.5497
   68CHL1   C17 7462   1.422   5.904   9.256  0.3968  0.2648  1.1818
   68CHL1   H17 7463   1.513   5.841   9.251 -0.1153 -0.5541  1.9181
   68CHL1   C13 7464   1.380   5.902   9.407 -0.9048  0.1573  0.4801
   68CHL1   C18 7465   1.244   5.971   9.420  0.5625  0.0634 -0.2697
   68CHL1  H18A 7466   1.218   6.049   9.346  1.2288 -1.8499 -2.6536
   68CHL1  H18B 7467   1.174   5.886   9.409  0.4479  0.3492 -2.1239
   68CHL1  H18C 7468   1.221   6.005   9.523  2.2571 -0.6857  0.4042
   68CHL1   C12 7469   1.394   5.770   9.491 -0.6484  0.7390  0.6349
   68CHL1  H12A 7470   1.335   5.689   9.443  1.0624  0.3666 -0.9676
   68CHL1  H12B 7471   1.493   5.721   9.479 -0.9738 -0.2636  1.7883
   68CHL1   C11 7472   1.366   5.789   9.642 -0.3540 -0.5418 -0.5510
   68CHL1  H11A 7473   1.266   5.832   9.667  0.1103 -0.0597  0.5320
   68CHL1  H11B 7474   1.372   5.702   9.710  0.0269  1.3633  1.9879
   68CHL1    C9 7475   1.455   5.902   9.702 -0.2725  0.4725 -0.1730
   68CHL1    H9 7476   1.556   5.858   9.687  0.1958  1.5702 -0.3134
   68CHL1   C10 7477   1.448   5.929   9.853 -0.1554 -0.2677  0.3832
   68CHL1   C19 7478   1.304   5.964   9.891 -0.0843 -0.0891  0.0298
   68CHL1  H19A 7479   1.242   5.872   9.889 -1.6573  0.8766  1.5647
   68CHL1  H19B 7480   1.299   5.998   9.997 -1.0984 -3.0386  1.0176
   68CHL1  H19C 7481   1.255   6.040   9.826 -0.9682  0.9293  1.7958
   68CHL1    C1 7482   1.479   5.803   9.930 -0.2770  0.2343  0.0575
   68CHL1   H1A 7483   1.393   5.732   9.928 -0.4541  0.4179 -2.3953
   68CHL1   H1B 7484   1.566   5.748   9.888 -0.1002  0.4564  0.1283
   68CHL1    C2 7485   1.494   5.829  10.085 -0.7990  0.3098 -0.5625
   68CHL1   H2A 7486   1.537   5.734  10.125 -0.2716  1.1309  0.8832
   68CHL1   H2B 7487   1.391   5.850  10.122 -1.1239 -0.1419 -1.1913
   68CHL1   C20 7488   1.321   5.847   9.145 -0.6539  0.1656  0.6651
   68CHL1   H20 7489   1.242   5.924   9.132 -0.6684  0.3457  1.7812
   68CHL1   C21 7490   1.278   5.705   9.176  0.4143 -0.3583 -0.3116
   68CHL1  H21A 7491   1.372   5.647   9.180  0.9394  0.5319  1.4436
   68CHL1  H21B 7492   1.207   5.668   9.098  0.4242  0.8470 -0.9152
   68CHL1  H21C 7493   1.216   5.701   9.269 -1.2206  1.0959 -1.2741
   68CHL1   C22 7494   1.399   5.844   9.009  0.6367  0.1836  0.1199
   68CHL1  H22A 7495   1.418   5.945   8.968 -1.6589  0.8305  0.4905
   68CHL1  H22B 7496   1.495   5.790   9.014 -0.8170 -2.8188 -1.4427
   68CHL1   C23 7497   1.327   5.764   8.892  0.3080 -0.0483  0.5771
   68CHL1  H23A 7498   1.315   5.656   8.913  0.4716  0.1625  1.7967
   68CHL1  H23B 7499   1.232   5.813   8.863 -0.4802 -1.5052  0.5970
   68CHL1   C24 7500   1.423   5.760   8.773  0.6492 -0.4564  0.3053
   68CHL1  H24A 7501   1.436   5.866   8.741 -0.5839 -0.4294 -0.1531
   68CHL1  H24B 7502   1.518   5.714   8.808  0.4054  0.3842  2.1767
   68CHL1   C25 7503   1.379   5.677   8.647  0.2279  0.1581 -0.4802
   68CHL1   H25 7504   1.375   5.570   8.675 -0.6773  0.2578 -0.2253
   68CHL1   C26 7505   1.241   5.722   8.596 -0.3282 -0.1309 -0.1532
   68CHL1  H26A 7506   1.223   5.678   8.496  0.1346  2.0293 -1.2533
   68CHL1  H26B 7507   1.169   5.687   8.672  0.0324 -1.6248 -0.4625
   68CHL1  H26C 7508   1.246   5.833   8.584  4.3810 -0.1670 -0.7627
   68CHL1   C27 7509   1.491   5.712   8.544 -0.0779  0.0727 -0.4725
   68CHL1  H27A 7510   1.585   5.692   8.600 -0.5722  2.2330  1.2799
   68CHL1  H27B 7511   1.498   5.636   8.463  0.4044  0.0878 -0.4465
   68CHL1  H27C 7512   1.478   5.815   8.505  0.7761  0.1364 -0.5978
   69CHL1    C3 7513   1.933   0.832   6.946 -1.0277  0.8341  0.2875
   69CHL1    H3 7514   1.822   0.832   6.957 -1.2483 -0.7259 -1.3981
   69CHL1    O3 7515   1.970   0.838   6.809  0.0274  0.0199  0.0668
   69CHL1   H3' 7516   2.028   0.765   6.787 -2.3217 -1.7864 -0.6804
   69CHL1    C4 7517   1.981   0.952   7.021 -0.3898 -0.0060  0.0522
   69CHL1   H4A 7518   2.088   0.952   6.991 -0.3813 -1.4532  0.0433
   69CHL1   H4B 7519   1.942   1.047   6.979 -0.1562  1.5230  3.0247
   69CHL1    C5 7520   1.966   0.951   7.175 -0.0489  0.7779  0.7038
   69CHL1    C6 7521   1.913   1.053   7.238  0.0488  0.0928  0.5122
   69CHL1    H6 7522   1.881   1.139   7.177  0.2182  1.1939  1.9434
   69CHL1    C7 7523   1.900   1.061   7.380  0.3119 -0.9500  0.1502
   69CHL1   H7A 7524   1.950   1.157   7.406 -0.6691  0.4371 -2.6847
   69CHL1   H7B 7525   1.793   1.071   7.408  0.4456  0.5585  0.2367
   69CHL1    C8 7526   1.974   0.946   7.455 -0.5765  0.9183  0.1183
   69CHL1    H8 7527   2.080   0.979   7.464 -0.2100 -0.5495  1.6739
   69CHL1   C14 7528   1.926   0.933   7.596 -0.1990 -0.6094 -0.6084
   69CHL1   H14 7529   1.820   0.899   7.593 -0.7402  0.8620  0.3731
   69CHL1   C15 7530   1.938   1.063   7.677 -0.1327  0.2778  0.4115
   69CHL1  H15A 7531   2.025   1.130   7.659  1.8469 -2.4371 -0.7091
   69CHL1  H15B 7532   1.843   1.120   7.662  1.2201  2.2415 -1.2383
   69CHL1   C16 7533   1.943   1.010   7.818 -0.6294  0.1345 -0.6616
   69CHL1  H16A 7534   2.039   1.032   7.869 -0.0321 -4.3545  0.5315
   69CHL1  H16B 7535   1.862   1.049   7.884  0.3936  0.2199  0.5783
   69CHL1   C17 7536   1.937   0.855   7.810  0.3540  0.4376 -0.5134
   69CHL1   H17 7537   1.831   0.825   7.795  0.2587  1.0192 -1.0277
   69CHL1   C13 7538   1.999   0.827   7.674 -0.2494  0.9988 -0.3957
   69CHL1   C18 7539   2.151   0.849   7.694  0.2540  0.9424  1.0135
   69CHL1  H18A 7540   2.174   0.946   7.746  1.0289  1.4241 -0.1869
   69CHL1  H18B 7541   2.188   0.763   7.754 -1.3464 -0.3642  0.1904
   69CHL1  H18C 7542   2.207   0.853   7.598  1.7787  1.0441  1.8643
   69CHL1   C12 7543   1.972   0.686   7.621  0.3947 -0.3779 -0.0252
   69CHL1  H12A 7544   2.030   0.614   7.683 -2.3194 -2.4386  0.3330
   69CHL1  H12B 7545   1.864   0.665   7.613  0.4981 -1.7152  1.5683
   69CHL1   C11 7546   2.021   0.692   7.474  0.4418 -0.5389  0.3357
   69CHL1  H11A 7547   2.130   0.712   7.466  0.2732  0.8731  1.2304
   69CHL1  H11B 7548   1.999   0.595   7.425 -1.3815  0.6023 -1.2993
   69CHL1    C9 7549   1.960   0.804   7.390  0.3911  0.6613  0.1419
   69CHL1    H9 7550   1.849   0.792   7.396  0.4327  0.9361  3.1089
   69CHL1   C10 7551   2.012   0.811   7.239  0.0977  0.0004  0.5274
   69CHL1   C19 7552   2.160   0.820   7.240 -0.3733 -0.7096  0.7848
   69CHL1  H19A 7553   2.208   0.722   7.261 -0.5143 -1.4064 -1.7052
   69CHL1  H19B 7554   2.208   0.846   7.143  0.8604 -1.7881  1.0800
   69CHL1  H19C 7555   2.189   0.899   7.312  0.3912 -0.6604  0.4255
   69CHL1    C1 7556   1.968   0.689   7.159  0.1813  0.3822  0.5174
   69CHL1   H1A 7557   2.015   0.597   7.199  2.1322  0.9902 -0.2507
   69CHL1   H1B 7558   1.862   0.670   7.189  0.3725 -1.3479  0.1447
   69CHL1    C2 7559   1.990   0.700   7.009  0.2075  0.2868 -0.5305
   69CHL1   H2A 7560   1.930   0.617   6.967 -0.5227 -0.2426  1.4487
   69CHL1   H2B 7561   2.097   0.679   6.987 -0.0165 -1.7282  0.1077
   69CHL1   C20 7562   1.989   0.786   7.945  0.6664  0.3546  1.1138
   69CHL1   H20 7563   2.099   0.792   7.951  0.7049  5.3881 -0.1632
   69CHL1   C21 7564   1.933   0.643   7.943  0.0863  0.1218 -0.6669
   69CHL1  H21A 7565   1.995   0.577   7.877  0.3964  0.8644 -1.1295
   69CHL1  H21B 7566   1.825   0.652   7.920 -0.4261  2.6201  2.1842
   69CHL1  H21C 7567   1.924   0.603   8.046 -0.5080  0.3388 -0.6313
   69CHL1   C22 7568   1.929   0.843   8.080 -0.5124 -0.4630  0.7213
   69CHL1  H22A 7569   1.989   0.936   8.093  0.5461 -1.0506  0.1889
   69CHL1  H22B 7570   1.819   0.853   8.073 -0.2825  2.5358  0.1316
   69CHL1   C23 7571   1.946   0.778   8.216  0.8178  1.4635  0.1834
   69CHL1  H23A 7572   1.921   0.855   8.292 -2.4264  1.4556 -0.7578
   69CHL1  H23B 7573   1.869   0.698   8.220  0.8244  1.4943  1.4389
   69CHL1   C24 7574   2.088   0.723   8.241  0.6026 -0.6405  0.8349
   69CHL1  H24A 7575   2.111   0.619   8.211  3.5816 -0.6681  2.7651
   69CHL1  H24B 7576   2.160   0.791   8.191 -2.5629  0.0107 -3.4232
   69CHL1   C25 7577   2.117   0.737   8.392  0.5381 -1.1474 -0.7006
   69CHL1   H25 7578   2.088   0.840   8.422  2.5285 -0.5991 -0.5791
   69CHL1   C26 7579   2.031   0.642   8.484 -0.6283 -0.3465  0.4831
   69CHL1  H26A 7580   2.076   0.542   8.467 -1.2656 -0.2967 -1.9611
   69CHL1  H26B 7581   2.042   0.685   8.586 -1.6052 -1.2746  0.9886
   69CHL1  H26C 7582   1.930   0.636   8.439  0.3788  1.5537 -2.3571
   69CHL1   C27 7583   2.261   0.723   8.426  0.4535  0.1780 -0.3276
   69CHL1  H27A 7584   2.313   0.795   8.358 -1.4107  1.1351 -0.7993
   69CHL1  H27B 7585   2.271   0.749   8.533 -0.2436 -0.5823 -0.0675
   69CHL1  H27C 7586   2.295   0.618   8.411 -1.3878 -0.3820 -0.8907
   70CHL1    C3 7587   6.752   3.178   6.956  0.3320  0.5496 -0.1787
   70CHL1    H3 7588   6.719   3.281   6.930  0.3649  0.4435 -0.6542
   70CHL1    O3 7589   6.721   3.122   6.829  0.1575  0.4833  0.2978
   70CHL1   H3' 7590   6.720   3.027   6.839 -1.7581  0.5760  1.4803
   70CHL1    C4 7591   6.896   3.171   6.997 -0.7051  0.9001  0.0491
   70CHL1   H4A 7592   6.947   3.074   6.984 -2.4008  0.2208 -1.9667
   70CHL1   H4B 7593   6.958   3.228   6.925  1.5556 -2.6059 -1.0190
   70CHL1    C5 7594   6.920   3.217   7.141 -0.4704  0.1630  0.5180
   70CHL1    C6 7595   7.011   3.305   7.171 -0.1482  0.0239  0.3147
   70CHL1    H6 7596   7.075   3.348   7.092 -0.4690 -0.3188 -0.1400
   70CHL1    C7 7597   7.048   3.353   7.310 -0.0389 -0.2084 -0.1458
   70CHL1   H7A 7598   7.157   3.341   7.331  0.3984  1.4933 -1.2278
   70CHL1   H7B 7599   7.018   3.459   7.324 -1.1127 -0.5748  0.4798
   70CHL1    C8 7600   6.979   3.279   7.424 -0.0470  0.2073 -0.7453
   70CHL1    H8 7601   7.035   3.186   7.447 -0.1704  0.6511  1.6624
   70CHL1   C14 7602   6.976   3.366   7.549 -0.3848 -0.4685 -0.6696
   70CHL1   H14 7603   6.910   3.455   7.535 -2.3106 -1.1316  2.9780
   70CHL1   C15 7604   7.105   3.418   7.612  0.4342  0.5649 -0.4011
   70CHL1  H15A 7605   7.184   3.341   7.606 -0.7888 -0.9129  1.3231
   70CHL1  H15B 7606   7.149   3.511   7.571  0.2278 -0.2951 -2.6852
   70CHL1   C16 7607   7.093   3.433   7.764 -0.1450 -0.2662 -0.1773
   70CHL1  H16A 7608   7.170   3.375   7.821  1.5402  1.8929 -0.0916
   70CHL1  H16B 7609   7.108   3.540   7.792 -0.9905 -0.3696  0.7117
   70CHL1   C17 7610   6.950   3.379   7.792 -0.2672 -0.0971 -0.5081
   70CHL1   H17 7611   6.885   3.469   7.794 -0.5273 -0.2686 -0.9027
   70CHL1   C13 7612   6.915   3.290   7.668 -0.3966  0.6477 -0.0890
   70CHL1   C18 7613   6.995   3.153   7.694 -0.6269  0.4740 -1.0700
   70CHL1  H18A 7614   6.958   3.093   7.779  0.3163 -1.3169 -1.8753
   70CHL1  H18B 7615   7.001   3.072   7.619  2.4198 -1.7351  1.2982
   70CHL1  H18C 7616   7.105   3.163   7.709 -0.6376  0.4468 -0.9733
   70CHL1   C12 7617   6.769   3.262   7.632 -1.0728 -0.3000 -0.1847
   70CHL1  H12A 7618   6.736   3.193   7.713  0.7194 -0.9781  0.0113
   70CHL1  H12B 7619   6.715   3.359   7.632 -0.8505 -0.1607  1.4198
   70CHL1   C11 7620   6.753   3.192   7.496 -0.0985  0.5699  0.4305
   70CHL1  H11A 7621   6.802   3.095   7.516  2.2525  1.5824 -0.0019
   70CHL1  H11B 7622   6.644   3.180   7.480 -0.2038 -0.1186  1.6011
   70CHL1    C9 7623   6.834   3.250   7.383 -0.4413 -1.1167  0.0874
   70CHL1    H9 7624   6.786   3.346   7.355  0.8911 -0.1031  1.0915
   70CHL1   C10 7625   6.822   3.164   7.251  0.2649  0.3693  0.4177
   70CHL1   C19 7626   6.866   3.017   7.287 -0.7535  0.3762  0.1855
   70CHL1  H19A 7627   6.789   2.968   7.351 -0.3071 -1.4267 -0.6007
   70CHL1  H19B 7628   6.865   2.957   7.194 -0.3847 -1.9151  1.5802
   70CHL1  H19C 7629   6.963   3.018   7.343 -2.5294  1.9821  3.5654
   70CHL1    C1 7630   6.678   3.170   7.184 -0.8899 -0.2548 -0.8645
   70CHL1   H1A 7631   6.615   3.127   7.265 -0.1562 -3.1483 -1.7274
   70CHL1   H1B 7632   6.655   3.279   7.182 -0.5691 -0.1051  1.3487
   70CHL1    C2 7633   6.665   3.102   7.051 -0.1194 -0.4282 -0.3273
   70CHL1   H2A 7634   6.562   3.098   7.008 -1.5879 -0.1814  2.8499
   70CHL1   H2B 7635   6.708   3.001   7.064  0.4333  0.1102  2.7524
   70CHL1   C20 7636   6.930   3.327   7.941 -0.1412 -0.1073 -0.3142
   70CHL1   H20 7637   6.990   3.236   7.966 -0.6722  0.1496  2.1574
   70CHL1   C21 7638   6.782   3.282   7.952 -0.2444 -0.3480 -0.3603
   70CHL1  H21A 7639   6.768   3.190   7.891  0.1527 -0.5272 -0.1857
   70CHL1  H21B 7640   6.715   3.366   7.925  0.8015  0.7368  0.3223
   70CHL1  H21C 7641   6.756   3.259   8.057 -0.4441  0.7227 -0.1584
   70CHL1   C22 7642   6.959   3.440   8.040 -0.4942  0.2480  0.3128
   70CHL1  H22A 7643   7.050   3.494   8.005 -0.1282 -1.4461 -1.5349
   70CHL1  H22B 7644   6.870   3.505   8.032 -3.5976 -3.5347  1.1369
   70CHL1   C23 7645   6.974   3.403   8.191  0.5046 -0.0228 -0.0129
   70CHL1  H23A 7646   6.895   3.329   8.217  0.9297 -0.4802  0.0002
   70CHL1  H23B 7647   7.074   3.356   8.191  2.4057  3.4311 -3.1731
   70CHL1   C24 7648   6.985   3.533   8.276 -0.4729  0.2297 -0.0640
   70CHL1  H24A 7649   7.036   3.619   8.227 -1.0545 -0.1027 -1.2888
   70CHL1  H24B 7650   6.883   3.567   8.301 -0.2435  1.8234 -1.1908
   70CHL1   C25 7651   7.062   3.519   8.414  0.7629  0.1122 -0.8548
   70CHL1   H25 7652   7.068   3.619   8.461  0.5376 -0.1346 -0.2830
   70CHL1   C26 7653   6.986   3.421   8.514  0.3714 -0.1528 -0.0302
   70CHL1  H26A 7654   7.048   3.413   8.605  1.1533  1.1088 -0.4373
   70CHL1  H26B 7655   6.880   3.450   8.533 -0.1533 -0.7885 -1.7412
   70CHL1  H26C 7656   6.983   3.319   8.469  2.3935 -0.3922  0.2822
   70CHL1   C27 7657   7.202   3.481   8.389 -0.7814 -0.3733  0.0081
   70CHL1  H27A 7658   7.247   3.545   8.311 -0.9185 -0.1892  0.0796
   70CHL1  H27B 7659   7.272   3.498   8.474  0.5011 -2.5545 -0.5347
   70CHL1  H27C 7660   7.215   3.380   8.345 -2.3658  0.0774 -1.6164
   71CHL1    C3 7661   4.931   0.583   6.917  0.0819  0.3596  0.6307
   71CHL1    H3 7662   4.841   0.641   6.946  0.2966  1.5115 -0.8652
   71CHL1    O3 7663   4.958   0.587   6.780  0.6471  0.1603  0.7478
   71CHL1   H3' 7664   4.887   0.541   6.735  0.7918  0.2916  0.3757
   71CHL1    C4 7665   5.048   0.657   6.971  0.0640 -0.8066 -0.2787
   71CHL1   H4A 7666   5.143   0.625   6.924  0.0080 -2.1626  0.5088
   71CHL1   H4B 7667   5.026   0.760   6.935 -0.5305 -1.5302 -2.1366
   71CHL1    C5 7668   5.047   0.660   7.125  0.2343  0.6621 -0.3582
   71CHL1    C6 7669   5.052   0.772   7.197  0.0790 -0.2630  0.4410
   71CHL1    H6 7670   5.045   0.870   7.148 -1.0435 -0.4369  0.2350
   71CHL1    C7 7671   5.069   0.775   7.346  0.0860 -0.0786  0.0289
   71CHL1   H7A 7672   5.138   0.852   7.386 -0.7960 -0.4357  2.3906
   71CHL1   H7B 7673   4.973   0.815   7.386  1.4076  1.9426  1.4180
   71CHL1    C8 7674   5.102   0.639   7.415 -0.5542  0.2125  0.4500
   71CHL1    H8 7675   5.208   0.609   7.401 -0.7803 -1.7114  2.3478
   71CHL1   C14 7676   5.071   0.641   7.562  0.1137  0.4080  0.1029
   71CHL1   H14 7677   4.963   0.665   7.573 -0.1488  0.0169 -1.3745
   71CHL1   C15 7678   5.139   0.752   7.649  0.0118 -0.1164 -0.4644
   71CHL1  H15A 7679   5.238   0.771   7.602  0.2439 -2.6569 -1.1520
   71CHL1  H15B 7680   5.075   0.841   7.633 -1.6182 -1.4408 -1.6686
   71CHL1   C16 7681   5.138   0.688   7.795  0.2236 -0.8073  0.8047
   71CHL1  H16A 7682   5.246   0.693   7.821  0.3559  1.7354  0.0165
   71CHL1  H16B 7683   5.083   0.745   7.873  1.0341  2.5167 -0.8423
   71CHL1   C17 7684   5.086   0.543   7.777 -0.0295  0.4605 -0.3325
   71CHL1   H17 7685   4.975   0.546   7.783 -0.2978 -1.5519 -2.6852
   71CHL1   C13 7686   5.107   0.507   7.632 -0.1692  0.6201  0.7328
   71CHL1   C18 7687   5.254   0.481   7.624 -1.1526 -0.5458  0.6464
   71CHL1  H18A 7688   5.289   0.400   7.691  0.6711  0.1211  0.5781
   71CHL1  H18B 7689   5.288   0.445   7.524 -1.9748  0.9750 -0.2201
   71CHL1  H18C 7690   5.314   0.573   7.640 -1.3362 -0.1277 -0.8940
   71CHL1   C12 7691   5.020   0.395   7.569 -0.1767 -0.2983  0.0295
   71CHL1  H12A 7692   5.053   0.299   7.614 -0.9307 -0.3386  0.5101
   71CHL1  H12B 7693   4.917   0.428   7.595  0.4650 -0.8770  3.8085
   71CHL1   C11 7694   5.043   0.390   7.413  0.1324  0.5333 -0.3445
   71CHL1  H11A 7695   5.144   0.351   7.389  1.1591  2.8487 -0.1016
   71CHL1  H11B 7696   4.977   0.320   7.357  1.1647  1.5135 -2.9135
   71CHL1    C9 7697   5.022   0.526   7.341  0.4471  0.5160 -0.2983
   71CHL1    H9 7698   4.915   0.553   7.351 -0.3584 -1.6537 -2.1291
   71CHL1   C10 7699   5.043   0.522   7.188 -0.3351 -0.5692 -0.3081
   71CHL1   C19 7700   5.181   0.450   7.162  1.0085  0.3545 -0.1650
   71CHL1  H19A 7701   5.251   0.464   7.248  0.6223 -2.0999  0.6482
   71CHL1  H19B 7702   5.157   0.341   7.161  0.5036  0.4400  0.9803
   71CHL1  H19C 7703   5.218   0.472   7.060 -1.1343 -0.2279 -1.1187
   71CHL1    C1 7704   4.925   0.442   7.123  0.1260  0.4919 -0.0622
   71CHL1   H1A 7705   4.924   0.337   7.160  1.5872  0.5124  0.1174
   71CHL1   H1B 7706   4.830   0.497   7.139 -1.2085 -1.5667 -0.5524
   71CHL1    C2 7707   4.934   0.441   6.966 -0.0717  0.2462  0.0785
   71CHL1   H2A 7708   4.853   0.379   6.920  1.5821 -1.8759 -0.1405
   71CHL1   H2B 7709   5.026   0.389   6.934  1.1150  0.8193  2.3309
   71CHL1   C20 7710   5.129   0.446   7.888  0.3224  0.5039  0.7023
   71CHL1   H20 7711   5.239   0.431   7.888  0.2550  0.0039  0.7189
   71CHL1   C21 7712   5.070   0.297   7.861  0.2960  0.6021 -0.6151
   71CHL1  H21A 7713   5.126   0.241   7.783  2.3805  2.4487 -0.5402
   71CHL1  H21B 7714   4.964   0.312   7.830  0.0179  1.1018  0.5506
   71CHL1  H21C 7715   5.072   0.232   7.950 -0.2164  0.0349 -1.0098
   71CHL1   C22 7716   5.078   0.485   8.028  0.1991 -0.2554  0.2184
   71CHL1  H22A 7717   5.102   0.591   8.049 -4.2589  0.8513  0.7764
   71CHL1  H22B 7718   4.967   0.492   8.034  0.1538  0.5576 -1.1256
   71CHL1   C23 7719   5.135   0.394   8.137 -0.0182 -0.3436 -0.2014
   71CHL1  H23A 7720   5.084   0.296   8.135 -1.4606  0.3344  1.2023
   71CHL1  H23B 7721   5.243   0.373   8.126  0.0148 -0.4998  0.4210
   71CHL1   C24 7722   5.113   0.446   8.279 -0.3152 -0.0081  0.0876
   71CHL1  H24A 7723   5.175   0.535   8.300  0.0872 -0.8613  2.9816
   71CHL1  H24B 7724   5.005   0.462   8.299 -0.1826 -0.9893  1.7433
   71CHL1   C25 7725   5.167   0.342   8.389  0.5241 -0.6719  0.3203
   71CHL1   H25 7726   5.135   0.241   8.356 -1.3181  0.0423 -0.1628
   71CHL1   C26 7727   5.314   0.343   8.419 -0.1891  0.1305  0.1060
   71CHL1  H26A 7728   5.341   0.294   8.515  2.1059 -1.2188 -1.1570
   71CHL1  H26B 7729   5.367   0.293   8.335 -0.2496 -2.2123  1.3857
   71CHL1  H26C 7730   5.353   0.447   8.419  0.3094 -0.0496  0.9593
   71CHL1   C27 7731   5.093   0.371   8.520 -0.1060  0.8373 -0.4910
   71CHL1  H27A 7732   5.092   0.480   8.542  0.5625  1.0518 -1.4301
   71CHL1  H27B 7733   4.991   0.326   8.511  1.0982 -2.0731 -0.7125
   71CHL1  H27C 7734   5.143   0.312   8.599 -0.5918 -1.4036 -1.7420
   72CHL1    C3 7735   5.311   3.939   7.013  0.8118  0.1610  0.3473
   72CHL1    H3 7736   5.419   3.917   7.009  0.9821  1.0612 -0.5431
   72CHL1    O3 7737   5.275   3.962   6.873  0.1678  0.3702 -0.4411
   72CHL1   H3' 7738   5.317   3.889   6.827  0.3764  0.7313 -0.8358
   72CHL1    C4 7739   5.230   3.825   7.074 -0.1625  0.3625  0.9399
   72CHL1   H4A 7740   5.124   3.840   7.044 -0.2555 -2.1531 -0.2110
   72CHL1   H4B 7741   5.258   3.732   7.020  0.2352  0.2408  1.3563
   72CHL1    C5 7742   5.254   3.806   7.222  0.3173  0.0789 -0.3427
   72CHL1    C6 7743   5.306   3.689   7.276  0.1782 -0.4262 -0.1023
   72CHL1    H6 7744   5.320   3.604   7.207  0.7951 -0.6117  0.2547
   72CHL1    C7 7745   5.328   3.670   7.421 -0.3434 -0.2109  0.0967
   72CHL1   H7A 7746   5.305   3.566   7.450  1.1476 -0.7942 -0.7471
   72CHL1   H7B 7747   5.434   3.667   7.453  0.2751 -0.0209 -1.7882
   72CHL1    C8 7748   5.256   3.775   7.513 -0.3016 -0.0950 -0.0766
   72CHL1    H8 7749   5.152   3.739   7.529 -0.0600 -1.0412 -0.5101
   72CHL1   C14 7750   5.327   3.780   7.653 -0.6903  0.3540  0.0703
   72CHL1   H14 7751   5.430   3.820   7.641 -0.3999 -0.0908  0.9781
   72CHL1   C15 7752   5.327   3.646   7.725  0.3663 -0.5605 -0.7898
   72CHL1  H15A 7753   5.234   3.586   7.713  1.4329 -1.9022 -2.9518
   72CHL1  H15B 7754   5.411   3.586   7.684  0.3123 -0.3129 -1.2657
   72CHL1   C16 7755   5.357   3.679   7.867 -0.1990 -0.2933 -0.0363
   72CHL1  H16A 7756   5.286   3.642   7.944  1.7400 -1.0263  1.4882
   72CHL1  H16B 7757   5.458   3.640   7.892 -0.5786  0.1450  2.4830
   72CHL1   C17 7758   5.363   3.833   7.874 -0.5491 -0.1575 -0.1473
   72CHL1   H17 7759   5.470   3.849   7.849 -0.2794  0.7018  1.3887
   72CHL1   C13 7760   5.273   3.881   7.752 -0.1056 -0.2860  0.1119
   72CHL1   C18 7761   5.123   3.858   7.790 -0.5673 -0.3892 -0.2898
   72CHL1  H18A 7762   5.111   3.755   7.830  0.0162 -0.0219  0.8661
   72CHL1  H18B 7763   5.085   3.931   7.864  1.0377  0.8876 -0.6507
   72CHL1  H18C 7764   5.058   3.861   7.699 -2.8369  1.7735  1.2491
   72CHL1   C12 7765   5.302   4.015   7.687 -0.0914  0.6294 -0.1076
   72CHL1  H12A 7766   5.259   4.091   7.755 -1.2579 -0.9381  0.9795
   72CHL1  H12B 7767   5.409   4.041   7.672 -0.2528  2.0056  0.9371
   72CHL1   C11 7768   5.229   4.029   7.549 -0.3340 -0.8167 -0.0312
   72CHL1  H11A 7769   5.119   4.027   7.563 -0.3721 -0.6344 -0.2992
   72CHL1  H11B 7770   5.245   4.128   7.500 -0.6309 -1.4139 -1.3754
   72CHL1    C9 7771   5.269   3.915   7.450 -0.4419 -0.6062  0.0183
   72CHL1    H9 7772   5.380   3.924   7.445 -0.1910 -3.1568 -0.6775
   72CHL1   C10 7773   5.226   3.930   7.305  0.4641  0.5082  0.4127
   72CHL1   C19 7774   5.071   3.945   7.305 -0.1862  0.2596  0.2131
   72CHL1  H19A 7775   5.017   3.933   7.209  1.0292 -2.4111 -0.2314
   72CHL1  H19B 7776   5.032   3.884   7.389  0.5991  0.7565  0.9565
   72CHL1  H19C 7777   5.048   4.049   7.337  0.9777  1.2817 -2.0280
   72CHL1    C1 7778   5.302   4.046   7.241 -0.2076 -1.1769  0.1027
   72CHL1   H1A 7779   5.270   4.144   7.280  0.1376 -2.4366  4.0449
   72CHL1   H1B 7780   5.412   4.027   7.250  0.0115 -0.2031 -0.4267
   72CHL1    C2 7781   5.286   4.069   7.083  0.2657  0.7368  0.1457
   72CHL1   H2A 7782   5.367   4.135   7.045  0.5545  0.2104 -0.1672
   72CHL1   H2B 7783   5.183   4.108   7.075  0.4822  2.1554  2.9841
   72CHL1   C20 7784   5.342   3.895   8.014  0.1430  0.1314 -0.6553
   72CHL1   H20 7785   5.234   3.876   8.031  0.1341 -1.0529 -1.8848
   72CHL1   C21 7786   5.386   4.041   8.020  0.3884 -0.0546  0.1128
   72CHL1  H21A 7787   5.494   4.057   7.997  0.5550  0.6206  1.2548
   72CHL1  H21B 7788   5.364   4.078   8.122 -3.6317 -0.2925 -0.5178
   72CHL1  H21C 7789   5.313   4.102   7.964  0.9006  1.0720  0.6329
   72CHL1   C22 7790   5.432   3.812   8.109 -1.0281 -0.0670  0.4531
   72CHL1  H22A 7791   5.396   3.707   8.115 -1.8964  0.0686 -1.6150
   72CHL1  H22B 7792   5.538   3.815   8.079 -1.1602  0.4264  0.0200
   72CHL1   C23 7793   5.409   3.855   8.252 -0.4876 -0.4837  0.3206
   72CHL1  H23A 7794   5.462   3.950   8.272  1.7764 -1.5781 -0.1182
   72CHL1  H23B 7795   5.301   3.879   8.256 -0.5262 -0.7116  0.7841
   72CHL1   C24 7796   5.446   3.756   8.364  0.2548 -0.4624  0.0082
   72CHL1  H24A 7797   5.397   3.657   8.359  3.1981 -2.2593  3.2135
   72CHL1  H24B 7798   5.554   3.733   8.355  0.8464  1.2510  1.9000
   72CHL1   C25 7799   5.415   3.824   8.506 -0.7075  0.1302 -0.2639
   72CHL1   H25 7800   5.479   3.915   8.508 -0.8316  0.2227 -0.4556
   72CHL1   C26 7801   5.273   3.870   8.525  0.1425  0.3328 -0.5994
   72CHL1  H26A 7802   5.254   3.924   8.620 -0.1278 -0.9929  0.1249
   72CHL1  H26B 7803   5.257   3.941   8.441  1.3476  2.1451  0.6192
   72CHL1  H26C 7804   5.203   3.785   8.519 -0.7622  1.1326 -2.1004
   72CHL1   C27 7805   5.473   3.743   8.626  0.4607 -0.6638 -0.2525
   72CHL1  H27A 7806   5.386   3.698   8.679 -0.5997  0.4262 -1.0116
   72CHL1  H27B 7807   5.541   3.660   8.597 -0.0667 -0.8265 -1.0300
   72CHL1  H27C 7808   5.523   3.811   8.698 -0.8710  0.7131 -0.5824
   73CHL1    C3 7809   0.653   3.448   7.037 -0.3158  0.9074  0.8212
   73CHL1    H3 7810   0.581   3.533   7.044  0.4939  1.7124 -0.1592
   73CHL1    O3 7811   0.662   3.395   6.904 -0.1069  0.2620  0.0380
   73CHL1   H3' 7812   0.668   3.299   6.908 -2.0195  0.0983 -0.1189
   73CHL1    C4 7813   0.790   3.492   7.079  0.1156 -0.4907  0.1589
   73CHL1   H4A 7814   0.855   3.401   7.078  1.7428  0.6418 -0.9439
   73CHL1   H4B 7815   0.825   3.575   7.015 -0.8550  1.8441  2.5025
   73CHL1    C5 7816   0.800   3.540   7.220 -0.6616 -0.3489 -0.4374
   73CHL1    C6 7817   0.847   3.663   7.244 -0.1651 -0.7176 -0.0119
   73CHL1    H6 7818   0.887   3.725   7.163 -1.5419  1.1156  0.6428
   73CHL1    C7 7819   0.857   3.713   7.389  0.3470  0.0010  0.3344
   73CHL1   H7A 7820   0.946   3.779   7.401 -1.8080  3.0469  0.7166
   73CHL1   H7B 7821   0.777   3.787   7.410  1.4312  1.6710 -1.1195
   73CHL1    C8 7822   0.841   3.610   7.497  0.1446  0.1914 -0.0965
   73CHL1    H8 7823   0.930   3.543   7.497 -0.6909 -0.9655 -0.4500
   73CHL1   C14 7824   0.823   3.677   7.635 -0.5282  0.0903 -0.1379
   73CHL1   H14 7825   0.734   3.743   7.625 -0.6553  0.2947  1.8960
   73CHL1   C15 7826   0.930   3.766   7.684  0.5422 -0.3307  0.1052
   73CHL1  H15A 7827   1.030   3.724   7.661  0.8584  0.7376 -0.5480
   73CHL1  H15B 7828   0.927   3.857   7.621  1.9031 -1.2988 -1.4612
   73CHL1   C16 7829   0.903   3.787   7.833  0.4101  0.1131  0.4454
   73CHL1  H16A 7830   0.995   3.763   7.890  0.5714  3.1914  1.6588
   73CHL1  H16B 7831   0.862   3.887   7.857  2.1665  0.2412  3.4596
   73CHL1   C17 7832   0.783   3.692   7.863  0.3301 -0.1402 -0.0734
   73CHL1   H17 7833   0.688   3.747   7.845  1.2947  1.3376 -0.8636
   73CHL1   C13 7834   0.788   3.590   7.746 -0.3449  0.3150  0.3205
   73CHL1   C18 7835   0.906   3.498   7.777  0.0729 -0.1528  0.2668
   73CHL1  H18A 7836   0.866   3.419   7.843 -2.2863  0.9568  0.2733
   73CHL1  H18B 7837   0.931   3.425   7.696  2.0853  1.2394 -0.4452
   73CHL1  H18C 7838   0.997   3.549   7.816 -0.8197  0.7391  1.2533
   73CHL1   C12 7839   0.669   3.509   7.706  0.1418 -0.3052  0.9813
   73CHL1  H12A 7840   0.653   3.431   7.783  0.6736 -0.2335  1.1627
   73CHL1  H12B 7841   0.578   3.572   7.717  0.3414  0.2101 -0.1632
   73CHL1   C11 7842   0.679   3.434   7.571  0.6467 -0.2745 -0.4754
   73CHL1  H11A 7843   0.756   3.357   7.592  0.5447  0.0784  1.4246
   73CHL1  H11B 7844   0.578   3.392   7.555 -0.7138  2.1180  1.1266
   73CHL1    C9 7845   0.721   3.523   7.455 -0.8572  0.0820 -0.4776
   73CHL1    H9 7846   0.647   3.604   7.436  0.5940  1.3193 -1.0794
   73CHL1   C10 7847   0.744   3.441   7.324  0.2700 -0.0497 -0.3070
   73CHL1   C19 7848   0.847   3.322   7.345  0.2433  0.8873 -0.1482
   73CHL1  H19A 7849   0.868   3.272   7.248 -0.6952  0.4543 -0.1442
   73CHL1  H19B 7850   0.951   3.359   7.359 -0.1492  2.7428 -1.7391
   73CHL1  H19C 7851   0.821   3.243   7.419  2.9616  0.0886  0.0572
   73CHL1    C1 7852   0.607   3.385   7.281 -0.3950 -0.1957 -0.4935
   73CHL1   H1A 7853   0.585   3.308   7.357 -0.0433  1.2040  1.1079
   73CHL1   H1B 7854   0.538   3.470   7.298  1.9356  1.4298  1.6917
   73CHL1    C2 7855   0.593   3.342   7.135  0.1607  0.3631  0.1813
   73CHL1   H2A 7856   0.491   3.312   7.105 -0.0306 -0.3928  1.5314
   73CHL1   H2B 7857   0.651   3.249   7.113 -0.9015  0.0323 -1.3838
   73CHL1   C20 7858   0.775   3.647   8.016  0.1582 -0.4195  0.2421
   73CHL1   H20 7859   0.866   3.591   8.046  0.2471 -0.2980  0.2000
   73CHL1   C21 7860   0.659   3.552   8.053 -0.2738  0.4175 -0.4778
   73CHL1  H21A 7861   0.662   3.451   8.005 -0.5003 -0.7672  1.8579
   73CHL1  H21B 7862   0.564   3.605   8.029  0.5928  1.7745 -0.9791
   73CHL1  H21C 7863   0.669   3.530   8.161 -1.5220  1.9148 -0.0274
   73CHL1   C22 7864   0.764   3.772   8.104 -0.1857  0.0724 -0.2369
   73CHL1  H22A 7865   0.814   3.859   8.057 -0.4523  1.3551  1.7359
   73CHL1  H22B 7866   0.660   3.795   8.137  0.1854 -1.0421  1.8971
   73CHL1   C23 7867   0.843   3.757   8.237  0.6882 -0.3628 -0.1363
   73CHL1  H23A 7868   0.948   3.733   8.208  0.7159 -1.0047  0.4793
   73CHL1  H23B 7869   0.845   3.860   8.278 -0.4719 -1.2784  2.4268
   73CHL1   C24 7870   0.786   3.656   8.348  0.8576 -0.1840 -0.0629
   73CHL1  H24A 7871   0.677   3.654   8.329  0.8130 -0.2557  0.2026
   73CHL1  H24B 7872   0.827   3.556   8.325  0.5194 -0.3890  0.2187
   73CHL1   C25 7873   0.826   3.701   8.486 -0.4576 -0.0375 -0.6215
   73CHL1   H25 7874   0.790   3.804   8.509  0.7045  0.5009 -1.1447
   73CHL1   C26 7875   0.752   3.605   8.587  1.1084  0.2857  0.2394
   73CHL1  H26A 7876   0.744   3.652   8.688 -3.1306  0.2878  0.0689
   73CHL1  H26B 7877   0.656   3.562   8.552  1.7375  0.3090 -1.5737
   73CHL1  H26C 7878   0.811   3.513   8.609  1.1224 -0.0358 -1.0765
   73CHL1   C27 7879   0.978   3.694   8.502  0.2689 -0.6079 -0.1403
   73CHL1  H27A 7880   1.020   3.702   8.605  1.2319  1.6615 -0.6470
   73CHL1  H27B 7881   0.998   3.593   8.461 -0.0002 -0.1562 -1.4412
   73CHL1  H27C 7882   1.035   3.767   8.441 -0.2655  0.2299  0.3371
   74CHL1    C3 7883   5.432   1.072   7.068  0.0343  0.3267  0.7410
   74CHL1    H3 7884   5.538   1.043   7.053 -0.3838 -0.2967 -1.2994
   74CHL1    O3 7885   5.362   1.046   6.943  0.2033 -0.5674 -0.1493
   74CHL1   H3' 7886   5.388   1.113   6.880  0.9542 -1.3469 -0.6891
   74CHL1    C4 7887   5.367   0.973   7.161 -0.6539 -0.0540  0.2438
   74CHL1   H4A 7888   5.257   0.968   7.149 -0.6334 -3.9362  0.3773
   74CHL1   H4B 7889   5.389   0.867   7.139  0.9176 -0.2936  2.5482
   74CHL1    C5 7890   5.397   0.999   7.312 -0.5782  0.1354 -0.0713
   74CHL1    C6 7891   5.453   0.906   7.391  0.3708 -0.2633 -1.0856
   74CHL1    H6 7892   5.478   0.807   7.350 -2.4908 -1.7880  0.5235
   74CHL1    C7 7893   5.491   0.920   7.534 -0.3050 -0.1876  0.0991
   74CHL1   H7A 7894   5.458   0.833   7.594 -0.5414  1.2116  2.0976
   74CHL1   H7B 7895   5.602   0.930   7.532 -0.0360 -2.5762 -1.9160
   74CHL1    C8 7896   5.422   1.043   7.596  0.4649 -0.4407  0.1929
   74CHL1    H8 7897   5.313   1.026   7.602  0.4057 -0.3361 -0.5076
   74CHL1   C14 7898   5.484   1.081   7.729 -0.2332 -0.2315 -0.5865
   74CHL1   H14 7899   5.584   1.124   7.706 -0.9969  1.6047 -0.6815
   74CHL1   C15 7900   5.494   0.977   7.837 -0.8313  0.5304 -0.3996
   74CHL1  H15A 7901   5.403   0.914   7.840 -0.4651 -0.0075 -0.3075
   74CHL1  H15B 7902   5.575   0.902   7.824 -2.5977 -1.5970  0.2347
   74CHL1   C16 7903   5.513   1.051   7.970  0.2824 -0.0636  0.0335
   74CHL1  H16A 7904   5.438   1.014   8.043  0.6871 -1.4066 -0.1995
   74CHL1  H16B 7905   5.614   1.030   8.013  1.3892 -0.2414 -2.4886
   74CHL1   C17 7906   5.507   1.199   7.933 -0.5472 -0.2180  0.7251
   74CHL1   H17 7907   5.611   1.227   7.907 -0.6338 -1.2123 -0.8061
   74CHL1   C13 7908   5.426   1.203   7.798  0.1404  0.0078 -0.1085
   74CHL1   C18 7909   5.276   1.172   7.829  0.7540 -0.7785  0.4176
   74CHL1  H18A 7910   5.226   1.261   7.875  0.8084  0.7395 -2.2165
   74CHL1  H18B 7911   5.212   1.155   7.739  1.6453 -2.3857  0.0485
   74CHL1  H18C 7912   5.256   1.092   7.902  0.4507 -0.6208  0.5122
   74CHL1   C12 7913   5.451   1.320   7.709 -0.0965 -0.5357 -0.0881
   74CHL1  H12A 7914   5.418   1.411   7.763  0.9194 -0.9530  1.2956
   74CHL1  H12B 7915   5.562   1.331   7.710 -0.2171  0.8070  0.1417
   74CHL1   C11 7916   5.397   1.303   7.568  0.0629  0.4504 -0.8627
   74CHL1  H11A 7917   5.287   1.319   7.573  0.0783  0.2010  0.7718
   74CHL1  H11B 7918   5.433   1.379   7.496 -1.3566 -0.3204 -2.4743
   74CHL1    C9 7919   5.431   1.168   7.501  0.2114 -0.1321  0.0957
   74CHL1    H9 7920   5.540   1.177   7.484  0.4954  1.9000  2.4548
   74CHL1   C10 7921   5.372   1.142   7.363  0.6775  0.7612  0.4152
   74CHL1   C19 7922   5.214   1.172   7.360 -0.3406 -0.5626 -0.4933
   74CHL1  H19A 7923   5.172   1.143   7.261 -0.8642  0.3820 -0.5654
   74CHL1  H19B 7924   5.160   1.110   7.435 -0.9200  1.1433  0.5442
   74CHL1  H19C 7925   5.190   1.279   7.372 -0.6444 -0.7469  0.6188
   74CHL1    C1 7926   5.451   1.224   7.254 -0.2730  0.5427 -0.2564
   74CHL1   H1A 7927   5.444   1.331   7.283 -2.7365  0.4201 -0.1820
   74CHL1   H1B 7928   5.557   1.195   7.263 -0.3143  0.0864 -1.1831
   74CHL1    C2 7929   5.408   1.213   7.109  0.3145 -0.1055  0.3811
   74CHL1   H2A 7930   5.473   1.286   7.058  1.4971  0.1263  2.1331
   74CHL1   H2B 7931   5.301   1.242   7.107  0.0348 -1.1364 -0.6422
   74CHL1   C20 7932   5.461   1.284   8.051  0.2199 -0.0328 -0.1990
   74CHL1   H20 7933   5.361   1.255   8.087  0.3077 -1.4319 -1.0166
   74CHL1   C21 7934   5.456   1.436   8.018  0.1664  0.2736  0.1968
   74CHL1  H21A 7935   5.470   1.496   8.110  1.9484  1.8417 -1.0227
   74CHL1  H21B 7936   5.359   1.476   7.982 -0.4288  0.3785  1.8494
   74CHL1  H21C 7937   5.542   1.456   7.951  0.4208  1.1493  0.7617
   74CHL1   C22 7938   5.546   1.255   8.176 -0.5601  0.6242  0.5175
   74CHL1  H22A 7939   5.526   1.149   8.202  0.1321  0.8625  2.1671
   74CHL1  H22B 7940   5.656   1.272   8.166 -0.2614 -1.1223  0.4359
   74CHL1   C23 7941   5.512   1.333   8.303 -0.7818 -0.6837  0.3689
   74CHL1  H23A 7942   5.523   1.443   8.290 -1.0195 -0.2636  3.2456
   74CHL1  H23B 7943   5.405   1.317   8.329 -0.2463 -0.7342  2.6922
   74CHL1   C24 7944   5.602   1.294   8.428  0.0374  0.0306 -0.2604
   74CHL1  H24A 7945   5.597   1.184   8.443 -0.9731 -0.0538 -1.1283
   74CHL1  H24B 7946   5.707   1.327   8.412  0.3105 -1.1667 -1.0459
   74CHL1   C25 7947   5.541   1.357   8.555 -0.0830  0.2627 -0.5944
   74CHL1   H25 7948   5.437   1.320   8.571 -0.3992  1.5075  0.3787
   74CHL1   C26 7949   5.623   1.317   8.678  0.4910 -0.2617  0.1110
   74CHL1  H26A 7950   5.729   1.351   8.680  0.2359  0.5246  1.0025
   74CHL1  H26B 7951   5.574   1.368   8.763  1.1062  1.2877 -0.4091
   74CHL1  H26C 7952   5.624   1.207   8.687  1.9785 -0.3340 -0.5435
   74CHL1   C27 7953   5.543   1.513   8.547  0.6083  0.7038 -0.5312
   74CHL1  H27A 7954   5.500   1.553   8.453  3.4290  3.0835 -0.9435
   74CHL1  H27B 7955   5.479   1.557   8.627 -0.7403  0.2129 -1.3044
   74CHL1  H27C 7956   5.646   1.549   8.568  0.9035 -0.8401  0.9686
   75CHL1    C3 7957   0.054   0.681   6.761  0.4635  0.8284 -0.1943
   75CHL1    H3 7958   0.029   0.573   6.759  0.8205  0.6441 -4.4800
   75CHL1    O3 7959   0.062   0.720   6.624 -0.4185 -0.2194 -0.1817
   75CHL1   H3' 7960   0.085   0.814   6.623  1.9016 -0.7266  0.2393
   75CHL1    C4 7961  -0.061   0.764   6.814 -0.0536 -0.0624 -0.8787
   75CHL1   H4A 7962  -0.038   0.870   6.789 -0.4635 -0.0160 -1.0714
   75CHL1   H4B 7963  -0.147   0.740   6.748  0.1505  1.5799 -1.7926
   75CHL1    C5 7964  -0.082   0.765   6.962 -0.2091 -1.1472  0.1183
   75CHL1    C6 7965  -0.205   0.735   7.014  0.5639 -0.4508  0.7612
   75CHL1    H6 7966  -0.293   0.707   6.954  2.1368 -1.9419 -0.9920
   75CHL1    C7 7967  -0.238   0.737   7.164  0.4075 -0.1033 -0.7187
   75CHL1   H7A 7968  -0.330   0.799   7.169  0.1113 -0.4627 -1.4663
   75CHL1   H7B 7969  -0.258   0.633   7.197 -0.2270 -0.0899 -1.0326
   75CHL1    C8 7970  -0.120   0.796   7.251  0.3476  0.1698 -0.1518
   75CHL1    H8 7971  -0.131   0.907   7.243  0.9092  0.1672 -1.2655
   75CHL1   C14 7972  -0.140   0.748   7.400 -0.3115 -1.1348  0.2021
   75CHL1   H14 7973  -0.133   0.637   7.396 -1.8669 -1.2474  0.0768
   75CHL1   C15 7974  -0.278   0.772   7.465 -0.3304 -0.1377 -0.6032
   75CHL1  H15A 7975  -0.320   0.870   7.434 -1.0554 -1.0645 -2.7501
   75CHL1  H15B 7976  -0.344   0.686   7.441 -0.3080 -0.0972 -0.8103
   75CHL1   C16 7977  -0.234   0.758   7.610  0.3836 -0.6547  0.0778
   75CHL1  H16A 7978  -0.289   0.837   7.666 -1.0685 -2.0675  0.7118
   75CHL1  H16B 7979  -0.283   0.670   7.656 -0.0435 -0.0248  0.8520
   75CHL1   C17 7980  -0.079   0.764   7.626 -0.2724 -0.5155  0.7270
   75CHL1   H17 7981  -0.055   0.657   7.647 -0.5635 -0.9801 -1.1485
   75CHL1   C13 7982  -0.023   0.800   7.487  0.5727 -0.2421 -0.6228
   75CHL1   C18 7983  -0.026   0.950   7.485 -0.4901 -0.6133 -0.9974
   75CHL1  H18A 7984   0.063   1.000   7.530 -2.6529  0.9695  1.8631
   75CHL1  H18B 7985  -0.024   1.002   7.387  1.4833 -0.3579 -0.8675
   75CHL1  H18C 7986  -0.116   0.985   7.540 -1.0099 -2.0098 -0.9222
   75CHL1   C12 7987   0.115   0.736   7.437 -0.5034 -0.1330  0.3870
   75CHL1  H12A 7988   0.198   0.772   7.503  0.6449 -1.5708 -0.2059
   75CHL1  H12B 7989   0.117   0.625   7.439  2.9714 -0.2707 -1.8126
   75CHL1   C11 7990   0.140   0.766   7.286  0.6167  0.4398  0.4147
   75CHL1  H11A 7991   0.180   0.867   7.265  0.7985  0.1559 -0.6649
   75CHL1  H11B 7992   0.224   0.698   7.262  0.0360 -0.7883  1.7012
   75CHL1    C9 7993   0.016   0.744   7.192  0.7094  0.2232 -0.1472
   75CHL1    H9 7994   0.011   0.633   7.187 -0.7293  0.1429  1.7921
   75CHL1   C10 7995   0.043   0.788   7.046  0.1218 -0.8439  0.2257
   75CHL1   C19 7996   0.082   0.940   7.041 -0.3210 -0.6105 -0.1523
   75CHL1  H19A 7997   0.089   0.994   6.945  2.5796 -2.4442 -1.0964
   75CHL1  H19B 7998   0.006   0.999   7.097  0.7648  1.9898 -1.2941
   75CHL1  H19C 7999   0.182   0.950   7.089 -0.5665  1.8907 -0.0640
   75CHL1    C1 8000   0.164   0.698   6.990 -0.6120  0.3029  0.5945
   75CHL1   H1A 8001   0.255   0.738   7.039  0.7169  1.2640 -2.4600
   75CHL1   H1B 8002   0.144   0.592   7.016 -2.0422  0.3869 -0.0811
   75CHL1    C2 8003   0.185   0.711   6.833  0.1733 -0.5529 -0.4096
   75CHL1   H2A 8004   0.268   0.641   6.811  0.2832 -0.7749  0.6332
   75CHL1   H2B 8005   0.212   0.818   6.823 -1.3093 -0.1086 -0.0399
   75CHL1   C20 8006  -0.030   0.844   7.747  0.1200  0.6761 -0.1296
   75CHL1   H20 8007  -0.059   0.951   7.748 -0.4923  0.5100  0.2019
   75CHL1   C21 8008   0.123   0.844   7.756  0.1478 -0.2104 -0.1308
   75CHL1  H21A 8009   0.170   0.845   7.857  0.6895 -1.3972 -0.3527
   75CHL1  H21B 8010   0.172   0.923   7.696  0.8543 -1.5203 -1.3485
   75CHL1  H21C 8011   0.156   0.751   7.704  3.1532  1.5719 -1.6518
   75CHL1   C22 8012  -0.091   0.787   7.878 -0.1022  0.3417  0.1884
   75CHL1  H22A 8013  -0.202   0.796   7.876  0.0221  2.1787 -0.5970
   75CHL1  H22B 8014  -0.063   0.680   7.875 -1.6782 -0.0996  0.4743
   75CHL1   C23 8015  -0.046   0.841   8.019 -0.4196  0.6409  0.1197
   75CHL1  H23A 8016   0.061   0.816   8.038 -0.2834  1.4874  0.5088
   75CHL1  H23B 8017  -0.057   0.951   8.013  0.2826  0.6766 -0.7448
   75CHL1   C24 8018  -0.127   0.774   8.133  0.2282 -0.0176  0.0888
   75CHL1  H24A 8019  -0.234   0.764   8.107  0.1726  1.6870 -0.4411
   75CHL1  H24B 8020  -0.088   0.672   8.156 -1.0024  0.1035  3.0989
   75CHL1   C25 8021  -0.119   0.841   8.266  0.2959  0.7725 -0.2320
   75CHL1   H25 8022  -0.195   0.792   8.331  1.0507  2.2500  1.8553
   75CHL1   C26 8023   0.020   0.831   8.329 -0.5247  0.1978 -0.5302
   75CHL1  H26A 8024   0.094   0.895   8.276  0.4875 -0.7779 -0.3455
   75CHL1  H26B 8025   0.006   0.867   8.433  0.8908  3.3791 -1.3145
   75CHL1  H26C 8026   0.054   0.725   8.332 -1.6549 -0.1737  2.0554
   75CHL1   C27 8027  -0.170   0.990   8.269 -0.0148  1.1172  0.2660
   75CHL1  H27A 8028  -0.254   0.994   8.196  0.7515 -2.2317 -0.9823
   75CHL1  H27B 8029  -0.200   1.019   8.372  0.4286  0.0232  0.7097
   75CHL1  H27C 8030  -0.089   1.062   8.244  0.3785  1.1049  1.4272
   76CHL1    C3 8031   2.137   4.672   7.337 -0.1529 -0.3482  0.5153
   76CHL1    H3 8032   2.117   4.763   7.397 -0.4005  0.0555 -0.1622
   76CHL1    O3 8033   2.137   4.695   7.201  0.1115  0.8470 -0.4274
   76CHL1   H3' 8034   2.056   4.742   7.176 -0.2722  0.3345 -0.1613
   76CHL1    C4 8035   2.278   4.619   7.381  0.7931  0.0716  0.0488
   76CHL1   H4A 8036   2.304   4.531   7.319 -0.8793 -0.6351  0.2912
   76CHL1   H4B 8037   2.353   4.695   7.350  1.3251 -0.4048  0.1613
   76CHL1    C5 8038   2.276   4.587   7.535 -0.2628 -0.4707  0.5436
   76CHL1    C6 8039   2.360   4.646   7.623 -0.9550  0.7748 -0.3958
   76CHL1    H6 8040   2.439   4.713   7.586 -0.0934 -0.6544 -1.2652
   76CHL1    C7 8041   2.366   4.608   7.770  0.1202 -0.0279 -0.0066
   76CHL1   H7A 8042   2.470   4.594   7.806  0.2294  1.3920  0.2812
   76CHL1   H7B 8043   2.328   4.700   7.818 -1.0645 -1.4022  1.7851
   76CHL1    C8 8044   2.289   4.482   7.804 -0.2497 -0.1022 -0.1415
   76CHL1    H8 8045   2.344   4.388   7.784  1.4348  1.0484 -1.0549
   76CHL1   C14 8046   2.277   4.474   7.954  0.3662 -0.3669  0.1425
   76CHL1   H14 8047   2.222   4.564   7.988 -0.0349 -0.4540 -0.2746
   76CHL1   C15 8048   2.407   4.457   8.033 -0.0799  0.3230 -0.4224
   76CHL1  H15A 8049   2.479   4.387   7.985  0.8165 -0.3350  1.7765
   76CHL1  H15B 8050   2.461   4.549   8.063  2.7871 -1.0644 -0.9760
   76CHL1   C16 8051   2.361   4.393   8.169 -0.7232 -0.6282 -0.0896
   76CHL1  H16A 8052   2.422   4.301   8.188  0.1602  0.0425  0.3852
   76CHL1  H16B 8053   2.375   4.451   8.262 -1.2779  0.9420 -0.9606
   76CHL1   C17 8054   2.208   4.373   8.150 -0.4499 -0.0608 -0.2908
   76CHL1   H17 8055   2.160   4.467   8.185  0.3915  0.6234 -0.9386
   76CHL1   C13 8056   2.184   4.365   8.004  0.5426  0.6176  1.0442
   76CHL1   C18 8057   2.222   4.225   7.947 -0.3807  0.3887  0.5154
   76CHL1  H18A 8058   2.213   4.215   7.837 -0.3962 -0.1253  0.5647
   76CHL1  H18B 8059   2.331   4.209   7.961 -0.8789 -1.7410  2.5867
   76CHL1  H18C 8060   2.178   4.136   7.996  2.6876 -1.4048  0.2317
   76CHL1   C12 8061   2.042   4.402   7.958 -0.6116  0.4699  0.8448
   76CHL1  H12A 8062   1.976   4.315   7.978  0.1087 -0.0258  1.0985
   76CHL1  H12B 8063   2.003   4.498   7.999  0.6572  1.8300 -0.9459
   76CHL1   C11 8064   2.043   4.406   7.802 -0.3758 -0.5142 -0.8455
   76CHL1  H11A 8065   2.051   4.304   7.758  1.6565 -0.6559 -0.2395
   76CHL1  H11B 8066   1.946   4.452   7.774 -0.8460  0.5549  2.2340
   76CHL1    C9 8067   2.152   4.493   7.736 -0.0127  0.2267  0.1450
   76CHL1    H9 8068   2.112   4.588   7.777 -0.8394 -1.1638  2.8340
   76CHL1   C10 8069   2.158   4.499   7.579  0.3223  0.5603 -0.4227
   76CHL1   C19 8070   2.174   4.352   7.523  0.0912  0.2483  1.0111
   76CHL1  H19A 8071   2.166   4.347   7.412  1.8068 -0.2714  0.8785
   76CHL1  H19B 8072   2.265   4.306   7.567  0.2563 -1.3470 -0.8623
   76CHL1  H19C 8073   2.087   4.288   7.548  1.9199 -2.5608  0.6281
   76CHL1    C1 8074   2.022   4.553   7.526  0.6745  0.0836  0.6544
   76CHL1   H1A 8075   1.941   4.480   7.546 -1.4092  1.7792 -1.0939
   76CHL1   H1B 8076   1.998   4.651   7.572 -1.9811 -0.2726  0.1966
   76CHL1    C2 8077   2.024   4.582   7.372 -0.1292 -0.1460 -0.5059
   76CHL1   H2A 8078   1.924   4.630   7.358 -0.2474  0.4172  1.7978
   76CHL1   H2B 8079   2.032   4.484   7.321  1.8244  0.4760 -1.4829
   76CHL1   C20 8080   2.152   4.259   8.244  0.3222  0.1559  0.1122
   76CHL1   H20 8081   2.185   4.163   8.199 -2.3877  0.6299 -3.2338
   76CHL1   C21 8082   1.994   4.262   8.258 -0.3306 -0.0067  0.7982
   76CHL1  H21A 8083   1.965   4.188   8.335  1.0301 -0.9289  0.4591
   76CHL1  H21B 8084   1.954   4.232   8.159  1.1549  3.7132 -1.1483
   76CHL1  H21C 8085   1.961   4.367   8.276 -2.5870 -0.3299 -0.9194
   76CHL1   C22 8086   2.222   4.266   8.382  0.5430 -0.3654  0.2436
   76CHL1  H22A 8087   2.331   4.250   8.367  0.5552  0.4970 -0.6632
   76CHL1  H22B 8088   2.205   4.366   8.428  3.4743  0.7609 -0.8566
   76CHL1   C23 8089   2.190   4.153   8.478  0.0548 -0.4762 -0.3311
   76CHL1  H23A 8090   2.086   4.163   8.514 -0.4078 -1.3620 -1.3588
   76CHL1  H23B 8091   2.209   4.056   8.429 -1.4100 -0.3127 -1.2833
   76CHL1   C24 8092   2.267   4.171   8.602 -0.5450 -0.6916  1.0163
   76CHL1  H24A 8093   2.370   4.146   8.570 -0.3290  2.9943 -1.7711
   76CHL1  H24B 8094   2.263   4.275   8.641 -1.6025  0.4155 -1.7684
   76CHL1   C25 8095   2.218   4.084   8.718 -0.0710 -0.2028 -0.7931
   76CHL1   H25 8096   2.113   4.112   8.742  0.5976  0.1881  1.9858
   76CHL1   C26 8097   2.237   3.935   8.695 -0.4880 -0.3894 -0.6818
   76CHL1  H26A 8098   2.182   3.879   8.773 -1.8105  0.3932 -1.0222
   76CHL1  H26B 8099   2.180   3.902   8.606 -0.4938 -1.6246 -0.2295
   76CHL1  H26C 8100   2.346   3.914   8.704 -0.5101  0.2371  1.7260
   76CHL1   C27 8101   2.305   4.125   8.838  0.2497  0.6632 -0.0974
   76CHL1  H27A 8102   2.292   4.231   8.868  1.6562  0.3006  2.1002
   76CHL1  H27B 8103   2.278   4.063   8.927 -0.5590 -0.2071 -0.9275
   76CHL1  H27C 8104   2.414   4.108   8.821  0.2856  2.1943 -1.6183
   77CHL1    C3 8105   6.191   2.853   7.029 -0.4861  0.8517  0.4570
   77CHL1    H3 8106   6.182   2.953   7.076 -1.7983  0.1704  1.7454
   77CHL1    O3 8107   6.164   2.866   6.891 -0.3589 -0.0928 -0.5844
   77CHL1   H3' 8108   6.245   2.843   6.844  0.9607 -0.1794  1.5952
   77CHL1    C4 8109   6.324   2.788   7.049 -0.1491  0.5450 -0.5526
   77CHL1   H4A 8110   6.325   2.687   7.003 -0.9466  0.3254 -0.0949
   77CHL1   H4B 8111   6.403   2.843   6.994  0.8588 -0.2143  0.0929
   77CHL1    C5 8112   6.362   2.774   7.195  0.1608 -0.7438 -0.3705
   77CHL1    C6 8113   6.487   2.810   7.233  0.2947  0.0899  0.5486
   77CHL1    H6 8114   6.562   2.846   7.162  0.1546 -1.2303 -0.2872
   77CHL1    C7 8115   6.527   2.810   7.377 -0.0639 -0.5054  0.1138
   77CHL1   H7A 8116   6.628   2.765   7.388 -0.0389 -0.5083 -0.1115
   77CHL1   H7B 8117   6.542   2.917   7.400 -1.5042 -0.5431  1.3800
   77CHL1    C8 8118   6.424   2.744   7.471  0.4241  0.0219  0.3163
   77CHL1    H8 8119   6.448   2.636   7.463 -1.4704 -0.4931  1.1415
   77CHL1   C14 8120   6.451   2.791   7.611  0.2252 -0.2535  0.4279
   77CHL1   H14 8121   6.423   2.899   7.611  2.1543  0.3078 -0.7753
   77CHL1   C15 8122   6.590   2.786   7.666  0.2311 -0.0330  0.1283
   77CHL1  H15A 8123   6.642   2.691   7.642  0.9687  0.4269 -0.1265
   77CHL1  H15B 8124   6.651   2.862   7.613 -0.2530  0.5416  0.3856
   77CHL1   C16 8125   6.567   2.810   7.816 -0.2535 -0.7967 -0.3748
   77CHL1  H16A 8126   6.615   2.720   7.860  2.3124  0.7178  0.1214
   77CHL1  H16B 8127   6.619   2.903   7.848 -1.4666 -0.3049  0.2607
   77CHL1   C17 8128   6.422   2.809   7.843 -0.7017 -0.3073  0.0812
   77CHL1   H17 8129   6.388   2.914   7.830 -2.1768 -0.5562  1.6232
   77CHL1   C13 8130   6.363   2.734   7.722 -0.0511 -0.0399 -0.0847
   77CHL1   C18 8131   6.393   2.585   7.735  0.0917  0.2696 -0.0470
   77CHL1  H18A 8132   6.472   2.564   7.810  1.1202  0.0364 -1.1701
   77CHL1  H18B 8133   6.305   2.523   7.763  0.4410 -0.0574  0.3338
   77CHL1  H18C 8134   6.434   2.550   7.638 -0.9031  1.9687 -1.1278
   77CHL1   C12 8135   6.219   2.753   7.682 -0.3349 -0.5556 -0.5500
   77CHL1  H12A 8136   6.162   2.679   7.743  2.8177 -0.6455  2.5805
   77CHL1  H12B 8137   6.181   2.855   7.707 -0.3447 -0.8233  0.5871
   77CHL1   C11 8138   6.184   2.715   7.542 -0.3779 -0.5899  0.7484
   77CHL1  H11A 8139   6.202   2.605   7.541 -0.2559 -0.5697  0.6008
   77CHL1  H11B 8140   6.080   2.738   7.512  0.8271  4.1673 -0.6557
   77CHL1    C9 8141   6.282   2.774   7.434 -0.0950 -0.4865 -0.3712
   77CHL1    H9 8142   6.276   2.885   7.442  0.9364 -0.3973 -0.6322
   77CHL1   C10 8143   6.250   2.728   7.293  0.0569  0.3407  0.0737
   77CHL1   C19 8144   6.245   2.579   7.285  0.0439 -0.2297  0.9827
   77CHL1  H19A 8145   6.346   2.539   7.309  0.6887  0.6598 -0.1419
   77CHL1  H19B 8146   6.164   2.526   7.339  0.4505 -1.4706  0.4192
   77CHL1  H19C 8147   6.216   2.559   7.180 -2.7700 -0.3456  1.7010
   77CHL1    C1 8148   6.113   2.781   7.250 -0.0422  0.8143  0.0083
   77CHL1   H1A 8149   6.038   2.730   7.313  0.2923  0.2316 -0.0544
   77CHL1   H1B 8150   6.098   2.884   7.288  1.4985 -0.0172  3.2840
   77CHL1    C2 8151   6.087   2.767   7.100  0.6776 -0.8886 -0.5469
   77CHL1   H2A 8152   5.992   2.819   7.074  1.1729  0.5664  0.4212
   77CHL1   H2B 8153   6.089   2.662   7.066  0.0546 -0.9939 -0.2766
   77CHL1   C20 8154   6.386   2.763   7.985  0.5607 -0.3454  0.1470
   77CHL1   H20 8155   6.404   2.653   7.988  0.9909 -0.2557  0.8186
   77CHL1   C21 8156   6.232   2.788   8.004 -0.1448 -0.0965 -0.1904
   77CHL1  H21A 8157   6.216   2.897   7.988 -0.2773 -0.2382 -1.1105
   77CHL1  H21B 8158   6.212   2.772   8.112  2.5289  1.9290  0.7264
   77CHL1  H21C 8159   6.169   2.724   7.939  1.6764 -0.5779 -1.5596
   77CHL1   C22 8160   6.464   2.842   8.092  0.1276  0.1844  0.0134
   77CHL1  H22A 8161   6.572   2.836   8.065 -0.0099 -0.5964 -0.3742
   77CHL1  H22B 8162   6.458   2.950   8.065  0.2969 -0.1704 -1.5419
   77CHL1   C23 8163   6.441   2.820   8.240  0.2450  0.6348 -1.1056
   77CHL1  H23A 8164   6.505   2.882   8.305  0.6981 -0.2062 -0.7297
   77CHL1  H23B 8165   6.338   2.855   8.264 -0.1383 -0.7408 -0.6652
   77CHL1   C24 8166   6.461   2.672   8.277 -0.6863 -0.2002 -0.2343
   77CHL1  H24A 8167   6.408   2.615   8.197  1.1769  2.8989 -4.0434
   77CHL1  H24B 8168   6.569   2.646   8.268 -0.3769  0.6394  0.8450
   77CHL1   C25 8169   6.421   2.623   8.420  0.6170  0.3618 -0.0218
   77CHL1   H25 8170   6.317   2.659   8.434 -0.0555 -0.4075 -2.5615
   77CHL1   C26 8171   6.429   2.470   8.431 -0.3174 -0.2781 -0.2373
   77CHL1  H26A 8172   6.346   2.428   8.370 -0.5205 -1.9262  1.1013
   77CHL1  H26B 8173   6.523   2.423   8.395 -0.0683 -1.3473  1.6691
   77CHL1  H26C 8174   6.415   2.430   8.533  0.7171  0.6714  0.2931
   77CHL1   C27 8175   6.514   2.693   8.531  0.3992  0.4657  0.4219
   77CHL1  H27A 8176   6.620   2.661   8.523  0.7550  1.7211  0.0125
   77CHL1  H27B 8177   6.512   2.803   8.516 -0.3315  0.4105  0.0863
   77CHL1  H27C 8178   6.470   2.671   8.631 -0.9990 -0.3760 -0.3486
   78CHL1    C3 8179   3.649   4.988   6.770 -0.5564  0.1982  0.4916
   78CHL1    H3 8180   3.648   4.877   6.764 -3.1423  0.1991 -0.2964
   78CHL1    O3 8181   3.701   5.049   6.656  0.0221 -0.1156 -0.6155
   78CHL1   H3' 8182   3.671   5.141   6.658  1.4166  0.3488  0.5888
   78CHL1    C4 8183   3.511   5.047   6.799 -0.1429 -0.0791 -0.4933
   78CHL1   H4A 8184   3.528   5.156   6.815  1.5682 -0.5774  1.6667
   78CHL1   H4B 8185   3.438   5.046   6.716 -0.4329  1.5536 -0.2930
   78CHL1    C5 8186   3.459   4.975   6.922  0.6038 -0.0292 -0.6273
   78CHL1    C6 8187   3.343   4.909   6.921  0.4659 -0.6149 -0.2393
   78CHL1    H6 8188   3.280   4.897   6.832  1.3117 -0.9643 -0.7937
   78CHL1    C7 8189   3.277   4.856   7.044  0.0617 -0.4997 -0.9555
   78CHL1   H7A 8190   3.166   4.858   7.046  0.0497 -1.3986  0.5396
   78CHL1   H7B 8191   3.295   4.747   7.054  0.8864 -0.3293 -0.5026
   78CHL1    C8 8192   3.336   4.922   7.175 -0.1545 -0.2908  0.4054
   78CHL1    H8 8193   3.293   5.024   7.179 -0.9283 -0.6427  1.7907
   78CHL1   C14 8194   3.288   4.849   7.301  0.8103 -0.6283 -0.0450
   78CHL1   H14 8195   3.320   4.745   7.279  1.7839 -0.0495 -1.5501
   78CHL1   C15 8196   3.133   4.849   7.331  0.1321 -0.1919  0.2379
   78CHL1  H15A 8197   3.095   4.954   7.323  2.9874  1.0510  1.4614
   78CHL1  H15B 8198   3.065   4.799   7.260  1.2552 -1.7583  0.2287
   78CHL1   C16 8199   3.122   4.814   7.482  0.1441 -0.0651  0.1808
   78CHL1  H16A 8200   3.088   4.887   7.558  0.3618 -0.7427  0.9444
   78CHL1  H16B 8201   3.063   4.723   7.506  0.8799 -0.4077  0.6986
   78CHL1   C17 8202   3.276   4.807   7.528  0.5815 -0.1915  0.2187
   78CHL1   H17 8203   3.317   4.705   7.514  2.2397  0.7195 -2.5126
   78CHL1   C13 8204   3.352   4.897   7.429  0.4480 -0.5999 -0.3311
   78CHL1   C18 8205   3.319   5.050   7.451 -0.0407  0.6310 -0.4988
   78CHL1  H18A 8206   3.389   5.082   7.530 -0.4663  1.6380 -0.5181
   78CHL1  H18B 8207   3.347   5.095   7.353  1.9411 -3.2865 -1.9939
   78CHL1  H18C 8208   3.221   5.084   7.491  0.5982  2.6563 -0.5608
   78CHL1   C12 8209   3.503   4.877   7.415 -0.2478 -0.6576 -1.1620
   78CHL1  H12A 8210   3.556   4.919   7.504  0.3015 -0.5279 -1.5406
   78CHL1  H12B 8211   3.522   4.767   7.410  0.9126 -0.5391  0.0361
   78CHL1   C11 8212   3.565   4.947   7.301  0.5372 -0.3394  0.0685
   78CHL1  H11A 8213   3.542   5.053   7.326 -0.0343  0.0532 -1.9323
   78CHL1  H11B 8214   3.676   4.947   7.293  0.6400  0.8386  1.2252
   78CHL1    C9 8215   3.494   4.921   7.163  0.0706  0.2019 -0.6221
   78CHL1    H9 8216   3.528   4.817   7.141 -1.0696 -0.1031 -0.9867
   78CHL1   C10 8217   3.550   5.005   7.047 -0.1288 -0.8565 -0.0953
   78CHL1   C19 8218   3.560   5.157   7.087  0.3277  1.0493 -0.0435
   78CHL1  H19A 8219   3.457   5.174   7.124  1.2382 -1.2117  4.0338
   78CHL1  H19B 8220   3.623   5.166   7.177  0.4513  0.5463 -0.0760
   78CHL1  H19C 8221   3.583   5.229   7.006 -0.3530 -0.3883 -1.5827
   78CHL1    C1 8222   3.699   4.957   7.021 -0.5914  0.0364  0.0207
   78CHL1   H1A 8223   3.765   4.977   7.108  1.5888 -0.2273 -1.4957
   78CHL1   H1B 8224   3.685   4.849   6.999 -0.8751  0.1927 -0.5906
   78CHL1    C2 8225   3.749   5.015   6.888  0.2220  0.2878  0.6023
   78CHL1   H2A 8226   3.847   4.969   6.861 -0.5784 -1.8565  1.1224
   78CHL1   H2B 8227   3.760   5.123   6.911  2.7375  0.5881 -1.4967
   78CHL1   C20 8228   3.290   4.838   7.677  0.2390  0.2303 -0.0908
   78CHL1   H20 8229   3.263   4.946   7.680  0.1221  0.2030 -0.1684
   78CHL1   C21 8230   3.432   4.815   7.726  0.0880 -0.1246 -0.1520
   78CHL1  H21A 8231   3.445   4.814   7.836 -1.2465  2.3854  0.0882
   78CHL1  H21B 8232   3.505   4.888   7.687 -0.1054  1.5538  2.3987
   78CHL1  H21C 8233   3.469   4.720   7.681  1.2284  0.2152  0.0444
   78CHL1   C22 8234   3.203   4.756   7.780  0.3568  0.3928  0.2146
   78CHL1  H22A 8235   3.103   4.743   7.734  0.5047  0.3096 -0.0894
   78CHL1  H22B 8236   3.253   4.660   7.806  0.2365 -0.0496 -1.1196
   78CHL1   C23 8237   3.195   4.842   7.908  0.4365 -0.4521  0.1171
   78CHL1  H23A 8238   3.292   4.877   7.949  0.2970  0.0298  0.0433
   78CHL1  H23B 8239   3.128   4.925   7.877  0.2859 -0.9216 -0.8639
   78CHL1   C24 8240   3.114   4.763   8.012 -0.5480 -0.0102 -0.2882
   78CHL1  H24A 8241   3.026   4.708   7.972 -0.6174 -1.2196  1.4200
   78CHL1  H24B 8242   3.180   4.683   8.053  0.2998  0.4510 -0.7187
   78CHL1   C25 8243   3.061   4.855   8.125  0.7235 -0.6019 -0.2290
   78CHL1   H25 8244   2.993   4.932   8.083  0.2244 -0.2743  1.1323
   78CHL1   C26 8245   2.966   4.770   8.216 -0.7843  0.9180  0.2922
   78CHL1  H26A 8246   3.008   4.667   8.218 -0.5736  0.9550 -1.0273
   78CHL1  H26B 8247   2.945   4.811   8.317 -2.1748 -0.4713  0.6092
   78CHL1  H26C 8248   2.864   4.773   8.172 -0.6952 -1.6577 -0.2448
   78CHL1   C27 8249   3.177   4.911   8.215  0.0857  0.1468  1.1701
   78CHL1  H27A 8250   3.243   4.981   8.161  1.4648 -0.7247  1.6646
   78CHL1  H27B 8251   3.129   4.961   8.301 -1.1589  0.7449  0.1549
   78CHL1  H27C 8252   3.238   4.829   8.258 -1.8070 -0.8368  2.1207
   79CHL1    C3 8253   3.779   3.385   6.928  0.1977  0.3669  0.3393
   79CHL1    H3 8254   3.830   3.483   6.941  0.3708  0.3759 -0.3675
   79CHL1    O3 8255   3.789   3.357   6.789  0.1073 -0.3011  0.6593
   79CHL1   H3' 8256   3.801   3.263   6.774  2.0524  0.1361 -1.0039
   79CHL1    C4 8257   3.853   3.275   7.008 -0.2690  0.0600 -0.4329
   79CHL1   H4A 8258   3.806   3.180   6.976  1.2460 -0.8463 -0.0993
   79CHL1   H4B 8259   3.960   3.255   6.982 -0.5042 -1.6259 -0.2421
   79CHL1    C5 8260   3.833   3.295   7.160  0.3090  0.6678  0.0648
   79CHL1    C6 8261   3.938   3.287   7.241 -0.2521 -0.2409  0.2495
   79CHL1    H6 8262   4.037   3.260   7.202 -1.7768 -1.0921 -3.4005
   79CHL1    C7 8263   3.932   3.295   7.394  0.1238 -0.4327  0.1904
   79CHL1   H7A 8264   3.998   3.217   7.439  0.3942 -0.5162 -0.3480
   79CHL1   H7B 8265   3.985   3.390   7.416 -1.7603  0.9773 -1.0280
   79CHL1    C8 8266   3.794   3.307   7.449  0.2847 -0.0972 -0.0725
   79CHL1    H8 8267   3.762   3.202   7.467 -0.7022  0.4167  1.4415
   79CHL1   C14 8268   3.808   3.382   7.585 -0.4660 -1.4991 -0.1282
   79CHL1   H14 8269   3.841   3.485   7.562 -0.7913 -1.7371 -1.7785
   79CHL1   C15 8270   3.905   3.328   7.691 -0.1008  0.2302 -0.4349
   79CHL1  H15A 8271   3.898   3.217   7.694 -2.3352  0.2615 -2.1954
   79CHL1  H15B 8272   4.015   3.336   7.677  0.3496 -2.0381  1.0976
   79CHL1   C16 8273   3.867   3.397   7.818 -0.2563 -0.4305  0.2325
   79CHL1  H16A 8274   3.858   3.328   7.905 -0.5183 -0.4436  0.1938
   79CHL1  H16B 8275   3.940   3.473   7.855  0.6269 -1.3415  0.3842
   79CHL1   C17 8276   3.725   3.466   7.792 -1.0077 -0.6458  0.6534
   79CHL1   H17 8277   3.761   3.566   7.759  2.1473 -0.7872  3.1351
   79CHL1   C13 8278   3.675   3.406   7.659 -0.5987 -0.0058 -0.3136
   79CHL1   C18 8279   3.623   3.273   7.700  0.6330  0.2720  0.3433
   79CHL1  H18A 8280   3.692   3.220   7.770  0.0181  0.0691  0.8075
   79CHL1  H18B 8281   3.524   3.287   7.748 -0.4850 -2.1065 -1.1025
   79CHL1  H18C 8282   3.603   3.204   7.616 -1.2679 -1.1399  1.8518
   79CHL1   C12 8283   3.575   3.480   7.571 -0.6579  0.1868  0.0416
   79CHL1  H12A 8284   3.478   3.498   7.623 -1.1516 -1.2570 -0.3074
   79CHL1  H12B 8285   3.615   3.580   7.547 -0.5140  0.2805  0.6550
   79CHL1   C11 8286   3.562   3.407   7.434 -0.1612 -0.1483  0.3305
   79CHL1  H11A 8287   3.513   3.308   7.436  0.3501 -0.4161 -0.1171
   79CHL1  H11B 8288   3.491   3.463   7.369  0.8597  3.2801  1.8982
   79CHL1    C9 8289   3.696   3.383   7.355  0.1056  0.7230  0.2821
   79CHL1    H9 8290   3.747   3.481   7.346  1.2641 -0.0168 -2.4528
   79CHL1   C10 8291   3.688   3.328   7.212 -0.2813  0.6356  0.0998
   79CHL1   C19 8292   3.610   3.190   7.223 -0.1440  0.4041  0.1948
   79CHL1  H19A 8293   3.505   3.204   7.258 -0.2658 -1.7098  0.8674
   79CHL1  H19B 8294   3.590   3.152   7.120 -1.1991 -0.3929  0.6676
   79CHL1  H19C 8295   3.657   3.107   7.280  0.6490 -0.5270 -1.6971
   79CHL1    C1 8296   3.631   3.433   7.119  0.3940  0.1766 -0.3854
   79CHL1   H1A 8297   3.526   3.456   7.149 -0.3481  1.3590 -3.5615
   79CHL1   H1B 8298   3.686   3.530   7.126  0.7615 -0.0675  0.2395
   79CHL1    C2 8299   3.633   3.402   6.970 -0.1456 -0.3320 -0.9207
   79CHL1   H2A 8300   3.586   3.482   6.909 -2.0852 -1.7065 -1.3166
   79CHL1   H2B 8301   3.570   3.311   6.961  1.3483 -1.6368  0.9719
   79CHL1   C20 8302   3.651   3.476   7.924  0.1054 -0.2939  0.0897
   79CHL1   H20 8303   3.624   3.373   7.955  0.5469 -1.1944 -2.3360
   79CHL1   C21 8304   3.524   3.556   7.907 -0.1550 -0.4589  0.5065
   79CHL1  H21A 8305   3.446   3.504   7.848 -2.6335  2.1305  1.2980
   79CHL1  H21B 8306   3.539   3.655   7.859 -0.0118  0.1308  1.7289
   79CHL1  H21C 8307   3.488   3.589   8.007  1.7851  2.8495  0.2722
   79CHL1   C22 8308   3.736   3.537   8.039 -0.7759 -0.2074 -0.5454
   79CHL1  H22A 8309   3.841   3.501   8.036 -0.1868  1.3659  0.1349
   79CHL1  H22B 8310   3.752   3.641   8.004 -0.2499 -0.4079 -0.9126
   79CHL1   C23 8311   3.682   3.536   8.185  0.2852 -0.4215 -0.0786
   79CHL1  H23A 8312   3.577   3.573   8.185  0.6887  0.7713  0.4572
   79CHL1  H23B 8313   3.687   3.433   8.228 -0.9471  0.2031  1.6902
   79CHL1   C24 8314   3.779   3.618   8.272  0.6249 -0.0543  0.7094
   79CHL1  H24A 8315   3.876   3.566   8.258  1.0054  1.0656 -1.2720
   79CHL1  H24B 8316   3.783   3.723   8.234  2.1110 -0.0290  0.8609
   79CHL1   C25 8317   3.753   3.627   8.423 -0.2273  0.2926  0.2326
   79CHL1   H25 8318   3.768   3.523   8.459  2.6266  0.5183  0.0027
   79CHL1   C26 8319   3.861   3.706   8.491 -0.1902  0.7611 -0.2330
   79CHL1  H26A 8320   3.852   3.689   8.600 -3.5290 -0.2595 -0.5618
   79CHL1  H26B 8321   3.965   3.678   8.463  0.0846  0.6113  0.8783
   79CHL1  H26C 8322   3.838   3.814   8.479  0.0692  0.8107 -0.2955
   79CHL1   C27 8323   3.621   3.691   8.456 -0.1408  0.0832  0.3091
   79CHL1  H27A 8324   3.538   3.636   8.407  0.3661 -1.1162  0.7426
   79CHL1  H27B 8325   3.598   3.703   8.564  0.3520  0.1700  0.4062
   79CHL1  H27C 8326   3.630   3.797   8.425 -1.0346 -0.0393 -0.3952
   80CHL1    C3 8327   6.110   2.077   7.146  0.1137 -0.6612 -0.4031
   80CHL1    H3 8328   6.046   1.986   7.149  1.9063 -2.0268 -0.8735
   80CHL1    O3 8329   6.136   2.100   7.010 -0.1994  0.2908 -0.3135
   80CHL1   H3' 8330   6.228   2.127   7.005  0.7863 -2.5867  0.6073
   80CHL1    C4 8331   6.032   2.197   7.195  0.1766 -0.2127 -0.8839
   80CHL1   H4A 8332   6.095   2.289   7.185 -0.8612  0.5240 -0.8486
   80CHL1   H4B 8333   5.945   2.195   7.126 -1.0761 -2.6038  0.6149
   80CHL1    C5 8334   5.991   2.182   7.342  0.0557 -0.1273  0.7738
   80CHL1    C6 8335   5.863   2.191   7.392 -0.0264  0.1847 -0.7563
   80CHL1    H6 8336   5.778   2.213   7.326  0.6468  1.9538 -1.0896
   80CHL1    C7 8337   5.832   2.177   7.543  0.1461 -0.2602  0.0971
   80CHL1   H7A 8338   5.746   2.235   7.584 -1.5461 -1.9099 -0.9843
   80CHL1   H7B 8339   5.777   2.081   7.548 -1.2156  0.4154 -1.1712
   80CHL1    C8 8340   5.956   2.185   7.633  0.7799 -0.1733  0.1270
   80CHL1    H8 8341   5.987   2.290   7.654  0.1074 -0.2396  1.5849
   80CHL1   C14 8342   5.920   2.135   7.768  0.4482  0.5666 -0.1825
   80CHL1   H14 8343   5.902   2.026   7.752  0.6608  0.4118  0.6178
   80CHL1   C15 8344   5.798   2.192   7.834  0.1565  0.0834  0.1150
   80CHL1  H15A 8345   5.795   2.302   7.819  1.2452  0.3047  1.3865
   80CHL1  H15B 8346   5.711   2.129   7.804  0.6526 -0.7830  0.4632
   80CHL1   C16 8347   5.820   2.166   7.983 -0.3129 -0.1511 -0.7483
   80CHL1  H16A 8348   5.822   2.264   8.034  1.0244  0.2306 -1.4898
   80CHL1  H16B 8349   5.740   2.103   8.028  0.4570 -0.9127 -0.4287
   80CHL1   C17 8350   5.962   2.100   8.003  0.2752 -0.0311 -0.6579
   80CHL1   H17 8351   5.951   1.990   7.991  0.0893  0.1955 -3.0684
   80CHL1   C13 8352   6.032   2.139   7.873  0.0250  0.9537 -0.2381
   80CHL1   C18 8353   6.091   2.278   7.900 -0.7130  0.2279 -0.8136
   80CHL1  H18A 8354   6.031   2.344   7.966 -0.3145  0.8542 -1.0655
   80CHL1  H18B 8355   6.189   2.269   7.953 -0.3442 -0.3968 -1.5808
   80CHL1  H18C 8356   6.131   2.319   7.806  2.3792 -0.2121  0.1842
   80CHL1   C12 8357   6.152   2.051   7.830  0.0462 -0.1849 -0.2987
   80CHL1  H12A 8358   6.243   2.054   7.893 -0.3648 -4.0339  0.6949
   80CHL1  H12B 8359   6.113   1.947   7.828 -0.8175  0.1099  0.6575
   80CHL1   C11 8360   6.194   2.085   7.683  0.0634 -0.0978 -0.0561
   80CHL1  H11A 8361   6.263   2.171   7.697  2.0654 -1.6305 -0.0720
   80CHL1  H11B 8362   6.260   2.005   7.644 -0.3670  0.2218 -1.4913
   80CHL1    C9 8363   6.069   2.098   7.579 -0.8224 -0.4937  0.3813
   80CHL1    H9 8364   6.032   1.994   7.575  1.1491 -1.1976 -0.5953
   80CHL1   C10 8365   6.110   2.138   7.437  0.0149 -0.1723 -0.5825
   80CHL1   C19 8366   6.204   2.264   7.455  0.3340 -0.1176 -0.3233
   80CHL1  H19A 8367   6.220   2.308   7.354 -0.0858 -0.2486 -0.4536
   80CHL1  H19B 8368   6.150   2.340   7.516 -3.3461 -2.7095  0.0188
   80CHL1  H19C 8369   6.304   2.239   7.495  0.8678  3.1075  0.6571
   80CHL1    C1 8370   6.184   2.017   7.372  0.2599  0.2571  0.5169
   80CHL1   H1A 8371   6.275   1.975   7.419 -0.3468 -1.0102  0.6166
   80CHL1   H1B 8372   6.108   1.937   7.358 -0.2698  0.5465  1.6328
   80CHL1    C2 8373   6.232   2.053   7.227 -1.2748 -0.3091  0.4752
   80CHL1   H2A 8374   6.286   1.966   7.184  1.1586  1.1293  0.4717
   80CHL1   H2B 8375   6.303   2.137   7.232 -1.5427 -0.1268  1.2017
   80CHL1   C20 8376   6.025   2.111   8.139  0.3421  0.0550  0.1404
   80CHL1   H20 8377   6.088   2.200   8.163  1.1868 -1.3780  3.7266
   80CHL1   C21 8378   6.125   1.999   8.163 -0.0471  0.3434  0.4168
   80CHL1  H21A 8379   6.083   1.901   8.130 -3.1076  1.6392  0.1126
   80CHL1  H21B 8380   6.158   1.985   8.268  0.1415 -0.2954  0.2746
   80CHL1  H21C 8381   6.215   2.034   8.107  0.7019 -1.8718  0.1301
   80CHL1   C22 8382   5.911   2.102   8.251 -0.0765  0.1270  0.1815
   80CHL1  H22A 8383   5.841   2.189   8.244 -1.8707 -1.3051 -0.6356
   80CHL1  H22B 8384   5.851   2.009   8.244 -1.3840  0.9969 -0.9199
   80CHL1   C23 8385   5.972   2.109   8.392  0.1682  0.5470  0.2202
   80CHL1  H23A 8386   6.020   2.012   8.419 -1.2646 -0.1722  0.2795
   80CHL1  H23B 8387   6.056   2.182   8.396  1.2139 -0.5726 -0.5286
   80CHL1   C24 8388   5.867   2.145   8.500 -0.0883 -0.0370  0.0769
   80CHL1  H24A 8389   5.844   2.253   8.490 -1.7099 -0.4813 -1.4601
   80CHL1  H24B 8390   5.770   2.096   8.478  0.6937 -0.9765 -1.4787
   80CHL1   C25 8391   5.913   2.123   8.643 -0.0802  0.3510 -0.4757
   80CHL1   H25 8392   6.015   2.165   8.655 -0.4985  0.8826  1.7400
   80CHL1   C26 8393   5.824   2.199   8.739  0.5349 -0.3837 -0.4216
   80CHL1  H26A 8394   5.825   2.308   8.717 -3.1217 -0.2638 -0.7103
   80CHL1  H26B 8395   5.724   2.150   8.741 -0.0436  0.6123 -2.2696
   80CHL1  H26C 8396   5.869   2.194   8.840 -1.8136  1.4379  0.8189
   80CHL1   C27 8397   5.930   1.974   8.693 -0.0277  0.0047  0.0709
   80CHL1  H27A 8398   5.950   1.971   8.802  2.2605  0.7357 -0.2723
   80CHL1  H27B 8399   5.837   1.920   8.666  0.1056 -1.3967  2.1574
   80CHL1  H27C 8400   6.013   1.921   8.641  1.4199  2.5407 -0.3498
   81CHL1    C3 8401   4.529   0.100   7.038  0.1000 -0.3134 -0.1491
   81CHL1    H3 8402   4.440   0.087   7.104 -0.5529  1.8156 -0.5246
   81CHL1    O3 8403   4.482   0.162   6.915  0.4385 -0.5122 -0.3228
   81CHL1   H3' 8404   4.548   0.228   6.893  0.8718 -0.6542  0.5231
   81CHL1    C4 8405   4.614   0.210   7.109  0.5937 -0.1007 -0.3267
   81CHL1   H4A 8406   4.695   0.247   7.043 -0.0542  0.4221 -0.8429
   81CHL1   H4B 8407   4.546   0.297   7.118 -0.3732 -0.8327 -0.3131
   81CHL1    C5 8408   4.672   0.157   7.244 -0.4290  1.3236  0.0619
   81CHL1    C6 8409   4.644   0.216   7.357  0.7262 -0.4948 -0.5099
   81CHL1    H6 8410   4.579   0.304   7.348 -0.3225 -1.3776 -1.9228
   81CHL1    C7 8411   4.700   0.175   7.489 -0.7244  0.5184  0.2314
   81CHL1   H7A 8412   4.744   0.263   7.541 -1.5538 -1.2845  4.3858
   81CHL1   H7B 8413   4.627   0.131   7.560 -3.0972  2.1086 -1.0900
   81CHL1    C8 8414   4.805   0.058   7.484  0.1584 -0.3366 -0.3422
   81CHL1    H8 8415   4.908   0.091   7.458  0.1860 -0.0505  0.1258
   81CHL1   C14 8416   4.812  -0.013   7.616  0.5254  0.3232  0.0740
   81CHL1   H14 8417   4.714  -0.064   7.631  0.4720  0.2584 -0.4942
   81CHL1   C15 8418   4.830   0.072   7.744  0.0903  0.0007 -0.1685
   81CHL1  H15A 8419   4.918   0.138   7.736  0.3181 -0.3847 -0.9999
   81CHL1  H15B 8420   4.748   0.143   7.768  0.5654 -0.1676  2.1993
   81CHL1   C16 8421   4.840  -0.037   7.851  0.0256 -0.6046  0.0468
   81CHL1  H16A 8422   4.917   0.009   7.916  0.5099  0.1036 -1.0009
   81CHL1  H16B 8423   4.745  -0.032   7.908 -0.6061 -2.5151 -0.7643
   81CHL1   C17 8424   4.880  -0.169   7.778  0.2838 -0.9098 -0.2582
   81CHL1   H17 8425   4.783  -0.221   7.771 -1.3710  1.6128  1.9217
   81CHL1   C13 8426   4.910  -0.124   7.630 -0.1117  0.3213  0.2524
   81CHL1   C18 8427   5.056  -0.069   7.602 -0.8039  0.0165  0.6777
   81CHL1  H18A 8428   5.079  -0.016   7.507 -1.4057 -1.6067 -0.4317
   81CHL1  H18B 8429   5.077   0.008   7.679 -0.1554  2.3668 -1.7094
   81CHL1  H18C 8430   5.132  -0.150   7.609  2.0388  2.5403  1.0495
   81CHL1   C12 8431   4.877  -0.235   7.525  0.6708  0.6420 -0.3404
   81CHL1  H12A 8432   4.957  -0.312   7.514  0.4865  0.8266 -4.0655
   81CHL1  H12B 8433   4.780  -0.281   7.552 -0.8290  2.1627 -2.8009
   81CHL1   C11 8434   4.846  -0.180   7.390  0.6478  0.0272 -0.7064
   81CHL1  H11A 8435   4.939  -0.167   7.331 -0.4299 -0.2858 -2.5642
   81CHL1  H11B 8436   4.784  -0.253   7.333  1.4420 -0.1606 -1.3446
   81CHL1    C9 8437   4.763  -0.044   7.382 -0.5099  1.1177  1.6143
   81CHL1    H9 8438   4.657  -0.072   7.399 -0.2611  0.0327  1.4352
   81CHL1   C10 8439   4.749   0.017   7.240  0.0329 -0.4680  0.3096
   81CHL1   C19 8440   4.884   0.046   7.172  0.3947 -0.1557  0.1600
   81CHL1  H19A 8441   4.925  -0.051   7.138 -2.4913 -1.2063 -0.5725
   81CHL1  H19B 8442   4.884   0.099   7.074  1.7171 -1.3059 -0.4965
   81CHL1  H19C 8443   4.954   0.092   7.246 -0.3154  1.8321 -0.3251
   81CHL1    C1 8444   4.662  -0.086   7.153  0.7367 -0.0690  0.5304
   81CHL1   H1A 8445   4.714  -0.183   7.146  0.9823  0.0688  0.4593
   81CHL1   H1B 8446   4.570  -0.103   7.214  0.5793 -0.8276  0.0920
   81CHL1    C2 8447   4.606  -0.032   7.016 -0.8710  0.5102  0.4697
   81CHL1   H2A 8448   4.547  -0.106   6.958 -0.5379 -2.1260  3.2005
   81CHL1   H2B 8449   4.694  -0.025   6.949 -1.0598 -0.7812  0.0538
   81CHL1   C20 8450   4.988  -0.247   7.857  1.2068 -0.0021 -0.4573
   81CHL1   H20 8451   5.079  -0.183   7.862  0.5832  0.8636  0.1774
   81CHL1   C21 8452   5.011  -0.384   7.789  0.0923  0.4911  0.2342
   81CHL1  H21A 8453   5.081  -0.443   7.852  1.5533  0.1506 -1.6524
   81CHL1  H21B 8454   5.067  -0.365   7.695  1.6088  0.6311  1.1336
   81CHL1  H21C 8455   4.914  -0.435   7.769 -0.9500  1.8461  1.6068
   81CHL1   C22 8456   4.954  -0.269   8.005  0.6018  0.3118  0.2261
   81CHL1  H22A 8457   4.941  -0.174   8.060  1.2694 -1.2995  3.3702
   81CHL1  H22B 8458   4.864  -0.333   8.020  0.1559  0.9849  0.4571
   81CHL1   C23 8459   5.066  -0.341   8.086 -0.0862  0.0874 -0.4151
   81CHL1  H23A 8460   5.052  -0.447   8.055  1.1948  0.7388 -3.5168
   81CHL1  H23B 8461   5.165  -0.305   8.050 -0.2956  0.3122 -0.7631
   81CHL1   C24 8462   5.075  -0.323   8.240  0.7340 -0.5872 -0.1092
   81CHL1  H24A 8463   5.069  -0.213   8.252  0.8589 -0.4052 -1.5359
   81CHL1  H24B 8464   4.973  -0.353   8.275 -0.6355  1.0151 -2.4665
   81CHL1   C25 8465   5.196  -0.377   8.310 -0.8209  0.2889  0.6784
   81CHL1   H25 8466   5.283  -0.333   8.257 -0.9278  0.1793  0.4077
   81CHL1   C26 8467   5.209  -0.342   8.461  0.5095  0.1542 -0.0852
   81CHL1  H26A 8468   5.238  -0.235   8.468  0.7006  0.0219  1.5668
   81CHL1  H26B 8469   5.106  -0.354   8.500  0.8724 -0.9242  0.6018
   81CHL1  H26C 8470   5.288  -0.393   8.520 -0.5882  0.7459  1.9592
   81CHL1   C27 8471   5.204  -0.526   8.290  0.2325  0.9268 -0.1054
   81CHL1  H27A 8472   5.134  -0.581   8.356 -0.7468  1.2221 -0.8744
   81CHL1  H27B 8473   5.181  -0.560   8.186 -3.0100 -0.6152  0.9841
   81CHL1  H27C 8474   5.307  -0.563   8.306  0.1417 -0.0617 -1.5279
   82CHL1    C3 8475   3.685   0.685   7.094  0.5600  0.8173  0.5468
   82CHL1    H3 8476   3.749   0.767   7.132 -0.2736  1.2057  1.1574
   82CHL1    O3 8477   3.697   0.673   6.956 -0.1187 -0.9746 -0.5208
   82CHL1   H3' 8478   3.770   0.611   6.944 -0.9186 -1.5513 -3.2567
   82CHL1    C4 8479   3.739   0.547   7.147 -0.3701  0.4421  0.4950
   82CHL1   H4A 8480   3.664   0.473   7.115  0.1253  0.5617 -1.0236
   82CHL1   H4B 8481   3.836   0.508   7.110 -0.5679 -1.8686  2.2085
   82CHL1    C5 8482   3.736   0.541   7.299 -0.5741 -0.4160  0.0183
   82CHL1    C6 8483   3.851   0.509   7.367  0.9684  0.1075 -0.5044
   82CHL1    H6 8484   3.943   0.485   7.311  0.1173  1.3005 -2.5197
   82CHL1    C7 8485   3.856   0.512   7.520 -0.3389  0.8640 -0.1848
   82CHL1   H7A 8486   3.906   0.422   7.563 -1.6175  0.2847  0.1350
   82CHL1   H7B 8487   3.921   0.598   7.547  1.5709 -0.7417  0.5807
   82CHL1    C8 8488   3.724   0.520   7.587  0.3212 -0.5580 -0.2420
   82CHL1    H8 8489   3.693   0.414   7.583 -0.3754 -0.3793  0.2616
   82CHL1   C14 8490   3.742   0.551   7.733 -0.6432  0.1885  0.6906
   82CHL1   H14 8491   3.799   0.646   7.744 -0.9628  0.6499 -1.1665
   82CHL1   C15 8492   3.838   0.466   7.813 -0.2851 -0.0417  0.0554
   82CHL1  H15A 8493   3.829   0.357   7.790  0.7580  0.1566 -1.5557
   82CHL1  H15B 8494   3.945   0.497   7.802 -0.4178  0.2072 -0.5890
   82CHL1   C16 8495   3.800   0.499   7.957  0.6607  0.4478 -0.4889
   82CHL1  H16A 8496   3.771   0.407   8.013  1.7846  1.1955  1.4119
   82CHL1  H16B 8497   3.882   0.543   8.018  0.1919  0.9132 -0.1869
   82CHL1   C17 8498   3.674   0.594   7.953  0.2606  0.7165  0.1352
   82CHL1   H17 8499   3.717   0.696   7.954  1.6450  0.1561  0.5419
   82CHL1   C13 8500   3.621   0.563   7.817  0.4432 -0.1787  1.1007
   82CHL1   C18 8501   3.544   0.424   7.821 -0.0065 -0.0825  0.5065
   82CHL1  H18A 8502   3.532   0.392   7.715  4.6263  0.1236 -0.2697
   82CHL1  H18B 8503   3.605   0.339   7.859 -0.9200 -1.2531 -0.5664
   82CHL1  H18C 8504   3.449   0.441   7.876 -0.8820  0.5312 -1.1013
   82CHL1   C12 8505   3.537   0.672   7.753  0.5010  0.1465 -0.1901
   82CHL1  H12A 8506   3.441   0.676   7.810  0.9210  1.2857  0.4543
   82CHL1  H12B 8507   3.590   0.767   7.771 -0.8915  1.0164 -0.5108
   82CHL1   C11 8508   3.508   0.663   7.602 -0.1014 -0.1002 -0.5194
   82CHL1  H11A 8509   3.426   0.592   7.576  0.6841 -1.4974  0.6764
   82CHL1  H11B 8510   3.488   0.765   7.562 -2.0478  0.3220  1.3351
   82CHL1    C9 8511   3.630   0.617   7.518 -0.1135 -0.0005 -0.2283
   82CHL1    H9 8512   3.699   0.703   7.529  0.1447 -0.3682  1.3217
   82CHL1   C10 8513   3.607   0.584   7.371  0.5650  0.2007  0.1327
   82CHL1   C19 8514   3.508   0.463   7.362 -0.3183  0.1805 -0.6405
   82CHL1  H19A 8515   3.540   0.378   7.425 -1.8709  0.4227  0.5482
   82CHL1  H19B 8516   3.406   0.489   7.397  0.3026  2.7988 -0.5677
   82CHL1  H19C 8517   3.505   0.434   7.255  1.0285 -1.5626 -0.2468
   82CHL1    C1 8518   3.546   0.711   7.294 -0.3155  0.0595 -0.1498
   82CHL1   H1A 8519   3.445   0.737   7.334 -0.3372 -0.5601  0.2125
   82CHL1   H1B 8520   3.608   0.800   7.317  2.4374 -1.2059 -2.1171
   82CHL1    C2 8521   3.541   0.709   7.143 -0.4514  0.5984  0.0155
   82CHL1   H2A 8522   3.500   0.800   7.093 -1.1470  0.6874  0.7080
   82CHL1   H2B 8523   3.481   0.621   7.112 -0.3968 -0.0621  1.6434
   82CHL1   C20 8524   3.582   0.594   8.078  0.5459  0.0708  0.6055
   82CHL1   H20 8525   3.537   0.494   8.091  1.1684 -0.5842 -1.8554
   82CHL1   C21 8526   3.469   0.699   8.058  0.3689 -0.2750 -0.0758
   82CHL1  H21A 8527   3.449   0.742   8.158 -1.3927 -0.1291 -0.4619
   82CHL1  H21B 8528   3.370   0.656   8.031 -1.8412  2.3456  3.1640
   82CHL1  H21C 8529   3.500   0.780   7.988 -0.8210 -0.2574 -0.6040
   82CHL1   C22 8530   3.662   0.623   8.200  0.4488  0.2015 -0.0802
   82CHL1  H22A 8531   3.751   0.557   8.199 -0.7399 -1.4923  0.5670
   82CHL1  H22B 8532   3.682   0.732   8.204 -0.0339  0.2791  3.2125
   82CHL1   C23 8533   3.581   0.578   8.323  0.2872  0.1547  0.3396
   82CHL1  H23A 8534   3.496   0.648   8.343 -0.3041 -0.7065  0.9220
   82CHL1  H23B 8535   3.531   0.480   8.307  0.9081 -0.2122  0.6431
   82CHL1   C24 8536   3.658   0.581   8.450 -0.0071  0.7640 -0.1736
   82CHL1  H24A 8537   3.752   0.525   8.433  1.9463  2.9428  2.4871
   82CHL1  H24B 8538   3.666   0.692   8.461 -0.0380  0.8895 -1.2610
   82CHL1   C25 8539   3.592   0.539   8.575  0.2757  0.2851 -0.2533
   82CHL1   H25 8540   3.551   0.436   8.560 -2.4100  1.2701 -0.2084
   82CHL1   C26 8541   3.691   0.555   8.687  0.6961  0.1362 -0.8030
   82CHL1  H26A 8542   3.689   0.663   8.711 -1.7646  0.8963 -3.6993
   82CHL1  H26B 8543   3.646   0.499   8.772 -1.3967  0.3146 -1.7218
   82CHL1  H26C 8544   3.776   0.497   8.643  0.1288 -1.7827  0.4838
   82CHL1   C27 8545   3.466   0.619   8.607  0.1028  0.6212 -0.1073
   82CHL1  H27A 8546   3.383   0.581   8.544 -0.2386  1.3075 -0.0783
   82CHL1  H27B 8547   3.447   0.599   8.714  1.2442 -1.4101 -0.2246
   82CHL1  H27C 8548   3.489   0.728   8.606  3.0312  0.1723 -3.3081
   83CHL1    C3 8549   1.335   3.290   7.058  0.8972 -0.6107 -0.1773
   83CHL1    H3 8550   1.400   3.215   7.110 -0.1339 -0.2005  1.7969
   83CHL1    O3 8551   1.291   3.238   6.933  0.7266  0.5292 -0.0567
   83CHL1   H3' 8552   1.217   3.294   6.907  1.9760  1.7606 -1.1772
   83CHL1    C4 8553   1.209   3.316   7.154  0.0196  0.1973  0.6651
   83CHL1   H4A 8554   1.121   3.364   7.107 -2.2763 -0.6127  3.7982
   83CHL1   H4B 8555   1.174   3.213   7.177 -2.7497  0.4115 -1.9436
   83CHL1    C5 8556   1.240   3.391   7.285 -0.3724 -0.1753  0.6587
   83CHL1    C6 8557   1.215   3.345   7.406 -0.4021 -0.2253 -0.2827
   83CHL1    H6 8558   1.170   3.245   7.408 -1.9113  0.3637 -2.2287
   83CHL1    C7 8559   1.251   3.414   7.538  0.4594  0.1053 -0.1953
   83CHL1   H7A 8560   1.169   3.408   7.612  0.7001  1.6932  0.2523
   83CHL1   H7B 8561   1.343   3.372   7.585  0.8170  0.1490 -0.8346
   83CHL1    C8 8562   1.281   3.568   7.515 -0.5422  0.7056  0.2790
   83CHL1    H8 8563   1.184   3.618   7.494 -0.8315  0.2254  0.4560
   83CHL1   C14 8564   1.349   3.621   7.637  0.2788 -0.4144 -0.0053
   83CHL1   H14 8565   1.444   3.565   7.651  1.3230  1.1339 -0.6495
   83CHL1   C15 8566   1.290   3.582   7.770 -0.1024 -0.4302 -0.8926
   83CHL1  H15A 8567   1.184   3.614   7.783  0.3094  0.1538  1.7742
   83CHL1  H15B 8568   1.291   3.473   7.791 -0.2832 -0.5080 -1.2873
   83CHL1   C16 8569   1.381   3.657   7.874  0.0411  0.0254 -0.0970
   83CHL1  H16A 8570   1.325   3.703   7.959  0.0674  0.9392 -0.5645
   83CHL1  H16B 8571   1.444   3.580   7.924 -2.2148 -2.4361 -0.8007
   83CHL1   C17 8572   1.466   3.756   7.787  0.2510 -0.0676  0.7577
   83CHL1   H17 8573   1.565   3.713   7.757  0.3543  0.9253 -0.4139
   83CHL1   C13 8574   1.399   3.763   7.646 -0.2594  0.8314  0.1429
   83CHL1   C18 8575   1.288   3.865   7.642  0.2290 -0.4658  0.4490
   83CHL1  H18A 8576   1.246   3.867   7.540  1.3829 -0.1936 -0.0412
   83CHL1  H18B 8577   1.212   3.840   7.719 -0.3403  1.7289  0.6433
   83CHL1  H18C 8578   1.324   3.968   7.660 -2.0008  0.4638 -0.1441
   83CHL1   C12 8579   1.494   3.779   7.522 -0.5236 -0.5196 -0.0380
   83CHL1  H12A 8580   1.507   3.889   7.515 -2.3601 -0.2524  0.3959
   83CHL1  H12B 8581   1.586   3.717   7.530 -1.0730 -1.1254  2.4217
   83CHL1   C11 8582   1.424   3.741   7.385  0.5380 -0.1517 -0.1794
   83CHL1  H11A 8583   1.343   3.816   7.370 -0.3175 -1.2129 -0.9986
   83CHL1  H11B 8584   1.510   3.738   7.314  2.4148 -3.1732  2.0054
   83CHL1    C9 8585   1.377   3.591   7.394 -0.0390 -0.2368 -0.3374
   83CHL1    H9 8586   1.479   3.548   7.408  0.2970  0.3159 -1.0327
   83CHL1   C10 8587   1.321   3.522   7.262 -0.3302 -0.6014  0.3739
   83CHL1   C19 8588   1.223   3.626   7.199  0.1493 -0.0373 -0.2896
   83CHL1  H19A 8589   1.148   3.662   7.273  0.2385 -0.2844 -0.0742
   83CHL1  H19B 8590   1.273   3.722   7.174  2.1339 -1.5111 -2.3769
   83CHL1  H19C 8591   1.181   3.597   7.100 -1.3159  2.6583 -0.5399
   83CHL1    C1 8592   1.447   3.498   7.169 -0.3188 -0.1171 -0.4174
   83CHL1   H1A 8593   1.486   3.598   7.141 -1.2619 -0.0335 -1.5117
   83CHL1   H1B 8594   1.525   3.445   7.226 -2.1495 -2.5995 -0.0311
   83CHL1    C2 8595   1.416   3.421   7.035  0.3047  0.0287  0.2762
   83CHL1   H2A 8596   1.507   3.396   6.977 -1.9017  0.8182 -3.9592
   83CHL1   H2B 8597   1.347   3.491   6.983 -1.8666 -0.8794  1.7864
   83CHL1   C20 8598   1.494   3.889   7.858  0.1469 -0.0536  0.4073
   83CHL1   H20 8599   1.398   3.941   7.877 -0.3282 -0.4429 -0.8566
   83CHL1   C21 8600   1.584   3.988   7.778  0.1118 -0.3003 -0.2863
   83CHL1  H21A 8601   1.614   4.072   7.844  0.4680 -0.8799  0.2946
   83CHL1  H21B 8602   1.530   4.029   7.690  0.8291  1.3446  0.0096
   83CHL1  H21C 8603   1.676   3.939   7.742  0.4718  0.0225  0.1821
   83CHL1   C22 8604   1.557   3.868   8.002 -0.5483 -0.8918 -0.0884
   83CHL1  H22A 8605   1.481   3.815   8.064 -0.7208 -0.5302  0.0072
   83CHL1  H22B 8606   1.654   3.814   7.997  0.4758  0.4772  2.9938
   83CHL1   C23 8607   1.600   3.995   8.072  0.2550 -0.9115 -0.3897
   83CHL1  H23A 8608   1.692   4.041   8.030  0.5447 -2.9922 -2.2464
   83CHL1  H23B 8609   1.510   4.060   8.070  1.2265  0.5143  0.5707
   83CHL1   C24 8610   1.639   3.967   8.215  0.1335  0.4130 -0.1082
   83CHL1  H24A 8611   1.565   3.899   8.263 -0.2176 -0.3151 -1.6202
   83CHL1  H24B 8612   1.739   3.919   8.210 -0.1130 -0.2560  1.0223
   83CHL1   C25 8613   1.648   4.094   8.313  0.1810 -0.0410  0.7449
   83CHL1   H25 8614   1.696   4.178   8.260  0.0045 -1.4460 -1.8055
   83CHL1   C26 8615   1.500   4.143   8.340  0.3255 -0.2703 -0.5666
   83CHL1  H26A 8616   1.444   4.155   8.245  2.0775  1.2981 -1.4564
   83CHL1  H26B 8617   1.443   4.061   8.390 -1.4486  0.0189 -2.0335
   83CHL1  H26C 8618   1.491   4.234   8.403 -5.1688 -0.0735 -1.2046
   83CHL1   C27 8619   1.728   4.056   8.444  0.1816 -0.0074 -0.0683
   83CHL1  H27A 8620   1.671   3.987   8.510  1.8542  0.3716  1.8855
   83CHL1  H27B 8621   1.828   4.007   8.435  0.2813  0.1443  0.2002
   83CHL1  H27C 8622   1.754   4.140   8.511  0.1650  0.7209 -0.9568
   84CHL1    C3 8623   3.019   5.811   7.064  0.2217 -0.9236  0.4307
   84CHL1    H3 8624   3.121   5.767   7.054  0.5734  0.0076 -0.1717
   84CHL1    O3 8625   2.954   5.796   6.942 -0.0316 -0.2682 -0.0392
   84CHL1   H3' 8626   3.027   5.790   6.881 -2.0465  0.0668 -2.6622
   84CHL1    C4 8627   2.937   5.738   7.173  0.4182 -0.3706  0.1842
   84CHL1   H4A 8628   2.829   5.764   7.168  0.5131 -0.1316 -1.3114
   84CHL1   H4B 8629   2.948   5.630   7.149  0.4779 -0.5952  1.1989
   84CHL1    C5 8630   2.989   5.763   7.311  0.8182 -0.5201 -1.0543
   84CHL1    C6 8631   3.014   5.668   7.400  0.6616  0.6765 -0.8694
   84CHL1    H6 8632   2.983   5.564   7.378  0.3487  0.3797  0.8295
   84CHL1    C7 8633   3.068   5.690   7.539  0.0064 -0.6311  0.5135
   84CHL1   H7A 8634   3.012   5.621   7.606 -2.1192  0.3599 -0.1591
   84CHL1   H7B 8635   3.175   5.662   7.531  0.4057  0.9722 -0.0607
   84CHL1    C8 8636   3.039   5.835   7.593  0.1438 -0.4658  0.8647
   84CHL1    H8 8637   2.929   5.844   7.594 -0.2701 -3.0480 -2.5717
   84CHL1   C14 8638   3.100   5.868   7.729 -0.2906  0.6202  0.7823
   84CHL1   H14 8639   3.210   5.866   7.713  0.2490  0.7951  3.7957
   84CHL1   C15 8640   3.083   5.764   7.841  0.7622 -0.5777  0.2506
   84CHL1  H15A 8641   2.989   5.708   7.820 -0.3617  1.6082 -0.9502
   84CHL1  H15B 8642   3.164   5.689   7.838 -0.5495 -2.0174 -1.0340
   84CHL1   C16 8643   3.068   5.848   7.969 -0.1896 -0.4658 -0.6899
   84CHL1  H16A 8644   2.961   5.853   7.999  0.3102  2.4212  1.0156
   84CHL1  H16B 8645   3.132   5.802   8.046  0.2242  0.2576 -0.5912
   84CHL1   C17 8646   3.112   5.997   7.937 -0.0668  0.3496  0.0973
   84CHL1   H17 8647   3.222   6.002   7.931 -0.0039 -0.3382  0.5252
   84CHL1   C13 8648   3.065   6.002   7.792  0.1032 -0.4239  0.1520
   84CHL1   C18 8649   2.908   6.023   7.802  0.2110  0.1566 -0.0594
   84CHL1  H18A 8650   2.845   5.946   7.851  0.9053  0.7274  1.8228
   84CHL1  H18B 8651   2.897   6.125   7.845 -0.6476  0.4661 -0.9848
   84CHL1  H18C 8652   2.866   6.024   7.699 -0.9463 -3.0060  0.2774
   84CHL1   C12 8653   3.128   6.104   7.694 -0.9859  0.8307 -0.0117
   84CHL1  H12A 8654   3.082   6.203   7.718 -0.6332  1.6516 -2.4123
   84CHL1  H12B 8655   3.239   6.106   7.696 -0.8146 -1.2011 -2.4896
   84CHL1   C11 8656   3.087   6.075   7.542 -0.4250 -0.0766  0.1270
   84CHL1  H11A 8657   2.987   6.122   7.534 -0.4466 -0.3700 -1.6153
   84CHL1  H11B 8658   3.151   6.140   7.479 -0.7182  0.0388 -0.0516
   84CHL1    C9 8659   3.081   5.936   7.482  0.9659  0.8576 -0.0867
   84CHL1    H9 8660   3.186   5.912   7.453 -0.0684 -1.2020 -2.5457
   84CHL1   C10 8661   3.008   5.914   7.343 -0.8835  0.2444 -0.2579
   84CHL1   C19 8662   2.863   5.974   7.348 -0.0026 -0.2263  0.0788
   84CHL1  H19A 8663   2.861   6.084   7.358  0.5096  0.0014 -1.8733
   84CHL1  H19B 8664   2.808   5.961   7.252 -0.8781  1.7303  0.2661
   84CHL1  H19C 8665   2.798   5.922   7.421 -1.8672  2.0724  0.1407
   84CHL1    C1 8666   3.095   5.987   7.236  0.1424 -0.0827  0.0297
   84CHL1   H1A 8667   3.090   6.097   7.251  3.8860  0.2402 -0.0850
   84CHL1   H1B 8668   3.202   5.959   7.246  0.6091  1.7181  0.4287
   84CHL1    C2 8669   3.037   5.961   7.089  0.5365 -0.1800 -0.1726
   84CHL1   H2A 8670   3.105   6.002   7.012 -0.8825 -0.7191 -1.7739
   84CHL1   H2B 8671   2.942   6.016   7.072  0.0403 -0.7996  0.5176
   84CHL1   C20 8672   3.081   6.101   8.037  0.0450  0.4955 -0.3415
   84CHL1   H20 8673   2.970   6.097   8.040  0.0758 -2.9220  2.8525
   84CHL1   C21 8674   3.134   6.240   7.997  0.3034  0.1446  0.2608
   84CHL1  H21A 8675   3.078   6.294   7.918 -1.2610  1.3234  2.0916
   84CHL1  H21B 8676   3.232   6.217   7.949 -0.3932 -0.5179 -0.8737
   84CHL1  H21C 8677   3.146   6.306   8.086 -0.7794  1.0608 -0.2482
   84CHL1   C22 8678   3.117   6.068   8.182 -0.0145 -0.4153 -0.5794
   84CHL1  H22A 8679   3.063   6.144   8.244 -0.2779  0.7429 -2.1389
   84CHL1  H22B 8680   3.088   5.963   8.202  2.8464 -1.3805 -1.0486
   84CHL1   C23 8681   3.261   6.082   8.230  0.7400 -0.0581 -0.0721
   84CHL1  H23A 8682   3.339   6.022   8.179  0.6767 -0.6003  0.4448
   84CHL1  H23B 8683   3.287   6.188   8.213  0.8047 -0.0250  0.2178
   84CHL1   C24 8684   3.271   6.066   8.382  0.2571 -0.0426 -0.8368
   84CHL1  H24A 8685   3.357   6.128   8.414 -0.3623  0.6786 -0.5508
   84CHL1  H24B 8686   3.183   6.119   8.425  0.5821 -0.4330  0.3427
   84CHL1   C25 8687   3.248   5.925   8.433  0.1167  0.0684 -0.0778
   84CHL1   H25 8688   3.151   5.885   8.398  0.9097 -0.5702 -1.6144
   84CHL1   C26 8689   3.360   5.835   8.376  0.1204 -0.5788 -0.9174
   84CHL1  H26A 8690   3.372   5.754   8.452 -0.7876  2.6816  3.0454
   84CHL1  H26B 8691   3.327   5.806   8.274  0.6610 -0.6608 -1.0749
   84CHL1  H26C 8692   3.453   5.895   8.364 -0.5170  0.6850  0.2106
   84CHL1   C27 8693   3.239   5.919   8.588 -0.0637  0.0175 -0.8324
   84CHL1  H27A 8694   3.186   5.824   8.608  0.4881  0.2653  2.3016
   84CHL1  H27B 8695   3.334   5.919   8.646 -1.1043  0.8689  0.9481
   84CHL1  H27C 8696   3.180   6.000   8.636 -0.2103 -1.1968  1.1196
   85CHL1    C3 8697   2.569   4.300   6.739 -0.3115  0.9066  0.4185
   85CHL1    H3 8698   2.678   4.313   6.753 -0.3399  1.2305  0.3426
   85CHL1    O3 8699   2.545   4.331   6.601 -0.0321  0.0467 -0.2406
   85CHL1   H3' 8700   2.579   4.420   6.590 -0.3490  0.0141 -1.6366
   85CHL1    C4 8701   2.534   4.151   6.776 -0.8348 -0.5767 -0.9957
   85CHL1   H4A 8702   2.423   4.156   6.770 -1.0106  1.6514  1.7739
   85CHL1   H4B 8703   2.581   4.084   6.701 -0.9164 -2.1174  0.2927
   85CHL1    C5 8704   2.576   4.132   6.922 -0.1998 -0.5502  0.3505
   85CHL1    C6 8705   2.668   4.036   6.953  0.1590  0.3020  0.0810
   85CHL1    H6 8706   2.718   3.976   6.876  1.0876 -0.5686  1.3033
   85CHL1    C7 8707   2.710   4.021   7.096 -0.5854  0.2582 -0.9503
   85CHL1   H7A 8708   2.720   3.914   7.122 -2.5850  0.3028  0.2384
   85CHL1   H7B 8709   2.811   4.066   7.110 -0.4162 -0.3857 -0.0200
   85CHL1    C8 8710   2.606   4.071   7.198 -0.5092 -0.0237 -0.0729
   85CHL1    H8 8711   2.510   4.016   7.193 -1.7903  2.1677 -1.3590
   85CHL1   C14 8712   2.667   4.081   7.336 -0.1866 -0.3422 -0.1031
   85CHL1   H14 8713   2.752   4.153   7.335  2.9276 -3.7481 -0.7164
   85CHL1   C15 8714   2.729   3.952   7.391  0.2441 -0.4175  0.2279
   85CHL1  H15A 8715   2.671   3.866   7.348 -0.5525  0.1075  0.2270
   85CHL1  H15B 8716   2.828   3.934   7.345 -0.9120 -2.5224 -1.6895
   85CHL1   C16 8717   2.716   3.964   7.542  0.7893 -0.5565  0.4156
   85CHL1  H16A 8718   2.636   3.893   7.571  0.2149 -0.2779 -0.4323
   85CHL1  H16B 8719   2.815   3.936   7.583  0.7544 -3.1332 -1.0318
   85CHL1   C17 8720   2.658   4.106   7.563  0.3570 -0.2045 -0.1400
   85CHL1   H17 8721   2.745   4.173   7.545 -0.4080  0.2356 -2.7132
   85CHL1   C13 8722   2.574   4.132   7.442  0.7653  0.2106 -0.2816
   85CHL1   C18 8723   2.438   4.057   7.447  0.2793  0.0084  0.3067
   85CHL1  H18A 8724   2.375   4.094   7.530  0.4536 -0.8759  0.8459
   85CHL1  H18B 8725   2.376   4.068   7.355  1.1399  2.8075 -0.0349
   85CHL1  H18C 8726   2.448   3.947   7.459 -1.1626 -0.0635  1.0620
   85CHL1   C12 8727   2.553   4.278   7.411 -0.1424 -0.1945 -0.0536
   85CHL1  H12A 8728   2.483   4.328   7.481  0.4581 -1.5353  1.5720
   85CHL1  H12B 8729   2.648   4.334   7.415 -1.0180  1.4837 -1.3322
   85CHL1   C11 8730   2.506   4.303   7.264  0.6339 -0.5221 -0.1517
   85CHL1  H11A 8731   2.396   4.287   7.267  0.2221  1.1342 -2.8574
   85CHL1  H11B 8732   2.523   4.411   7.244  1.6340 -0.8832 -1.3319
   85CHL1    C9 8733   2.572   4.218   7.160  0.9596 -0.2980 -0.2947
   85CHL1    H9 8734   2.671   4.265   7.145  0.6121  1.2714  1.9482
   85CHL1   C10 8735   2.506   4.232   7.018  0.2064  0.7717  0.3115
   85CHL1   C19 8736   2.362   4.178   7.024  0.0163 -0.1992 -0.4604
   85CHL1  H19A 8737   2.308   4.202   6.929 -1.0090 -2.2674 -0.4298
   85CHL1  H19B 8738   2.369   4.070   7.046  0.5216  0.4949  3.5220
   85CHL1  H19C 8739   2.300   4.222   7.104 -0.1918  0.1989 -0.8311
   85CHL1    C1 8740   2.517   4.379   6.965  0.5047  0.1292 -0.3601
   85CHL1   H1A 8741   2.454   4.446   7.028  0.9487  0.9270 -0.7465
   85CHL1   H1B 8742   2.624   4.406   6.979 -0.0370  1.6799  1.2265
   85CHL1    C2 8743   2.495   4.395   6.815  0.5042  0.2696 -1.0316
   85CHL1   H2A 8744   2.515   4.498   6.778 -1.8129  1.0094 -0.4243
   85CHL1   H2B 8745   2.389   4.366   6.798  0.6023  0.5256 -2.1813
   85CHL1   C20 8746   2.592   4.147   7.701 -0.4797  0.1112  0.0568
   85CHL1   H20 8747   2.483   4.129   7.687 -0.2350  0.5792 -2.9637
   85CHL1   C21 8748   2.629   4.295   7.726 -0.0990  0.1066  0.0533
   85CHL1  H21A 8749   2.584   4.365   7.653 -1.1132 -2.6592 -2.1479
   85CHL1  H21B 8750   2.738   4.313   7.733 -0.1502  1.2647 -1.4828
   85CHL1  H21C 8751   2.587   4.325   7.824 -0.9783 -1.6062  0.2386
   85CHL1   C22 8752   2.662   4.062   7.811  0.2649 -0.2682 -0.5789
   85CHL1  H22A 8753   2.659   3.953   7.791 -0.0671  0.0034 -2.1930
   85CHL1  H22B 8754   2.769   4.083   7.829 -0.2597  0.2353  2.3791
   85CHL1   C23 8755   2.595   4.076   7.952  0.0515  0.2330  0.0854
   85CHL1  H23A 8756   2.607   4.184   7.972  2.0529 -0.3088  2.3596
   85CHL1  H23B 8757   2.494   4.036   7.930  1.2729 -1.8000 -2.2906
   85CHL1   C24 8758   2.670   4.014   8.074  1.3729  0.1187  0.2028
   85CHL1  H24A 8759   2.667   3.904   8.061 -2.3691  0.2254 -1.0285
   85CHL1  H24B 8760   2.776   4.048   8.072  1.4422 -0.1421 -0.7651
   85CHL1   C25 8761   2.602   4.058   8.209 -0.5885  0.1167 -0.6355
   85CHL1   H25 8762   2.598   4.169   8.202  1.1651  0.3141  0.6533
   85CHL1   C26 8763   2.461   3.996   8.219  0.3422  0.3694 -0.7651
   85CHL1  H26A 8764   2.399   4.020   8.130 -3.2425 -0.9619  1.1673
   85CHL1  H26B 8765   2.474   3.887   8.233  1.9758  0.4118 -1.6936
   85CHL1  H26C 8766   2.425   4.045   8.312  2.2745  0.6043 -0.0927
   85CHL1   C27 8767   2.685   3.993   8.323 -0.3538 -0.7520 -0.0931
   85CHL1  H27A 8768   2.662   4.045   8.418  1.4755  0.1395 -0.1027
   85CHL1  H27B 8769   2.669   3.883   8.327 -0.5361 -0.8286 -2.0157
   85CHL1  H27C 8770   2.794   4.001   8.308  0.4579 -2.9617  3.5074
   86CHL1    C3 8771   4.236   6.667   7.078 -0.1420 -0.0379 -0.3354
   86CHL1    H3 8772   4.343   6.693   7.064  0.2668 -0.4832  1.6074
   86CHL1    O3 8773   4.163   6.672   6.951 -0.0275  0.0150 -0.3059
   86CHL1   H3' 8774   4.181   6.760   6.916  1.0497 -0.9592 -2.3786
   86CHL1    C4 8775   4.231   6.529   7.138 -0.0125  0.1041 -0.5241
   86CHL1   H4A 8776   4.124   6.503   7.156  0.1424 -0.1028  0.1402
   86CHL1   H4B 8777   4.274   6.456   7.066  0.1774  2.1635 -2.6151
   86CHL1    C5 8778   4.293   6.523   7.279 -0.2252  0.4062  0.1174
   86CHL1    C6 8779   4.392   6.432   7.314  0.3445 -1.2565 -0.0438
   86CHL1    H6 8780   4.407   6.350   7.242 -1.8174 -0.7568 -1.1517
   86CHL1    C7 8781   4.444   6.413   7.448  0.1738 -0.6783 -0.0013
   86CHL1   H7A 8782   4.446   6.303   7.468 -1.5159 -0.7508 -0.1127
   86CHL1   H7B 8783   4.550   6.446   7.451 -0.0728  0.0941  0.3216
   86CHL1    C8 8784   4.374   6.492   7.557 -0.7868  0.0627 -0.1205
   86CHL1    H8 8785   4.276   6.448   7.585 -1.2629  1.0420 -0.2105
   86CHL1   C14 8786   4.452   6.502   7.684 -0.6955  0.4253  0.0740
   86CHL1   H14 8787   4.550   6.549   7.660 -0.5663  1.1005  1.7927
   86CHL1   C15 8788   4.508   6.371   7.742 -0.3679 -0.2530 -0.7640
   86CHL1  H15A 8789   4.422   6.302   7.756 -1.1034  0.6529 -0.6878
   86CHL1  H15B 8790   4.593   6.334   7.680  0.7125 -0.1019  0.5811
   86CHL1   C16 8791   4.561   6.423   7.873  0.1703  0.1841  1.1401
   86CHL1  H16A 8792   4.520   6.355   7.950  0.0997  1.4687  2.2505
   86CHL1  H16B 8793   4.670   6.405   7.889  0.1034  0.3492  1.7817
   86CHL1   C17 8794   4.512   6.566   7.892  0.5847  0.4534 -0.0154
   86CHL1   H17 8795   4.583   6.646   7.864  1.6859 -0.4111  0.2556
   86CHL1   C13 8796   4.396   6.580   7.795  0.6518  0.3212 -0.5394
   86CHL1   C18 8797   4.262   6.517   7.852 -0.0181  0.0590 -0.1403
   86CHL1  H18A 8798   4.295   6.418   7.888 -0.1887  0.2500  0.5385
   86CHL1  H18B 8799   4.229   6.582   7.936  1.4840 -0.5987  1.0124
   86CHL1  H18C 8800   4.181   6.516   7.775 -0.0009 -1.0206 -0.1513
   86CHL1   C12 8801   4.375   6.717   7.744 -0.1457 -0.1490 -0.6084
   86CHL1  H12A 8802   4.330   6.787   7.818  1.0143  1.4924 -1.4045
   86CHL1  H12B 8803   4.473   6.769   7.736 -1.3561  2.3917 -0.0634
   86CHL1   C11 8804   4.286   6.722   7.619 -0.4167  0.0360 -0.6673
   86CHL1  H11A 8805   4.183   6.701   7.656  0.9939 -4.1981  1.3866
   86CHL1  H11B 8806   4.281   6.826   7.581  0.8610  0.3951  0.0922
   86CHL1    C9 8807   4.343   6.637   7.501 -0.0586 -0.3896 -0.0930
   86CHL1    H9 8808   4.440   6.679   7.469 -2.0618  3.1484 -2.1354
   86CHL1   C10 8809   4.247   6.625   7.374 -0.2380 -0.1847 -0.5068
   86CHL1   C19 8810   4.103   6.590   7.423  0.8982 -0.1435 -0.5345
   86CHL1  H19A 8811   4.040   6.563   7.335 -0.3089  1.1512 -0.1068
   86CHL1  H19B 8812   4.103   6.502   7.491 -0.0098  1.4603  1.6389
   86CHL1  H19C 8813   4.053   6.675   7.473  0.1066  0.5123 -2.3324
   86CHL1    C1 8814   4.253   6.767   7.312  0.5439  0.0509 -0.0975
   86CHL1   H1A 8815   4.215   6.840   7.387  0.1954 -1.3672  1.1594
   86CHL1   H1B 8816   4.358   6.795   7.291  0.3150 -0.2297 -1.7539
   86CHL1    C2 8817   4.181   6.771   7.178 -0.4963  0.3517  0.2753
   86CHL1   H2A 8818   4.193   6.874   7.138  0.6154 -0.8012 -2.6659
   86CHL1   H2B 8819   4.074   6.757   7.204 -0.4807  0.1364  0.2245
   86CHL1   C20 8820   4.481   6.602   8.048  0.5361  0.2202  0.3810
   86CHL1   H20 8821   4.411   6.521   8.078  0.2479 -1.0998 -3.3038
   86CHL1   C21 8822   4.420   6.736   8.058  0.2179  0.0705 -0.4957
   86CHL1  H21A 8823   4.469   6.808   7.989  1.1729 -1.1577 -1.1606
   86CHL1  H21B 8824   4.405   6.767   8.163  0.4686 -0.4749 -0.2942
   86CHL1  H21C 8825   4.313   6.732   8.028  0.3874  0.3319 -1.1664
   86CHL1   C22 8826   4.619   6.587   8.124 -0.0731 -0.2545  0.1530
   86CHL1  H22A 8827   4.661   6.487   8.102  1.4604  0.1076  1.2634
   86CHL1  H22B 8828   4.689   6.665   8.087  0.6951 -0.5991  0.8558
   86CHL1   C23 8829   4.595   6.595   8.284 -0.0330 -0.0511  0.3468
   86CHL1  H23A 8830   4.532   6.683   8.305 -1.3274 -0.7393 -0.4893
   86CHL1  H23B 8831   4.541   6.503   8.315  0.5301 -0.5467 -0.1075
   86CHL1   C24 8832   4.725   6.592   8.372 -0.4435  0.4748  0.1264
   86CHL1  H24A 8833   4.768   6.495   8.339 -0.1962  1.1849 -1.7880
   86CHL1  H24B 8834   4.797   6.663   8.326  1.1037 -0.6847  0.6379
   86CHL1   C25 8835   4.695   6.612   8.519 -0.2781 -0.1515  0.0819
   86CHL1   H25 8836   4.656   6.715   8.529  0.3689  0.1533 -0.4485
   86CHL1   C26 8837   4.601   6.508   8.575 -0.5617 -0.1682 -0.0828
   86CHL1  H26A 8838   4.599   6.509   8.686 -0.2890  0.3571 -0.0813
   86CHL1  H26B 8839   4.500   6.541   8.542  0.0672  1.4374 -0.4899
   86CHL1  H26C 8840   4.630   6.406   8.543  3.2996  0.6000  0.4720
   86CHL1   C27 8841   4.831   6.620   8.599 -0.4791 -0.1459 -0.2217
   86CHL1  H27A 8842   4.904   6.698   8.569 -1.1367  0.7718  0.5200
   86CHL1  H27B 8843   4.823   6.626   8.710 -1.2651  1.2657 -0.3342
   86CHL1  H27C 8844   4.879   6.522   8.579 -1.2887 -0.2349 -1.8445
   87CHL1    C3 8845   4.777   5.028   6.978 -0.2373 -0.1074  0.4370
   87CHL1    H3 8846   4.691   5.097   6.993  0.4536  0.7084  0.7354
   87CHL1    O3 8847   4.796   5.025   6.842 -0.3389  0.2769  0.3372
   87CHL1   H3' 8848   4.879   4.983   6.817 -1.0587 -0.3017 -1.2634
   87CHL1    C4 8849   4.895   5.078   7.058 -0.5589  0.8643  0.1032
   87CHL1   H4A 8850   4.978   5.016   7.019 -0.3035  0.0977  1.7744
   87CHL1   H4B 8851   4.928   5.181   7.033  5.2351 -0.6599  0.2065
   87CHL1    C5 8852   4.882   5.057   7.203  0.1196 -0.6838  0.0257
   87CHL1    C6 8853   4.879   5.159   7.294  0.3232  0.5882 -0.4755
   87CHL1    H6 8854   4.897   5.261   7.258  1.7189  1.6047  2.8008
   87CHL1    C7 8855   4.867   5.135   7.444 -0.4218  0.0914  0.0450
   87CHL1   H7A 8856   4.941   5.196   7.500 -0.3584  0.7616 -0.7369
   87CHL1   H7B 8857   4.771   5.178   7.479  0.9082  1.7795  1.8234
   87CHL1    C8 8858   4.883   4.990   7.493  0.0799 -0.4521 -0.6130
   87CHL1    H8 8859   4.989   4.958   7.494 -0.1077 -1.0908 -0.8490
   87CHL1   C14 8860   4.824   4.977   7.639  0.0709  0.4143 -0.2599
   87CHL1   H14 8861   4.719   5.007   7.616 -0.4203 -0.6615  0.4871
   87CHL1   C15 8862   4.873   5.060   7.756 -0.6605  0.2209  0.3637
   87CHL1  H15A 8863   4.983   5.073   7.748 -0.5677 -1.5442 -2.7037
   87CHL1  H15B 8864   4.820   5.158   7.764 -1.6629 -0.3195  0.4391
   87CHL1   C16 8865   4.825   4.993   7.885 -0.4763 -0.2072  0.5900
   87CHL1  H16A 8866   4.902   4.975   7.964  2.4126 -0.7973 -2.1426
   87CHL1  H16B 8867   4.734   5.043   7.923  0.5822  0.3922  2.4988
   87CHL1   C17 8868   4.768   4.848   7.833  0.2476  0.3477 -0.7202
   87CHL1   H17 8869   4.657   4.857   7.829  0.2423  0.1888 -0.9692
   87CHL1   C13 8870   4.816   4.836   7.687 -0.2619 -0.2673  0.1686
   87CHL1   C18 8871   4.970   4.791   7.695 -1.0367  0.2036  0.1154
   87CHL1  H18A 8872   5.020   4.794   7.596  0.8117  0.1949  1.0155
   87CHL1  H18B 8873   5.030   4.857   7.761  0.4505 -2.3206  1.4081
   87CHL1  H18C 8874   4.977   4.688   7.736  0.1732  1.0633  2.2004
   87CHL1   C12 8875   4.720   4.752   7.599 -0.3786 -0.3976  0.4757
   87CHL1  H12A 8876   4.707   4.645   7.627  0.6113 -0.4429  0.8185
   87CHL1  H12B 8877   4.618   4.795   7.602 -1.3343 -2.3148 -1.5437
   87CHL1   C11 8878   4.782   4.756   7.457  0.2440  0.8281  0.4022
   87CHL1  H11A 8879   4.882   4.708   7.460 -0.5044 -0.7726  1.0635
   87CHL1  H11B 8880   4.722   4.703   7.379 -2.0137  0.4375  2.2752
   87CHL1    C9 8881   4.806   4.903   7.394 -0.0287  0.1735  0.4105
   87CHL1    H9 8882   4.704   4.947   7.394  0.0569  0.4136  1.5502
   87CHL1   C10 8883   4.851   4.911   7.242  0.4622  0.2689  0.0962
   87CHL1   C19 8884   4.984   4.831   7.240 -0.6837 -0.7558  0.1098
   87CHL1  H19A 8885   5.045   4.863   7.327 -1.9383  0.2893  0.6439
   87CHL1  H19B 8886   4.972   4.721   7.255  0.8856 -0.6219  3.1573
   87CHL1  H19C 8887   5.051   4.847   7.153  2.1615 -3.5170  1.6112
   87CHL1    C1 8888   4.724   4.851   7.157 -0.3793  0.0827 -0.1106
   87CHL1   H1A 8889   4.731   4.741   7.167 -0.4574 -0.0041 -0.9488
   87CHL1   H1B 8890   4.632   4.894   7.200 -0.8597 -1.9822  1.0552
   87CHL1    C2 8891   4.745   4.882   7.010  0.7838  0.8247 -0.6578
   87CHL1   H2A 8892   4.653   4.861   6.951  0.7431 -1.8881  0.2228
   87CHL1   H2B 8893   4.808   4.800   6.968 -2.7916 -1.7536 -1.5188
   87CHL1   C20 8894   4.798   4.739   7.938  0.4534 -0.5867  0.1013
   87CHL1   H20 8895   4.908   4.735   7.948  0.4868 -1.8536 -0.6127
   87CHL1   C21 8896   4.756   4.606   7.888  0.1243  0.7942  0.4721
   87CHL1  H21A 8897   4.822   4.587   7.801  1.6418  0.9266  1.5557
   87CHL1  H21B 8898   4.647   4.605   7.869  0.0806  1.2925  0.6638
   87CHL1  H21C 8899   4.762   4.518   7.954 -0.3498 -1.2433 -2.0448
   87CHL1   C22 8900   4.742   4.762   8.076  0.5364  0.0520  0.2726
   87CHL1  H22A 8901   4.724   4.869   8.100 -0.7244 -0.2074  0.5677
   87CHL1  H22B 8902   4.635   4.733   8.067  1.1475 -3.0752  1.6433
   87CHL1   C23 8903   4.800   4.677   8.196  0.0301  0.3014  0.7879
   87CHL1  H23A 8904   4.780   4.570   8.177  0.9139  0.1612  0.5795
   87CHL1  H23B 8905   4.911   4.685   8.189  0.0318 -0.6986 -0.6659
   87CHL1   C24 8906   4.751   4.726   8.329  0.5893 -1.2549 -0.1866
   87CHL1  H24A 8907   4.785   4.831   8.345 -1.8962 -0.3568 -0.2350
   87CHL1  H24B 8908   4.641   4.746   8.331  0.9679  1.0814  0.8411
   87CHL1   C25 8909   4.761   4.618   8.438 -0.0946 -0.4528  0.5872
   87CHL1   H25 8910   4.691   4.538   8.403 -1.4692 -0.4558  3.0994
   87CHL1   C26 8911   4.898   4.574   8.460 -0.7534  0.1123 -0.0467
   87CHL1  H26A 8912   4.898   4.501   8.544 -0.0397 -0.5594 -0.6203
   87CHL1  H26B 8913   4.951   4.527   8.375 -0.8737  3.0586 -1.8851
   87CHL1  H26C 8914   4.961   4.659   8.498 -0.8760  0.3166 -0.2987
   87CHL1   C27 8915   4.708   4.669   8.567  0.1725  0.4955 -0.4882
   87CHL1  H27A 8916   4.774   4.746   8.613  0.0837 -0.8218  2.0333
   87CHL1  H27B 8917   4.608   4.715   8.554  0.3723  1.1965  0.3015
   87CHL1  H27C 8918   4.705   4.596   8.651 -1.3127  1.4659  0.3560
   88CHL1    C3 8919   0.768   6.197   7.045 -0.4663 -0.0103  0.9134
   88CHL1    H3 8920   0.805   6.296   7.078 -1.1434  1.1384 -1.5683
   88CHL1    O3 8921   0.786   6.181   6.907 -0.4716  0.5944 -0.3882
   88CHL1   H3' 8922   0.813   6.090   6.895 -0.2018  0.6901 -0.5149
   88CHL1    C4 8923   0.846   6.088   7.119 -0.3512 -0.7998 -0.2828
   88CHL1   H4A 8924   0.811   5.988   7.084  0.2076 -1.4178  0.8506
   88CHL1   H4B 8925   0.954   6.095   7.095 -0.1506 -1.1959  0.4520
   88CHL1    C5 8926   0.818   6.095   7.268  0.0085 -0.2834  0.0761
   88CHL1    C6 8927   0.917   6.117   7.356 -0.4824 -0.0261  0.3816
   88CHL1    H6 8928   1.020   6.121   7.319  0.0121  2.2239  1.7595
   88CHL1    C7 8929   0.893   6.117   7.505  0.3382  0.0046  0.6840
   88CHL1   H7A 8930   0.960   6.044   7.553 -0.0468 -0.1228  1.0285
   88CHL1   H7B 8931   0.914   6.216   7.551 -0.9774  0.2724  0.7764
   88CHL1    C8 8932   0.751   6.077   7.543 -0.2067  0.1762  0.1089
   88CHL1    H8 8933   0.747   5.966   7.540 -0.3985  0.1996 -0.9705
   88CHL1   C14 8934   0.724   6.121   7.685 -0.3622 -0.3921  0.3630
   88CHL1   H14 8935   0.724   6.231   7.680 -0.1390 -0.4041  0.0969
   88CHL1   C15 8936   0.828   6.092   7.798  0.1676  0.1362  0.0478
   88CHL1  H15A 8937   0.859   5.985   7.801 -0.8724 -0.1541  1.0808
   88CHL1  H15B 8938   0.916   6.159   7.789  0.3156 -0.1964 -1.3547
   88CHL1   C16 8939   0.745   6.104   7.927 -0.2621 -0.0168 -0.2610
   88CHL1  H16A 8940   0.737   6.008   7.982  0.3545  0.0981  0.0335
   88CHL1  H16B 8941   0.770   6.179   8.005 -3.3991  0.5265  0.3367
   88CHL1   C17 8942   0.599   6.136   7.884  0.5706 -0.1053 -0.0208
   88CHL1   H17 8943   0.599   6.246   7.876 -2.6153  0.0251  0.4439
   88CHL1   C13 8944   0.583   6.084   7.742 -0.2179  0.0939 -0.3461
   88CHL1   C18 8945   0.580   5.928   7.750  0.0802 -0.4618  0.6446
   88CHL1  H18A 8946   0.598   5.877   7.654  0.3796 -0.6789  0.8143
   88CHL1  H18B 8947   0.659   5.890   7.818 -0.9204 -0.8404  1.6281
   88CHL1  H18C 8948   0.481   5.896   7.788  0.1493  1.2698  2.4456
   88CHL1   C12 8949   0.473   6.147   7.654  0.0254  1.0765 -0.3198
   88CHL1  H12A 8950   0.372   6.122   7.692  0.3707  2.4892  1.6847
   88CHL1  H12B 8951   0.483   6.258   7.649 -0.4061  1.1138 -0.3181
   88CHL1   C11 8952   0.500   6.100   7.508 -0.0116 -0.2479  0.3027
   88CHL1  H11A 8953   0.472   5.993   7.495 -1.1605 -0.1321  1.5124
   88CHL1  H11B 8954   0.422   6.145   7.444 -0.4394 -1.4916 -0.0739
   88CHL1    C9 8955   0.643   6.137   7.461 -0.4646 -0.1642  0.3490
   88CHL1    H9 8956   0.641   6.248   7.474 -0.0173 -0.1161  0.0203
   88CHL1   C10 8957   0.670   6.105   7.309  0.8335 -0.3346  0.2073
   88CHL1   C19 8958   0.606   5.964   7.280  0.2241  0.0069 -0.2115
   88CHL1  H19A 8959   0.632   5.886   7.355 -2.7795 -0.0928  0.8467
   88CHL1  H19B 8960   0.496   5.957   7.272  0.1515 -0.2934  0.8008
   88CHL1  H19C 8961   0.650   5.930   7.184  1.2385  0.9458 -0.0950
   88CHL1    C1 8962   0.596   6.212   7.226  0.0000 -0.5026 -0.0724
   88CHL1   H1A 8963   0.486   6.213   7.245 -0.0260  1.8565 -0.0612
   88CHL1   H1B 8964   0.630   6.308   7.269  0.0574 -0.3297 -0.5013
   88CHL1    C2 8965   0.623   6.194   7.079 -0.0235 -0.4294 -0.0632
   88CHL1   H2A 8966   0.573   6.279   7.027 -1.7725 -0.7864  0.9640
   88CHL1   H2B 8967   0.579   6.099   7.042  0.5045  0.0785 -2.1500
   88CHL1   C20 8968   0.498   6.105   7.996  0.4586  0.0883 -0.3421
   88CHL1   H20 8969   0.513   5.998   8.019  0.6318  0.3075  0.6291
   88CHL1   C21 8970   0.349   6.124   7.964  0.1500 -0.3577  0.5069
   88CHL1  H21A 8971   0.340   6.221   7.911  1.3074 -0.5843 -0.1427
   88CHL1  H21B 8972   0.284   6.133   8.054 -1.2524  0.0247 -0.5126
   88CHL1  H21C 8973   0.302   6.044   7.903 -1.0083 -0.8470  1.9611
   88CHL1   C22 8974   0.516   6.193   8.128 -0.0887 -0.0361  0.3368
   88CHL1  H22A 8975   0.452   6.141   8.202 -2.4442 -0.3419 -1.7486
   88CHL1  H22B 8976   0.624   6.185   8.153 -0.3864 -2.6015  1.0577
   88CHL1   C23 8977   0.469   6.341   8.119 -0.5684  0.4950 -0.5896
   88CHL1  H23A 8978   0.545   6.400   8.063 -0.9304 -0.4604 -2.1272
   88CHL1  H23B 8979   0.382   6.372   8.057  0.6326  2.9477 -1.1848
   88CHL1   C24 8980   0.466   6.403   8.260  0.4420 -0.1079 -0.6572
   88CHL1  H24A 8981   0.371   6.368   8.305 -0.4392  0.3266 -2.1168
   88CHL1  H24B 8982   0.556   6.362   8.312 -0.0594 -0.2260  0.1297
   88CHL1   C25 8983   0.481   6.554   8.262  0.0907 -0.2889  0.9679
   88CHL1   H25 8984   0.564   6.568   8.190 -0.4102  0.9601  0.6015
   88CHL1   C26 8985   0.359   6.625   8.199  0.1122 -0.4164 -0.6811
   88CHL1  H26A 8986   0.339   6.588   8.096  1.1635  0.5786 -1.2733
   88CHL1  H26B 8987   0.266   6.603   8.254  0.3915  0.3849  0.1312
   88CHL1  H26C 8988   0.371   6.735   8.204 -1.0904 -0.3280  0.5956
   88CHL1   C27 8989   0.515   6.599   8.401 -0.0910  0.1977 -0.2380
   88CHL1  H27A 8990   0.435   6.568   8.471  1.4265  0.3060  1.6372
   88CHL1  H27B 8991   0.616   6.555   8.418  0.0111 -0.9568 -3.2566
   88CHL1  H27C 8992   0.527   6.709   8.409 -1.6364  0.4714 -1.1556
   89CHL1    C3 8993   5.208   6.395   7.059  0.0165 -0.2428 -0.1395
   89CHL1    H3 8994   5.116   6.423   7.115  1.9370 -0.0252  3.1317
   89CHL1    O3 8995   5.203   6.451   6.930 -0.4978  0.5829  0.2504
   89CHL1   H3' 8996   5.249   6.394   6.867  0.3389  1.7414 -0.2161
   89CHL1    C4 8997   5.324   6.460   7.125 -0.2633  0.1824  0.3257
   89CHL1   H4A 8998   5.421   6.434   7.076  0.0928 -0.2108  1.2060
   89CHL1   H4B 8999   5.307   6.570   7.128 -0.3862  0.1839 -0.3413
   89CHL1    C5 9000   5.321   6.401   7.269 -0.4694  0.6353  0.2781
   89CHL1    C6 9001   5.309   6.486   7.377  0.5665 -0.0519  0.3489
   89CHL1    H6 9002   5.297   6.593   7.356 -0.6482 -0.5122 -1.4576
   89CHL1    C7 9003   5.297   6.442   7.520  0.5291 -0.3485 -0.3539
   89CHL1   H7A 9004   5.346   6.511   7.593 -1.2038  1.1335 -0.5161
   89CHL1   H7B 9005   5.189   6.444   7.545  0.3662  0.0171 -1.0676
   89CHL1    C8 9006   5.349   6.298   7.537  0.0999 -0.4736 -0.0434
   89CHL1    H8 9007   5.458   6.296   7.515 -0.4088 -0.4756 -2.9307
   89CHL1   C14 9008   5.319   6.250   7.672 -0.5038  0.3979  0.4967
   89CHL1   H14 9009   5.208   6.247   7.676 -0.5421 -1.5410 -0.8391
   89CHL1   C15 9010   5.371   6.331   7.785 -0.1737 -0.1855  0.5423
   89CHL1  H15A 9011   5.477   6.360   7.768 -0.4938 -0.1358 -1.6180
   89CHL1  H15B 9012   5.310   6.421   7.808 -1.8201 -0.6860 -1.5981
   89CHL1   C16 9013   5.355   6.237   7.906  0.4788  0.8548  0.8777
   89CHL1  H16A 9014   5.443   6.241   7.974  0.9564  0.8424  0.2757
   89CHL1  H16B 9015   5.264   6.271   7.959 -2.1323 -0.4296 -2.4362
   89CHL1   C17 9016   5.328   6.097   7.847  0.2357  0.6784 -0.0845
   89CHL1   H17 9017   5.219   6.073   7.849  0.3468 -0.2343 -2.1327
   89CHL1   C13 9018   5.361   6.107   7.697 -0.1770  1.0280  0.5032
   89CHL1   C18 9019   5.512   6.089   7.679 -0.5735 -0.0023 -0.0592
   89CHL1  H18A 9020   5.569   6.133   7.764  0.7376 -0.9210 -0.4241
   89CHL1  H18B 9021   5.530   5.980   7.693 -0.1286  0.0941  0.1247
   89CHL1  H18C 9022   5.555   6.116   7.580 -1.4761 -2.8271 -1.3274
   89CHL1   C12 9023   5.285   6.017   7.599  0.2424 -0.1881 -0.6074
   89CHL1  H12A 9024   5.332   5.916   7.601  0.2664 -0.1653  0.4793
   89CHL1  H12B 9025   5.179   6.020   7.633  1.5360 -0.5289  4.1082
   89CHL1   C11 9026   5.303   6.059   7.449  0.4098 -0.0179 -0.4448
   89CHL1  H11A 9027   5.404   6.024   7.420 -0.2182 -1.3131 -1.2054
   89CHL1  H11B 9028   5.231   6.003   7.385 -0.5686 -0.0898  0.6867
   89CHL1    C9 9029   5.291   6.206   7.429 -0.0742 -0.0690 -0.0255
   89CHL1    H9 9030   5.181   6.216   7.434 -0.1397 -0.8238  0.1712
   89CHL1   C10 9031   5.316   6.247   7.285 -0.2371  0.0132 -0.0075
   89CHL1   C19 9032   5.458   6.198   7.242 -0.0229 -0.3690 -0.7430
   89CHL1  H19A 9033   5.535   6.229   7.317 -1.2677 -1.4055  1.0317
   89CHL1  H19B 9034   5.463   6.088   7.226  0.8117 -0.5013  0.2665
   89CHL1  H19C 9035   5.493   6.248   7.149  0.4659 -1.5073 -1.1904
   89CHL1    C1 9036   5.205   6.188   7.190  0.1327 -0.0224  0.4955
   89CHL1   H1A 9037   5.227   6.079   7.181  1.0637  0.1880  0.0677
   89CHL1   H1B 9038   5.103   6.200   7.231  0.3953  1.7106  0.7325
   89CHL1    C2 9039   5.217   6.245   7.054  0.4363  0.0792  0.6181
   89CHL1   H2A 9040   5.130   6.225   6.987  1.3543  0.7304 -0.8230
   89CHL1   H2B 9041   5.311   6.209   7.008  0.9180  3.1106 -1.1046
   89CHL1   C20 9042   5.395   5.980   7.934 -0.6896 -0.1650 -0.1685
   89CHL1   H20 9043   5.504   5.967   7.917 -0.7405 -2.0762  0.6606
   89CHL1   C21 9044   5.330   5.845   7.898 -0.4388 -0.0987  0.2604
   89CHL1  H21A 9045   5.327   5.835   7.787  2.8190  1.4070 -0.0913
   89CHL1  H21B 9046   5.228   5.840   7.942  0.1930 -0.0666  1.7761
   89CHL1  H21C 9047   5.390   5.768   7.952 -2.5364 -0.4651  2.1867
   89CHL1   C22 9048   5.385   6.000   8.085  0.7248  0.0029 -0.0129
   89CHL1  H22A 9049   5.447   6.089   8.111  0.7170 -0.5177  1.8801
   89CHL1  H22B 9050   5.281   6.008   8.123  0.3807 -0.8113 -0.7549
   89CHL1   C23 9051   5.463   5.899   8.174 -0.2076  0.1376  0.1972
   89CHL1  H23A 9052   5.412   5.800   8.165 -1.7716  0.5291  3.4533
   89CHL1  H23B 9053   5.567   5.891   8.137 -0.2759  0.6866 -0.1345
   89CHL1   C24 9054   5.477   5.938   8.324 -0.2196 -0.4830 -0.2065
   89CHL1  H24A 9055   5.551   6.021   8.335 -1.0592  0.4206 -1.1654
   89CHL1  H24B 9056   5.374   5.958   8.359 -0.2232 -0.9107  0.0291
   89CHL1   C25 9057   5.528   5.826   8.419 -0.2165  0.0774 -0.5292
   89CHL1   H25 9058   5.639   5.834   8.417  0.0330 -1.0133  2.9598
   89CHL1   C26 9059   5.507   5.874   8.561  0.2323 -0.2335 -0.0383
   89CHL1  H26A 9060   5.520   5.985   8.562  2.4179 -0.4407  1.0899
   89CHL1  H26B 9061   5.403   5.861   8.596 -0.2295  0.5863 -1.0398
   89CHL1  H26C 9062   5.576   5.839   8.640 -0.4513  2.0122  1.6768
   89CHL1   C27 9063   5.477   5.678   8.394 -0.3067  0.6097 -0.1608
   89CHL1  H27A 9064   5.503   5.603   8.472  0.3397 -2.3443 -2.9910
   89CHL1  H27B 9065   5.368   5.680   8.375 -0.2507 -0.7398 -0.7421
   89CHL1  H27C 9066   5.522   5.635   8.301  0.3512 -0.8500  0.7973
   90CHL1    C3 9067   3.028   1.083   6.813 -0.2377 -0.2253 -0.0189
   90CHL1    H3 9068   2.973   0.986   6.816  0.4899 -0.9562 -4.2024
   90CHL1    O3 9069   3.041   1.124   6.683  0.0873  0.6122 -0.2623
   90CHL1   H3' 9070   3.073   1.049   6.631 -2.4762 -1.7525  1.2665
   90CHL1    C4 9071   2.948   1.191   6.895  0.2970 -0.3336  0.2331
   90CHL1   H4A 9072   2.986   1.294   6.874 -2.9482  0.7458 -1.0651
   90CHL1   H4B 9073   2.845   1.183   6.853  1.0961 -3.1297 -1.4295
   90CHL1    C5 9074   2.945   1.173   7.043 -0.0283  0.0690  0.1547
   90CHL1    C6 9075   2.829   1.163   7.112  0.1411 -0.3345 -0.7002
   90CHL1    H6 9076   2.734   1.189   7.064  0.3062  2.3421  0.2272
   90CHL1    C7 9077   2.822   1.174   7.263  0.9072  0.3955  0.3435
   90CHL1   H7A 9078   2.744   1.240   7.308 -0.2783 -0.8704  0.1930
   90CHL1   H7B 9079   2.782   1.077   7.298  0.0798  0.5198 -0.2198
   90CHL1    C8 9080   2.965   1.192   7.329 -0.2904  0.2536 -0.2377
   90CHL1    H8 9081   3.000   1.297   7.339 -0.5696  0.1788  2.4623
   90CHL1   C14 9082   2.946   1.140   7.471  0.3602 -0.0060 -0.0498
   90CHL1   H14 9083   2.911   1.035   7.461  3.1259 -1.3015  2.3840
   90CHL1   C15 9084   2.853   1.214   7.565 -0.1982 -0.7303  0.1556
   90CHL1  H15A 9085   2.856   1.325   7.563  1.4975 -0.7656 -0.7257
   90CHL1  H15B 9086   2.745   1.203   7.544 -0.5880 -1.1708  2.1414
   90CHL1   C16 9087   2.883   1.154   7.706  0.7419  0.0855  0.2285
   90CHL1  H16A 9088   2.900   1.245   7.768  0.6500 -0.6234  1.3120
   90CHL1  H16B 9089   2.796   1.095   7.739  0.0600  0.1259 -1.3989
   90CHL1   C17 9090   3.018   1.068   7.685 -0.2663 -0.2789 -0.0032
   90CHL1   H17 9091   2.975   0.967   7.664  0.0150 -0.6795  1.2484
   90CHL1   C13 9092   3.072   1.119   7.550  0.0671  0.0139 -0.6958
   90CHL1   C18 9093   3.144   1.254   7.579 -0.0481 -0.1743  0.2628
   90CHL1  H18A 9094   3.099   1.325   7.652  0.1913  1.6100 -1.2502
   90CHL1  H18B 9095   3.245   1.214   7.604 -0.0680 -1.0959 -1.0499
   90CHL1  H18C 9096   3.145   1.311   7.484  1.8479 -1.0709 -0.3066
   90CHL1   C12 9097   3.171   1.027   7.472  0.1028 -0.2147  0.2607
   90CHL1  H12A 9098   3.267   1.024   7.527  0.9976 -0.8847 -1.2869
   90CHL1  H12B 9099   3.133   0.923   7.471  0.7590 -0.4582  0.2477
   90CHL1   C11 9100   3.202   1.074   7.326  0.3785  0.2271 -0.8809
   90CHL1  H11A 9101   3.258   1.170   7.328 -1.2478  1.2214 -0.9965
   90CHL1  H11B 9102   3.267   1.002   7.271 -0.3123 -0.1268 -1.2419
   90CHL1    C9 9103   3.069   1.110   7.247 -0.7750 -0.7010  0.4010
   90CHL1    H9 9104   3.030   1.006   7.247 -0.7845 -0.7095  1.3805
   90CHL1   C10 9105   3.085   1.157   7.101 -0.4946 -0.4197 -0.5051
   90CHL1   C19 9106   3.166   1.295   7.090 -0.4988 -0.1682 -0.6903
   90CHL1  H19A 9107   3.178   1.324   6.984  0.2861 -3.7067 -1.7149
   90CHL1  H19B 9108   3.109   1.366   7.153  1.7638  1.1551 -0.0390
   90CHL1  H19C 9109   3.260   1.271   7.145  0.2591 -1.8430 -2.6067
   90CHL1    C1 9110   3.157   1.048   7.022  0.1829  0.4063  0.2443
   90CHL1   H1A 9111   3.266   1.053   7.042  0.4804 -1.2875 -0.7842
   90CHL1   H1B 9112   3.126   0.950   7.064 -0.9049  1.6852  2.6792
   90CHL1    C2 9113   3.156   1.074   6.876 -0.1800 -0.1458  0.1149
   90CHL1   H2A 9114   3.206   0.986   6.829  1.1359  0.7715 -0.2620
   90CHL1   H2B 9115   3.213   1.169   6.863 -1.4906  0.9524  1.9638
   90CHL1   C20 9116   3.113   1.059   7.808 -0.2985 -0.1279 -0.9646
   90CHL1   H20 9117   3.180   1.148   7.806 -0.8687  0.3593  0.3138
   90CHL1   C21 9118   3.213   0.938   7.793  0.4027  0.6461  0.0209
   90CHL1  H21A 9119   3.159   0.846   7.763  0.0710  0.5974  0.7437
   90CHL1  H21B 9120   3.257   0.916   7.892 -3.2523 -0.4028  1.5673
   90CHL1  H21C 9121   3.290   0.975   7.721 -1.0311  1.8370 -0.9749
   90CHL1   C22 9122   3.042   1.061   7.951  0.2505 -0.6953  0.3583
   90CHL1  H22A 9123   2.982   1.154   7.956  1.1715 -0.1391  1.7242
   90CHL1  H22B 9124   2.982   0.968   7.965 -0.3710 -0.2179  0.9093
   90CHL1   C23 9125   3.141   1.068   8.068 -0.1901 -0.5896 -0.0135
   90CHL1  H23A 9126   3.210   0.982   8.079  2.0452  1.3817  4.6412
   90CHL1  H23B 9127   3.208   1.153   8.043 -0.5744 -0.4185 -0.4672
   90CHL1   C24 9128   3.078   1.097   8.215  0.5770  0.1015  0.4898
   90CHL1  H24A 9129   3.156   1.154   8.269  0.3223  0.3125  0.6371
   90CHL1  H24B 9130   2.987   1.157   8.193  0.0724 -0.8452 -0.0792
   90CHL1   C25 9131   3.044   0.970   8.293  1.0834 -0.5620 -0.0483
   90CHL1   H25 9132   2.991   0.905   8.220 -0.9205 -0.4543  1.2378
   90CHL1   C26 9133   3.169   0.907   8.352 -0.5042  0.7676 -0.8493
   90CHL1  H26A 9134   3.243   0.902   8.270  0.9576  0.3390  0.4375
   90CHL1  H26B 9135   3.209   0.975   8.430  0.4329  0.2075 -0.8273
   90CHL1  H26C 9136   3.158   0.809   8.402  0.5859  0.2672 -1.5622
   90CHL1   C27 9137   2.940   0.999   8.401 -0.6393  0.9462  0.3494
   90CHL1  H27A 9138   2.964   1.088   8.462 -1.2286  1.0092  0.4975
   90CHL1  H27B 9139   2.844   1.022   8.350 -1.9084  0.8079  2.5378
   90CHL1  H27C 9140   2.920   0.915   8.471  1.5291  1.8428  2.1637
   91CHL1    C3 9141   6.663   4.045   7.264 -0.3281 -0.0404 -0.5139
   91CHL1    H3 9142   6.637   3.960   7.330  4.1066 -1.5205 -0.3072
   91CHL1    O3 9143   6.617   4.019   7.133 -0.0825 -0.7027  0.4055
   91CHL1   H3' 9144   6.686   4.044   7.071 -1.2100 -1.0695 -1.0622
   91CHL1    C4 9145   6.603   4.174   7.310  0.6514  0.4099  0.2760
   91CHL1   H4A 9146   6.628   4.263   7.247  0.4498  0.4819  0.2974
   91CHL1   H4B 9147   6.493   4.160   7.315  0.7781 -0.7995 -0.0637
   91CHL1    C5 9148   6.652   4.196   7.457 -0.2313 -0.2340  0.5959
   91CHL1    C6 9149   6.562   4.211   7.554  0.3300  0.8992 -0.8824
   91CHL1    H6 9150   6.458   4.182   7.537  1.0196 -2.2001 -0.3174
   91CHL1    C7 9151   6.603   4.273   7.692 -0.3854  0.7892  1.1323
   91CHL1   H7A 9152   6.524   4.344   7.725 -1.8403 -0.2568  0.0763
   91CHL1   H7B 9153   6.602   4.187   7.762 -1.2795 -0.3664 -0.2284
   91CHL1    C8 9154   6.732   4.341   7.688 -0.1390 -0.4128  0.0552
   91CHL1    H8 9155   6.716   4.433   7.629  1.1340  1.4234  2.4056
   91CHL1   C14 9156   6.783   4.379   7.828 -0.3257 -0.1037 -0.8134
   91CHL1   H14 9157   6.790   4.281   7.878 -0.4944 -0.9475 -2.3794
   91CHL1   C15 9158   6.687   4.451   7.930 -0.1697  0.0727 -0.8344
   91CHL1  H15A 9159   6.643   4.536   7.873 -2.3850 -0.3511  0.1456
   91CHL1  H15B 9160   6.598   4.389   7.953 -0.0281  0.0117 -0.4497
   91CHL1   C16 9161   6.776   4.496   8.045  0.5290 -0.1253  0.2877
   91CHL1  H16A 9162   6.760   4.606   8.051  2.0238  0.1137  0.4110
   91CHL1  H16B 9163   6.758   4.445   8.142 -1.7945  1.9562  1.0623
   91CHL1   C17 9164   6.921   4.468   7.996 -0.7422 -0.2214 -0.4506
   91CHL1   H17 9165   6.952   4.369   8.035 -1.1026  0.2588  1.1226
   91CHL1   C13 9166   6.920   4.452   7.840 -0.2755 -0.2674  0.0761
   91CHL1   C18 9167   6.919   4.593   7.771  0.3431  0.2576 -0.6627
   91CHL1  H18A 9168   7.022   4.631   7.786  0.3120 -0.1563  0.7050
   91CHL1  H18B 9169   6.903   4.588   7.661 -1.7497  0.2955 -0.4111
   91CHL1  H18C 9170   6.854   4.664   7.827  0.5764  0.2776 -0.4163
   91CHL1   C12 9171   7.023   4.351   7.777  0.8665 -0.1741 -0.3573
   91CHL1  H12A 9172   7.125   4.394   7.788  0.6288  0.0435  1.3347
   91CHL1  H12B 9173   7.016   4.256   7.834  0.7106 -0.5098 -0.9258
   91CHL1   C11 9174   6.978   4.322   7.630 -1.1530 -0.3345 -0.4351
   91CHL1  H11A 9175   6.985   4.417   7.574  0.1481 -0.3633 -0.3539
   91CHL1  H11B 9176   7.053   4.249   7.592  0.5502 -0.4085  2.6844
   91CHL1    C9 9177   6.836   4.257   7.613 -0.1992  0.0293 -0.2424
   91CHL1    H9 9178   6.833   4.166   7.677 -0.7143  0.6092  0.5822
   91CHL1   C10 9179   6.800   4.223   7.463 -0.0489  0.3846 -0.6648
   91CHL1   C19 9180   6.838   4.348   7.383  0.2652  0.0647 -0.1471
   91CHL1  H19A 9181   6.809   4.345   7.276 -0.6505 -1.0303  0.1079
   91CHL1  H19B 9182   6.794   4.441   7.425 -1.7877 -0.1212 -1.7313
   91CHL1  H19C 9183   6.947   4.366   7.381  0.4044 -0.4452 -3.5178
   91CHL1    C1 9184   6.867   4.095   7.410 -0.5421 -0.5442  0.6489
   91CHL1   H1A 9185   6.977   4.111   7.398 -0.5033 -1.1907  0.1079
   91CHL1   H1B 9186   6.847   4.017   7.486 -1.2637  0.0238  1.0518
   91CHL1    C2 9187   6.816   4.067   7.269  0.0921  0.5183 -0.1674
   91CHL1   H2A 9188   6.856   3.966   7.244 -0.3090  0.1085  0.8374
   91CHL1   H2B 9189   6.858   4.139   7.196  2.1271  0.0999  0.5185
   91CHL1   C20 9190   7.026   4.564   8.055 -0.3306  0.2871 -0.5041
   91CHL1   H20 9191   7.015   4.663   8.005  0.7447  0.7191  0.0749
   91CHL1   C21 9192   7.170   4.514   8.030 -0.8584  0.4839  0.5646
   91CHL1  H21A 9193   7.200   4.530   7.924  0.3346  0.2990  0.8600
   91CHL1  H21B 9194   7.192   4.409   8.059  1.7476  0.7365 -0.2384
   91CHL1  H21C 9195   7.243   4.570   8.093 -0.1777 -0.0861  0.3025
   91CHL1   C22 9196   7.004   4.585   8.209 -0.4917 -0.3260 -0.2820
   91CHL1  H22A 9197   7.059   4.679   8.228  0.2029 -0.5764 -1.0441
   91CHL1  H22B 9198   6.899   4.623   8.213  0.1236  1.4646 -0.4059
   91CHL1   C23 9199   7.039   4.467   8.309  0.2091  0.4515 -0.1189
   91CHL1  H23A 9200   6.972   4.381   8.291  0.0911  0.6232 -0.5204
   91CHL1  H23B 9201   7.144   4.437   8.287  0.0548 -2.9454  3.0241
   91CHL1   C24 9202   7.027   4.522   8.456 -0.2922 -0.6928 -0.0940
   91CHL1  H24A 9203   7.111   4.595   8.461 -2.5137  1.9797  0.2995
   91CHL1  H24B 9204   6.929   4.572   8.468 -0.2974 -0.3827 -1.2813
   91CHL1   C25 9205   7.020   4.417   8.563 -1.0633 -0.0219 -1.2126
   91CHL1   H25 9206   7.109   4.353   8.547  0.0843  1.6288 -1.7402
   91CHL1   C26 9207   7.036   4.484   8.700  0.1317  0.4964  0.8450
   91CHL1  H26A 9208   7.039   4.412   8.785  0.9615 -1.5795 -0.8559
   91CHL1  H26B 9209   7.121   4.555   8.700  0.7288 -0.0877  3.6616
   91CHL1  H26C 9210   6.950   4.554   8.700  0.1475  0.5205  0.0389
   91CHL1   C27 9211   6.899   4.324   8.556 -0.6337  0.1600 -0.6986
   91CHL1  H27A 9212   6.813   4.393   8.562  0.5888  1.8378 -1.5629
   91CHL1  H27B 9213   6.907   4.266   8.462  2.2702 -0.7981  0.0326
   91CHL1  H27C 9214   6.903   4.251   8.639 -0.7666 -0.4501 -1.2223
   92CHL1    C3 9215   2.297   6.066   6.737  0.5960  0.3902  0.6367
   92CHL1    H3 9216   2.328   5.959   6.740  0.1289  0.2639  1.0615
   92CHL1    O3 9217   2.249   6.099   6.612 -0.1968 -0.5198  0.1211
   92CHL1   H3' 9218   2.215   6.187   6.631 -1.6788 -1.6381  3.4896
   92CHL1    C4 9219   2.184   6.108   6.834 -0.0770 -0.0979  0.5959
   92CHL1   H4A 9220   2.149   6.211   6.807  1.8570  0.1074 -1.3806
   92CHL1   H4B 9221   2.102   6.035   6.815 -0.1150  0.5587 -2.2189
   92CHL1    C5 9222   2.224   6.107   6.978  0.0238 -0.8088  1.1686
   92CHL1    C6 9223   2.158   6.030   7.069  1.2095 -0.2372 -0.2878
   92CHL1    H6 9224   2.064   5.978   7.047  1.9569 -1.2691 -1.1611
   92CHL1    C7 9225   2.190   6.030   7.212 -0.4842 -1.0274  0.2647
   92CHL1   H7A 9226   2.100   6.040   7.277  1.5735  2.1709  2.9638
   92CHL1   H7B 9227   2.241   5.936   7.241  0.0050 -0.5138  1.1248
   92CHL1    C8 9228   2.291   6.145   7.255 -0.4316  0.1280 -0.2724
   92CHL1    H8 9229   2.231   6.239   7.260  1.2256  1.2470 -0.5981
   92CHL1   C14 9230   2.347   6.104   7.393 -0.1173  0.5022  0.5814
   92CHL1   H14 9231   2.417   6.020   7.371  1.5203  1.4977  1.7958
   92CHL1   C15 9232   2.252   6.056   7.503 -0.3978 -0.4370 -0.3794
   92CHL1  H15A 9233   2.170   6.132   7.504 -0.1347 -0.1029 -2.0105
   92CHL1  H15B 9234   2.211   5.955   7.482  0.2885 -1.6281  3.2112
   92CHL1   C16 9235   2.331   6.074   7.632 -0.5788  0.6199  0.9508
   92CHL1  H16A 9236   2.278   6.142   7.702 -1.9944  2.2822 -1.5966
   92CHL1  H16B 9237   2.343   5.973   7.679  0.0658  1.0058  1.6396
   92CHL1   C17 9238   2.463   6.141   7.594  0.3441  0.4548 -0.7727
   92CHL1   H17 9239   2.540   6.063   7.576  0.0682 -0.0602  0.2084
   92CHL1   C13 9240   2.439   6.208   7.453  0.2230 -0.2873 -0.0287
   92CHL1   C18 9241   2.360   6.335   7.471  0.1005  0.6704  0.1116
   92CHL1  H18A 9242   2.327   6.379   7.375 -0.6269 -0.6907 -0.2784
   92CHL1  H18B 9243   2.273   6.321   7.538  1.3558 -2.5451  1.2831
   92CHL1  H18C 9244   2.427   6.403   7.528  0.8303 -1.3214  1.7806
   92CHL1   C12 9245   2.553   6.228   7.351  0.6430 -0.8096 -0.2466
   92CHL1  H12A 9246   2.619   6.312   7.383 -0.1445 -0.3741  0.2664
   92CHL1  H12B 9247   2.605   6.131   7.367 -1.8607 -1.7213  4.1748
   92CHL1   C11 9248   2.516   6.254   7.203  0.3511 -0.8703 -0.2542
   92CHL1  H11A 9249   2.494   6.363   7.199  0.4123 -0.7514  1.6692
   92CHL1  H11B 9250   2.609   6.243   7.143  0.2053  3.2524 -1.5317
   92CHL1    C9 9251   2.406   6.155   7.153 -0.0760  0.1713  0.0988
   92CHL1    H9 9252   2.458   6.058   7.145 -1.7015 -0.6333 -1.2076
   92CHL1   C10 9253   2.357   6.184   7.011  0.0370 -0.2356 -0.1161
   92CHL1   C19 9254   2.320   6.338   6.998  0.2353  0.2437 -0.2512
   92CHL1  H19A 9255   2.248   6.380   7.072  0.3241  1.6532 -0.9251
   92CHL1  H19B 9256   2.414   6.397   6.997  0.4431 -0.0920 -1.1435
   92CHL1  H19C 9257   2.270   6.351   6.900 -0.9219 -1.6799  0.0224
   92CHL1    C1 9258   2.465   6.138   6.908  0.1403  0.3612 -0.6365
   92CHL1   H1A 9259   2.558   6.195   6.928  0.7180 -1.0655  1.0064
   92CHL1   H1B 9260   2.493   6.032   6.928 -0.4312 -0.1822 -2.5269
   92CHL1    C2 9261   2.415   6.155   6.769  0.6253 -0.0620  0.3190
   92CHL1   H2A 9262   2.497   6.129   6.699  1.3815  0.5338  0.9568
   92CHL1   H2B 9263   2.386   6.261   6.749  2.0961  0.4341  0.7008
   92CHL1   C20 9264   2.521   6.223   7.704  0.7358 -0.3443 -0.5927
   92CHL1   H20 9265   2.451   6.304   7.735  0.2651 -0.7636 -0.5470
   92CHL1   C21 9266   2.656   6.281   7.670 -0.4605 -1.0736 -0.0528
   92CHL1  H21A 9267   2.712   6.190   7.640 -2.1920 -1.6738 -1.5976
   92CHL1  H21B 9268   2.708   6.341   7.749 -0.0190 -0.9556 -0.4277
   92CHL1  H21C 9269   2.655   6.354   7.586 -1.2094 -1.7816 -0.6663
   92CHL1   C22 9270   2.543   6.140   7.830  0.3462 -0.2107  0.3188
   92CHL1  H22A 9271   2.453   6.081   7.855 -1.0237  0.6787 -2.2296
   92CHL1  H22B 9272   2.626   6.069   7.807  2.7148  2.5549 -0.3104
   92CHL1   C23 9273   2.581   6.222   7.954 -0.4044  0.4885  1.1998
   92CHL1  H23A 9274   2.670   6.281   7.924 -1.7792  1.7603 -0.5435
   92CHL1  H23B 9275   2.502   6.297   7.978 -1.0238  0.5323 -0.7678
   92CHL1   C24 9276   2.616   6.125   8.067  0.4758 -0.2173 -0.4788
   92CHL1  H24A 9277   2.530   6.057   8.087 -0.4860  1.3322  0.8990
   92CHL1  H24B 9278   2.703   6.060   8.045  0.9751 -0.4311  1.8975
   92CHL1   C25 9279   2.656   6.191   8.203 -0.0762  1.1015 -0.3921
   92CHL1   H25 9280   2.730   6.271   8.183 -0.8695  2.4450  1.7513
   92CHL1   C26 9281   2.542   6.263   8.274 -0.2761  0.2840  0.0274
   92CHL1  H26A 9282   2.485   6.310   8.191 -1.4154 -2.3122 -0.7683
   92CHL1  H26B 9283   2.484   6.192   8.337 -2.5694  1.9632 -0.0650
   92CHL1  H26C 9284   2.580   6.343   8.342 -0.6939 -0.5977  1.3311
   92CHL1   C27 9285   2.742   6.097   8.293  0.5715  0.2839 -0.3452
   92CHL1  H27A 9286   2.836   6.058   8.249  0.7593  0.7591 -0.3737
   92CHL1  H27B 9287   2.775   6.151   8.384  1.0082 -0.1944 -0.2167
   92CHL1  H27C 9288   2.674   6.017   8.329  3.0476 -2.0787 -0.5994
   93CHL1    C3 9289   5.605   3.547   7.050  0.2042  0.0448 -0.5188
   93CHL1    H3 9290   5.508   3.597   7.071  0.7775  1.2378 -0.5860
   93CHL1    O3 9291   5.612   3.514   6.915 -0.7000 -0.2710  0.4289
   93CHL1   H3' 9292   5.700   3.544   6.889 -0.2934  1.5103  3.3794
   93CHL1    C4 9293   5.717   3.646   7.086 -0.5497 -0.0078 -0.2362
   93CHL1   H4A 9294   5.811   3.603   7.047 -0.3746  1.0305 -0.9935
   93CHL1   H4B 9295   5.690   3.738   7.030 -1.6074  0.7173  1.3620
   93CHL1    C5 9296   5.708   3.661   7.240  0.0565 -1.0400 -0.4315
   93CHL1    C6 9297   5.680   3.788   7.293 -0.2059  0.6463  0.1912
   93CHL1    H6 9298   5.668   3.877   7.229  0.4174  1.2108  0.8429
   93CHL1    C7 9299   5.697   3.822   7.432 -0.7422 -0.4147 -0.0360
   93CHL1   H7A 9300   5.773   3.901   7.451 -2.1506  1.5807 -2.2278
   93CHL1   H7B 9301   5.605   3.852   7.486 -0.2467  3.3987 -1.0265
   93CHL1    C8 9302   5.766   3.708   7.512  0.2778 -0.5476 -0.0969
   93CHL1    H8 9303   5.874   3.715   7.486  0.3319 -0.4395  0.1527
   93CHL1   C14 9304   5.754   3.738   7.665 -0.3250 -0.2276 -0.2682
   93CHL1   H14 9305   5.648   3.723   7.692 -1.3035  0.2177 -3.4841
   93CHL1   C15 9306   5.796   3.880   7.711 -0.2122 -0.0962  0.4984
   93CHL1  H15A 9307   5.898   3.901   7.672 -0.8215  2.4431  0.1093
   93CHL1  H15B 9308   5.731   3.961   7.670  0.9455 -0.1621 -1.6117
   93CHL1   C16 9309   5.801   3.853   7.865  0.3978 -0.6309  0.1265
   93CHL1  H16A 9310   5.901   3.893   7.891  1.2589 -1.0055 -2.3100
   93CHL1  H16B 9311   5.720   3.910   7.916 -0.0671 -0.9167 -0.2879
   93CHL1   C17 9312   5.782   3.706   7.893  0.5299 -0.6216  0.1359
   93CHL1   H17 9313   5.673   3.686   7.893  0.8046 -2.2643 -0.2392
   93CHL1   C13 9314   5.830   3.642   7.755 -0.4693 -0.2847  0.2439
   93CHL1   C18 9315   5.995   3.647   7.737  0.3719  0.0836 -0.7347
   93CHL1  H18A 9316   6.042   3.744   7.766 -1.2661  0.1768  1.9860
   93CHL1  H18B 9317   6.036   3.576   7.812 -2.4247  0.3652  1.2443
   93CHL1  H18C 9318   6.020   3.618   7.633  0.4834  1.0304 -0.9838
   93CHL1   C12 9319   5.772   3.503   7.722 -0.8101  0.0281  0.6789
   93CHL1  H12A 9320   5.814   3.424   7.787 -1.1344 -1.4921 -0.8898
   93CHL1  H12B 9321   5.663   3.503   7.743 -0.8088  0.8492  0.7206
   93CHL1   C11 9322   5.785   3.468   7.573 -0.6197  0.1344  0.0288
   93CHL1  H11A 9323   5.894   3.456   7.552 -0.4010 -0.6564  1.5488
   93CHL1  H11B 9324   5.741   3.368   7.554  0.4851 -0.3665 -0.0059
   93CHL1    C9 9325   5.720   3.569   7.478 -0.8482 -0.1540  0.3181
   93CHL1    H9 9326   5.611   3.578   7.496 -0.3302  4.1474  2.5421
   93CHL1   C10 9327   5.735   3.539   7.328 -0.0228 -0.4268 -0.5116
   93CHL1   C19 9328   5.884   3.493   7.297  0.0486 -0.3918  0.6557
   93CHL1  H19A 9329   5.949   3.570   7.343  1.5580 -1.4360  0.3757
   93CHL1  H19B 9330   5.920   3.401   7.349 -0.8162 -2.0968 -1.5696
   93CHL1  H19C 9331   5.907   3.493   7.188 -0.9287 -1.0089  0.4398
   93CHL1    C1 9332   5.626   3.445   7.278 -0.5501  0.4266 -0.0451
   93CHL1   H1A 9333   5.627   3.344   7.324 -0.2961  0.3913 -0.1231
   93CHL1   H1B 9334   5.528   3.488   7.307 -1.4829 -0.9909 -0.9653
   93CHL1    C2 9335   5.624   3.425   7.130 -0.9707  0.5952  0.1646
   93CHL1   H2A 9336   5.555   3.345   7.095  1.0297 -0.5246 -1.4332
   93CHL1   H2B 9337   5.721   3.378   7.102 -1.1506  0.0220  0.4786
   93CHL1   C20 9338   5.849   3.677   8.030  0.2498  0.5192 -0.3093
   93CHL1   H20 9339   5.956   3.706   8.021  0.6647 -0.6301  0.7292
   93CHL1   C21 9340   5.835   3.528   8.067 -0.3862 -0.1446 -0.6586
   93CHL1  H21A 9341   5.905   3.482   7.995 -2.2158 -0.2075 -2.4824
   93CHL1  H21B 9342   5.729   3.493   8.062 -0.7756  0.7430  0.6907
   93CHL1  H21C 9343   5.877   3.512   8.169  0.2033 -1.1727 -1.0585
   93CHL1   C22 9344   5.793   3.754   8.156 -0.4960 -0.5360  0.0957
   93CHL1  H22A 9345   5.753   3.852   8.122  1.9851  1.1386  1.6265
   93CHL1  H22B 9346   5.704   3.708   8.203 -1.4149  2.0473  1.1165
   93CHL1   C23 9347   5.900   3.787   8.260  0.1099 -0.1555 -0.1432
   93CHL1  H23A 9348   5.959   3.702   8.298 -2.3671 -1.2217  1.6105
   93CHL1  H23B 9349   5.976   3.848   8.207  0.1422  2.0981  2.3073
   93CHL1   C24 9350   5.847   3.873   8.376 -1.2326  0.0687 -0.1399
   93CHL1  H24A 9351   5.794   3.963   8.338 -1.0825  1.0487  1.8589
   93CHL1  H24B 9352   5.771   3.819   8.437  0.3225  0.3426  2.1745
   93CHL1   C25 9353   5.962   3.908   8.467  0.1076  0.4270 -0.3390
   93CHL1   H25 9354   6.054   3.894   8.406 -0.4497 -2.2855 -0.6941
   93CHL1   C26 9355   5.936   4.042   8.524 -0.4694  0.5508 -0.0666
   93CHL1  H26A 9356   6.024   4.084   8.577 -2.8310  1.8293  3.1728
   93CHL1  H26B 9357   5.923   4.111   8.437  2.7737  2.6318  0.9139
   93CHL1  H26C 9358   5.847   4.035   8.589  0.8254  0.4636  1.7539
   93CHL1   C27 9359   5.973   3.813   8.584  0.6969 -0.4559 -0.8792
   93CHL1  H27A 9360   5.968   3.708   8.549 -2.3006 -1.0041  0.8502
   93CHL1  H27B 9361   6.073   3.835   8.627  0.5419 -0.2647 -0.6160
   93CHL1  H27C 9362   5.893   3.828   8.659 -1.9604 -2.4523 -3.0900
   94CHL1    C3 9363   1.162   1.059   6.628  0.3403 -0.4322  0.0786
   94CHL1    H3 9364   1.234   0.975   6.626  1.1444  0.2102  1.1654
   94CHL1    O3 9365   1.162   1.108   6.500  0.3540 -0.7709  0.2408
   94CHL1   H3' 9366   1.101   1.181   6.491  1.8193  0.5907  0.8223
   94CHL1    C4 9367   1.022   0.998   6.660 -0.0694  0.2470 -0.6482
   94CHL1   H4A 9368   0.943   1.076   6.658  1.4225  1.8513 -0.1555
   94CHL1   H4B 9369   0.999   0.918   6.587 -1.3941 -0.5309  0.5793
   94CHL1    C5 9370   1.037   0.935   6.797  0.6384 -0.5563 -0.6743
   94CHL1    C6 9371   1.031   0.799   6.818  0.1263  0.3516 -0.2618
   94CHL1    H6 9372   1.013   0.732   6.733 -1.6804  0.1757  0.2029
   94CHL1    C7 9373   1.023   0.724   6.952 -0.0100 -0.8112  0.1129
   94CHL1   H7A 9374   0.938   0.655   6.965 -2.1070  1.4259 -0.9267
   94CHL1   H7B 9375   1.122   0.675   6.963  1.2552  1.1325 -1.8693
   94CHL1    C8 9376   0.992   0.833   7.064 -0.4986  0.2742  0.0999
   94CHL1    H8 9377   0.889   0.865   7.037 -0.0506  0.9732 -0.8206
   94CHL1   C14 9378   1.006   0.768   7.203 -0.4364  0.2583 -0.3695
   94CHL1   H14 9379   1.111   0.732   7.201 -0.5496 -0.0955 -0.1028
   94CHL1   C15 9380   0.939   0.629   7.234  0.5671 -0.1979 -0.4396
   94CHL1  H15A 9381   0.829   0.636   7.216  0.6456 -2.3127 -2.1281
   94CHL1  H15B 9382   0.977   0.545   7.172  1.0029 -0.7965  0.6279
   94CHL1   C16 9383   0.967   0.608   7.385 -0.6307 -0.4495 -0.2710
   94CHL1  H16A 9384   0.883   0.559   7.438  0.2504 -3.2607 -1.2847
   94CHL1  H16B 9385   1.058   0.544   7.384 -1.3350 -1.4633 -0.8286
   94CHL1   C17 9386   1.013   0.751   7.437 -0.2059  0.0670  0.7056
   94CHL1   H17 9387   1.123   0.737   7.441 -0.4398 -2.1284  0.9251
   94CHL1   C13 9388   0.985   0.854   7.320 -0.4112  0.4272 -0.3213
   94CHL1   C18 9389   0.839   0.899   7.322 -0.9274 -0.1865 -0.1613
   94CHL1  H18A 9390   0.772   0.810   7.324 -0.0264 -0.8937 -0.3606
   94CHL1  H18B 9391   0.820   0.954   7.417 -0.2860 -0.7253  0.2902
   94CHL1  H18C 9392   0.808   0.971   7.244 -1.0474  3.5600  3.0395
   94CHL1   C12 9393   1.082   0.976   7.311  0.4236 -0.2581 -0.0813
   94CHL1  H12A 9394   1.057   1.054   7.385 -0.1883 -2.0871  1.7538
   94CHL1  H12B 9395   1.186   0.941   7.330  0.2521 -0.8480 -0.1995
   94CHL1   C11 9396   1.075   1.045   7.170  0.2965 -0.1044  0.2699
   94CHL1  H11A 9397   0.977   1.097   7.161  0.3420 -0.0817 -0.1289
   94CHL1  H11B 9398   1.159   1.115   7.151  0.2600 -0.5998 -1.9784
   94CHL1    C9 9399   1.071   0.953   7.044  0.9492  0.3143  0.0510
   94CHL1    H9 9400   1.173   0.909   7.045  0.3030 -1.2674  1.3885
   94CHL1   C10 9401   1.051   1.032   6.912 -0.0635  0.0932  0.6864
   94CHL1   C19 9402   0.930   1.132   6.923 -0.1676  0.4753  0.4985
   94CHL1  H19A 9403   0.906   1.193   6.833 -2.1442  1.0363  1.3314
   94CHL1  H19B 9404   0.847   1.074   6.969  1.0629 -1.4595  0.3942
   94CHL1  H19C 9405   0.963   1.209   6.996  1.4306  0.9824 -0.7120
   94CHL1    C1 9406   1.183   1.107   6.869 -0.1030  0.3601 -0.8586
   94CHL1   H1A 9407   1.198   1.190   6.942  2.0293 -1.1502  0.5759
   94CHL1   H1B 9408   1.274   1.043   6.874  0.0020  0.5283 -0.4925
   94CHL1    C2 9409   1.187   1.170   6.731  0.1842  0.0926  0.4492
   94CHL1   H2A 9410   1.285   1.213   6.704  0.5149  0.1059  1.6295
   94CHL1   H2B 9411   1.115   1.253   6.714 -0.0123 -0.5006 -2.0349
   94CHL1   C20 9412   0.966   0.778   7.581  0.5295  0.4130  0.8010
   94CHL1   H20 9413   0.859   0.805   7.572  0.2915 -0.9849 -1.3813
   94CHL1   C21 9414   1.040   0.897   7.627  0.0102  1.2895 -0.8072
   94CHL1  H21A 9415   1.149   0.882   7.618  0.1883  0.9875  1.3983
   94CHL1  H21B 9416   1.010   0.926   7.729  2.2430  0.0020  0.2824
   94CHL1  H21C 9417   1.005   0.990   7.576 -0.4009  2.0843  0.8619
   94CHL1   C22 9418   0.986   0.658   7.677  0.1113  0.6114 -0.9410
   94CHL1  H22A 9419   0.917   0.580   7.638  0.0674 -0.3934  1.0555
   94CHL1  H22B 9420   1.091   0.624   7.686 -0.3112 -0.0961  2.8603
   94CHL1   C23 9421   0.933   0.678   7.820 -0.1268  1.0145  0.2508
   94CHL1  H23A 9422   0.999   0.757   7.861  0.0615  1.6576 -1.2265
   94CHL1  H23B 9423   0.827   0.711   7.820 -1.0962 -1.7927  0.4150
   94CHL1   C24 9424   0.938   0.545   7.905  0.7964  0.5634 -0.1461
   94CHL1  H24A 9425   0.875   0.473   7.847  1.4470  1.7672 -2.4898
   94CHL1  H24B 9426   1.040   0.503   7.907 -0.4358 -2.7184  1.4609
   94CHL1   C25 9427   0.898   0.550   8.051 -0.9842 -0.3411  1.0920
   94CHL1   H25 9428   0.787   0.544   8.043 -0.8527 -1.0921 -0.5762
   94CHL1   C26 9429   0.940   0.423   8.111  0.2927  0.1525 -0.3581
   94CHL1  H26A 9430   0.889   0.338   8.062  3.2319 -1.2874 -1.1647
   94CHL1  H26B 9431   1.050   0.404   8.106  0.0959 -1.0354 -0.3526
   94CHL1  H26C 9432   0.918   0.415   8.219  0.8868  1.8996 -0.0665
   94CHL1   C27 9433   0.949   0.668   8.120  0.5258 -0.0433 -0.1774
   94CHL1  H27A 9434   0.907   0.762   8.081  0.8511 -0.4826 -1.6289
   94CHL1  H27B 9435   0.927   0.671   8.229  1.7598  5.6241  0.2248
   94CHL1  H27C 9436   1.060   0.664   8.114  0.6475  1.9661  0.1297
   95CHL1    C3 9437   4.127   5.729   6.699 -0.8410 -0.4138 -0.2058
   95CHL1    H3 9438   4.208   5.658   6.673  0.6580  1.3080 -0.4502
   95CHL1    O3 9439   4.104   5.811   6.589  0.3167 -0.2039 -0.1901
   95CHL1   H3' 9440   4.010   5.829   6.587  0.4132  0.2808 -0.4332
   95CHL1    C4 9441   3.987   5.681   6.753 -0.4064  0.2316  0.2888
   95CHL1   H4A 9442   3.918   5.765   6.775 -2.5581 -1.3000 -0.2775
   95CHL1   H4B 9443   3.930   5.618   6.681 -1.9458  2.3102 -0.4233
   95CHL1    C5 9444   4.000   5.609   6.890 -0.1396 -0.2919 -0.1611
   95CHL1    C6 9445   3.959   5.485   6.899 -1.0912  0.2904 -0.0335
   95CHL1    H6 9446   3.921   5.433   6.810 -2.1588 -2.7442  2.0128
   95CHL1    C7 9447   3.959   5.398   7.022  0.2920  0.9257 -0.0247
   95CHL1   H7A 9448   3.863   5.343   7.022  0.0372  1.3714  0.7811
   95CHL1   H7B 9449   4.037   5.319   7.014 -1.7030 -1.3857  1.8488
   95CHL1    C8 9450   3.973   5.487   7.151 -0.1098 -0.2384 -0.1052
   95CHL1    H8 9451   3.877   5.542   7.154 -0.9804 -1.6972 -0.2034
   95CHL1   C14 9452   4.004   5.416   7.280  0.2853 -0.2733  0.2657
   95CHL1   H14 9453   4.100   5.361   7.266 -0.1078 -1.3071  1.4494
   95CHL1   C15 9454   3.904   5.315   7.332  0.1714 -1.1866 -0.0474
   95CHL1  H15A 9455   3.798   5.338   7.308  0.1113 -0.0030  1.2329
   95CHL1  H15B 9456   3.919   5.215   7.286  0.3466 -1.0656 -0.2542
   95CHL1   C16 9457   3.928   5.305   7.481 -0.6956  0.5962  0.9580
   95CHL1  H16A 9458   3.829   5.305   7.530 -1.0591 -1.6114  0.3096
   95CHL1  H16B 9459   3.977   5.209   7.506  0.3259  1.2408  1.5039
   95CHL1   C17 9460   4.036   5.418   7.514  0.1120  0.3636 -0.4515
   95CHL1   H17 9461   4.130   5.364   7.492 -0.1895 -0.8194  1.0154
   95CHL1   C13 9462   4.025   5.512   7.400 -0.8647 -0.7364 -0.8680
   95CHL1   C18 9463   3.900   5.603   7.418 -0.0372 -0.3621  0.1279
   95CHL1  H18A 9464   3.806   5.548   7.437  0.2657 -0.7937  0.3737
   95CHL1  H18B 9465   3.915   5.663   7.511 -0.2633  0.5580 -0.4090
   95CHL1  H18C 9466   3.887   5.675   7.334  0.1588 -0.7287 -0.2213
   95CHL1   C12 9467   4.157   5.588   7.376 -0.2713 -0.0663 -0.4549
   95CHL1  H12A 9468   4.186   5.659   7.456  0.3449  1.8286 -2.2620
   95CHL1  H12B 9469   4.236   5.512   7.362 -0.5506 -0.1330 -1.8581
   95CHL1   C11 9470   4.141   5.671   7.252 -0.1719 -0.3243  0.3543
   95CHL1  H11A 9471   4.076   5.757   7.282  1.3775  0.6376  1.0921
   95CHL1  H11B 9472   4.241   5.714   7.231 -1.1859  1.6048 -0.8638
   95CHL1    C9 9473   4.087   5.589   7.125 -0.4075 -0.3503 -0.2254
   95CHL1    H9 9474   4.174   5.522   7.106  0.1251  0.1167  0.5434
   95CHL1   C10 9475   4.066   5.678   6.999 -0.3445 -0.4547 -1.2100
   95CHL1   C19 9476   3.978   5.800   7.042  0.8611 -0.4730 -0.0804
   95CHL1  H19A 9477   3.892   5.768   7.105  0.9018 -1.9659 -0.7327
   95CHL1  H19B 9478   4.042   5.861   7.110  0.1341  0.0560  0.1401
   95CHL1  H19C 9479   3.938   5.853   6.953  2.6990  0.9014 -0.1343
   95CHL1    C1 9480   4.205   5.720   6.941  0.0269 -0.1479  0.6716
   95CHL1   H1A 9481   4.263   5.769   7.022 -1.5167 -1.9414  2.9981
   95CHL1   H1B 9482   4.269   5.634   6.914 -0.9924 -1.1703  1.4143
   95CHL1    C2 9483   4.197   5.807   6.814 -0.4493 -0.0031  0.3151
   95CHL1   H2A 9484   4.302   5.832   6.786 -0.9331  2.6019  0.5760
   95CHL1   H2B 9485   4.136   5.894   6.846 -0.1762  0.2647  0.1143
   95CHL1   C20 9486   4.017   5.454   7.660  0.0652  0.2883  0.8232
   95CHL1   H20 9487   3.912   5.489   7.671 -0.0352 -0.1502  1.3094
   95CHL1   C21 9488   4.112   5.569   7.701  0.7479  0.2296 -0.2614
   95CHL1  H21A 9489   4.217   5.536   7.693  0.5505 -1.4845  2.7660
   95CHL1  H21B 9490   4.098   5.580   7.811  1.2972 -0.0760 -0.1602
   95CHL1  H21C 9491   4.080   5.667   7.660 -3.3826 -1.0942 -0.6610
   95CHL1   C22 9492   4.021   5.338   7.755 -0.0881 -0.1714 -0.5182
   95CHL1  H22A 9493   3.947   5.258   7.730 -1.3193  0.1494  1.8952
   95CHL1  H22B 9494   4.117   5.281   7.755 -0.6592 -1.2131  1.1848
   95CHL1   C23 9495   4.006   5.377   7.900 -0.6881  0.2888  0.5909
   95CHL1  H23A 9496   4.105   5.422   7.925  0.5283 -1.7373 -0.2806
   95CHL1  H23B 9497   3.924   5.449   7.918 -3.1899 -1.7545 -1.9000
   95CHL1   C24 9498   3.988   5.251   7.987  0.1495 -0.0974 -0.0507
   95CHL1  H24A 9499   3.887   5.208   7.967 -0.4345  1.3368 -0.3384
   95CHL1  H24B 9500   4.065   5.179   7.951 -0.7278 -0.6562 -0.8990
   95CHL1   C25 9501   4.010   5.280   8.136 -0.1570 -0.5765  0.9520
   95CHL1   H25 9502   3.939   5.361   8.165 -1.0553 -1.3609  0.9779
   95CHL1   C26 9503   3.990   5.156   8.215 -0.3288  0.6321  0.2398
   95CHL1  H26A 9504   3.980   5.170   8.324 -2.8437  2.4700 -0.1318
   95CHL1  H26B 9505   3.899   5.103   8.182 -2.4644  3.4541  1.1856
   95CHL1  H26C 9506   4.076   5.087   8.204 -2.1190 -1.2839 -3.7899
   95CHL1   C27 9507   4.149   5.330   8.170  0.0055  0.2199  0.5905
   95CHL1  H27A 9508   4.133   5.438   8.193  1.8988  0.4146  1.1733
   95CHL1  H27B 9509   4.193   5.292   8.264 -1.2563  0.0327  1.1239
   95CHL1  H27C 9510   4.226   5.309   8.092 -0.5133 -0.7847  0.3320
   96CHL1    C3 9511   5.839   4.760   6.760 -1.2844  0.2530 -0.7833
   96CHL1    H3 9512   5.854   4.650   6.767 -1.4364  0.1951 -1.3697
   96CHL1    O3 9513   5.845   4.794   6.625  0.6060  0.3560  0.2313
   96CHL1   H3' 9514   5.917   4.743   6.587 -1.3256 -1.5305 -1.1482
   96CHL1    C4 9515   5.702   4.796   6.824  0.7363  0.6465  0.1828
   96CHL1   H4A 9516   5.671   4.898   6.792  2.5480  0.9555 -0.7216
   96CHL1   H4B 9517   5.626   4.727   6.782  2.3420 -0.2928 -1.3096
   96CHL1    C5 9518   5.692   4.775   6.973 -0.4100 -0.0746 -0.2797
   96CHL1    C6 9519   5.586   4.714   7.026 -0.7562  0.6533 -1.2279
   96CHL1    H6 9520   5.507   4.670   6.964 -0.3920 -1.3975 -0.3190
   96CHL1    C7 9521   5.577   4.690   7.171  1.0698 -0.2133  0.0710
   96CHL1   H7A 9522   5.476   4.714   7.211  1.1584  1.6109 -0.6846
   96CHL1   H7B 9523   5.610   4.586   7.187 -2.3694 -1.4290  0.0673
   96CHL1    C8 9524   5.669   4.780   7.257  0.6943  0.4882 -0.2377
   96CHL1    H8 9525   5.617   4.878   7.269 -0.7776 -0.1629 -1.0354
   96CHL1   C14 9526   5.681   4.712   7.399  0.3917  0.0230  1.0954
   96CHL1   H14 9527   5.729   4.613   7.385 -1.2099 -1.0998  2.9958
   96CHL1   C15 9528   5.555   4.679   7.471  0.3637  0.2495 -0.3153
   96CHL1  H15A 9529   5.484   4.764   7.467 -0.3838 -0.1637  2.2759
   96CHL1  H15B 9530   5.511   4.593   7.416  0.4210  0.4331 -0.6463
   96CHL1   C16 9531   5.601   4.650   7.615 -0.4907 -0.3446 -0.4932
   96CHL1  H16A 9532   5.536   4.712   7.681  2.5838  0.9125  1.6031
   96CHL1  H16B 9533   5.589   4.541   7.634  1.2737 -0.4661  0.1145
   96CHL1   C17 9534   5.752   4.709   7.627 -0.3781  0.8522 -0.3538
   96CHL1   H17 9535   5.813   4.618   7.606  0.8388  1.7190 -0.6877
   96CHL1   C13 9536   5.769   4.794   7.499  0.7503  0.4684 -0.4695
   96CHL1   C18 9537   5.709   4.931   7.533 -0.7206 -0.7146  0.2619
   96CHL1  H18A 9538   5.614   4.923   7.590 -0.4661  0.5340  0.8940
   96CHL1  H18B 9539   5.786   4.986   7.590  2.1623 -0.3073 -3.5859
   96CHL1  H18C 9540   5.690   4.994   7.444  0.7430  1.8124  1.6360
   96CHL1   C12 9541   5.909   4.812   7.441 -0.9553 -0.3047  0.3538
   96CHL1  H12A 9542   5.975   4.889   7.486 -0.2463 -0.4529 -0.4006
   96CHL1  H12B 9543   5.960   4.714   7.448 -0.3576 -0.2543 -2.2409
   96CHL1   C11 9544   5.910   4.859   7.289  0.4220  0.3596 -0.2265
   96CHL1  H11A 9545   5.894   4.969   7.291  0.2749  0.3626 -1.0682
   96CHL1  H11B 9546   6.015   4.846   7.256  1.3652 -0.1988  2.7682
   96CHL1    C9 9547   5.808   4.780   7.201  0.0096 -0.2634 -0.9285
   96CHL1    H9 9548   5.838   4.673   7.204 -0.1299 -0.2964  1.6172
   96CHL1   C10 9549   5.806   4.827   7.055  0.8490 -0.2447  0.6519
   96CHL1   C19 9550   5.781   4.981   7.052 -0.0065  0.1941  0.3639
   96CHL1  H19A 9551   5.865   5.025   7.111 -1.1853  0.4892  1.8779
   96CHL1  H19B 9552   5.791   5.032   6.954 -1.2963 -2.2953 -1.1617
   96CHL1  H19C 9553   5.685   5.010   7.100 -0.4178 -0.6539  0.0666
   96CHL1    C1 9554   5.945   4.797   6.994  0.0125  0.4877  0.3218
   96CHL1   H1A 9555   6.020   4.862   7.044 -2.0446  2.7160  0.6921
   96CHL1   H1B 9556   5.966   4.690   7.014 -1.7832  0.0090 -0.1495
   96CHL1    C2 9557   5.950   4.829   6.838 -0.4872  0.2688  0.0529
   96CHL1   H2A 9558   6.052   4.795   6.810 -0.5961 -0.8211  0.9044
   96CHL1   H2B 9559   5.945   4.940   6.827  2.2911  0.2697 -2.7575
   96CHL1   C20 9560   5.782   4.764   7.769 -0.0061 -0.4362 -0.2475
   96CHL1   H20 9561   5.704   4.839   7.794  0.0822 -0.4551  0.1042
   96CHL1   C21 9562   5.925   4.832   7.767  0.0957  1.0712  0.4940
   96CHL1  H21A 9563   5.932   4.934   7.724 -1.2816  1.2411  0.6511
   96CHL1  H21B 9564   6.000   4.766   7.718  1.4087  1.1836  2.2531
   96CHL1  H21C 9565   5.958   4.850   7.871  0.8515  0.8915  0.2922
   96CHL1   C22 9566   5.772   4.661   7.891  0.0922  0.5244  0.3818
   96CHL1  H22A 9567   5.684   4.595   7.879  1.2994 -1.5813  2.2586
   96CHL1  H22B 9568   5.858   4.590   7.898  0.2496  0.8801  3.0959
   96CHL1   C23 9569   5.768   4.716   8.038 -0.1567  0.6225  0.0452
   96CHL1  H23A 9570   5.842   4.658   8.098 -1.3398 -0.1131  0.8217
   96CHL1  H23B 9571   5.809   4.819   8.028 -1.1224  0.9834 -0.3021
   96CHL1   C24 9572   5.631   4.723   8.098  0.6779  0.3719  0.2757
   96CHL1  H24A 9573   5.563   4.797   8.049  0.6017 -0.9801 -1.7822
   96CHL1  H24B 9574   5.576   4.629   8.076  1.3135 -0.1367  0.8336
   96CHL1   C25 9575   5.628   4.738   8.257 -0.0400 -0.1355  0.2899
   96CHL1   H25 9576   5.525   4.711   8.287  0.0907  0.2677  1.1205
   96CHL1   C26 9577   5.713   4.639   8.330 -0.3302 -0.7499  0.2379
   96CHL1  H26A 9578   5.678   4.539   8.296 -0.4251 -0.8142  0.5250
   96CHL1  H26B 9579   5.822   4.654   8.311 -0.3336 -0.4348  0.4560
   96CHL1  H26C 9580   5.687   4.658   8.436  0.9817  1.0451  0.3021
   96CHL1   C27 9581   5.660   4.872   8.308  0.3173 -0.3331  0.6456
   96CHL1  H27A 9582   5.771   4.881   8.310  0.4633  3.0980 -4.4239
   96CHL1  H27B 9583   5.608   4.942   8.240 -1.4667 -2.4784 -0.2994
   96CHL1  H27C 9584   5.623   4.897   8.410  1.0373  1.4392  0.5049
   97OSM      N 9585   0.620   4.886  11.038  0.2172 -0.2647 -0.3242
   97OSM    C15 9586   0.731   4.964  10.975 -0.4728 -0.2002  0.2156
   97OSM   H15A 9587   0.822   4.961  11.034 -1.3681  0.7435  1.6915
   97OSM   H15B 9588   0.702   5.067  10.968  2.0196  0.6826  1.5010
   97OSM   H15C 9589   0.756   4.924  10.878  0.2066 -0.6223  0.5520
   97OSM    C14 9590   0.506   4.868  10.945  0.1035  0.3017  0.6627
   97OSM   H14A 9591   0.540   4.824  10.852  0.4366  1.4316  0.2322
   97OSM   H14B 9592   0.446   4.955  10.923 -0.4148 -0.6469 -2.0036
   97OSM   H14C 9593   0.431   4.802  10.986 -1.0275  1.4001  0.4212
   97OSM    C13 9594   0.671   4.749  11.070  0.0044 -0.0407  0.3807
   97OSM   H13A 9595   0.609   4.698  11.141  1.9059 -1.0320  1.4028
   97OSM   H13B 9596   0.772   4.749  11.110  1.5432  1.4659 -3.0182
   97OSM   H13C 9597   0.684   4.696  10.977  0.7235 -0.0708  0.4896
   97OSM    C12 9598   0.579   4.961  11.161 -1.0644  0.0023  0.9437
   97OSM   H12A 9599   0.668   4.992  11.213 -1.8061  2.1251  1.0410
   97OSM   H12B 9600   0.521   4.896  11.225 -1.9817 -0.0001  0.1364
   97OSM    C11 9601   0.505   5.095  11.142  0.7465  0.3672  0.2753
   97OSM   H11A 9602   0.488   5.122  11.248 -3.0824  1.6813 -0.5054
   97OSM   H11B 9603   0.405   5.069  11.101  1.5182 -1.0376 -0.8141
   97OSM      P 9604   0.501   5.334  11.039  0.1324 -0.8686  0.4611
   97OSM    O13 9605   0.367   5.334  11.100  0.4277  0.0009  0.6872
   97OSM    O14 9606   0.584   5.454  11.074 -0.0005  0.4997  0.6164
   97OSM    O11 9607   0.476   5.325  10.884  0.3694 -0.3293  0.0908
   97OSM    O12 9608   0.577   5.198  11.075  0.1218  0.2852  0.2371
   97OSM    C1S 9609   0.555   5.252  10.793 -0.6191  0.5231  0.3353
   97OSM    H1S 9610   0.526   5.144  10.800  1.6113 -0.2534 -1.3190
   97OSM    H1T 9611   0.666   5.258  10.795 -0.2489 -2.1838 -2.7008
   97OSM     NF 9612   0.568   5.213  10.541 -0.2580  0.0319 -0.0555
   97OSM    HNF 9613   0.647   5.255  10.498 -2.1656  2.8932 -1.0543
   97OSM    C2S 9614   0.518   5.303  10.647  0.0602 -0.2794  0.3125
   97OSM    H2S 9615   0.407   5.301  10.646 -0.1141 -0.5486  4.1396
   97OSM    C3S 9616   0.558   5.456  10.632  0.0914 -0.2531 -0.5245
   97OSM    H3S 9617   0.668   5.471  10.636 -0.1193  1.0769  1.1100
   97OSM     O3 9618   0.508   5.541  10.739  0.4663 -0.1342  0.3187
   97OSM    HO3 9619   0.481   5.476  10.804  0.9645 -1.9480 -1.2104
   97OSM    C4S 9620   0.495   5.507  10.507 -0.3531  0.2783  0.2727
   97OSM    H4S 9621   0.396   5.463  10.487 -0.3500  0.1774  0.4721
   97OSM    C5S 9622   0.549   5.583  10.407 -0.0810 -0.4518 -0.5636
   97OSM    H5S 9623   0.655   5.611  10.424 -1.0804  2.7813  1.3418
   97OSM    C6S 9624   0.482   5.624  10.280  0.0581  0.9426 -0.3355
   97OSM    H6S 9625   0.546   5.588  10.196  2.4294  0.7861  1.4454
   97OSM    H6T 9626   0.477   5.735  10.279 -1.7005  0.9427 -2.9692
   97OSM    C7S 9627   0.340   5.561  10.258 -0.0980 -0.0254  0.3073
   97OSM    H7S 9628   0.273   5.594  10.340  1.5504  0.5090  1.4964
   97OSM    H7T 9629   0.353   5.451  10.256 -2.5589 -0.3730 -2.3351
   97OSM    C8S 9630   0.283   5.598  10.121 -0.7430  0.4748 -0.4072
   97OSM    H8S 9631   0.288   5.706  10.095  0.1047  0.2885 -1.0564
   97OSM    H8T 9632   0.172   5.584  10.127 -0.8361  1.1172 -0.6241
   97OSM    C9S 9633   0.338   5.507  10.007 -0.0683 -0.1096 -0.3430
   97OSM    H9S 9634   0.340   5.402  10.041  2.1993 -0.2406 -0.7855
   97OSM    H9T 9635   0.445   5.535   9.995  0.6260 -1.8072  1.4603
   97OSM   C10S 9636   0.272   5.506   9.871  0.7269 -0.3743  0.7553
   97OSM   H10S 9637   0.269   5.611   9.835 -0.8243  0.1520  2.2883
   97OSM   H10T 9638   0.164   5.480   9.877  0.6853 -1.3644 -2.2467
   97OSM   C11S 9639   0.346   5.421   9.769  0.4632  0.1838  0.0166
   97OSM   H11S 9640   0.326   5.317   9.801  2.5481  0.2670  1.8242
   97OSM   H11T 9641   0.455   5.441   9.777  0.6474  0.1974 -2.0209
   97OSM   C12S 9642   0.302   5.448   9.623  0.4791 -0.3032  0.3720
   97OSM   H12S 9643   0.302   5.559   9.625  0.6107 -0.3126  1.5264
   97OSM   H12T 9644   0.194   5.421   9.624  0.2657  0.3734 -1.4146
   97OSM   C13S 9645   0.405   5.398   9.518 -0.0489 -0.4792  0.1548
   97OSM   H13S 9646   0.415   5.288   9.515 -0.0973 -0.4976  0.5978
   97OSM   H13T 9647   0.506   5.435   9.546  1.0056 -2.8398 -0.2872
   97OSM   C14S 9648   0.365   5.454   9.381  0.4011 -0.1994 -0.6387
   97OSM   H14S 9649   0.448   5.436   9.309  1.3419  0.8204  0.1364
   97OSM   H14T 9650   0.355   5.565   9.385  2.1831 -0.0236  2.0202
   97OSM   C15S 9651   0.234   5.391   9.342  0.7237 -0.5988 -0.1563
   97OSM   H15S 9652   0.152   5.426   9.408  2.5875  0.4998  1.7119
   97OSM   H15T 9653   0.240   5.280   9.343 -0.6671 -0.6921 -0.6039
   97OSM   C16S 9654   0.194   5.436   9.198  0.2535 -0.0529  0.0022
   97OSM   H16S 9655   0.186   5.546   9.203  1.2532 -0.0339  2.9904
   97OSM   H16T 9656   0.092   5.396   9.180  1.3047 -3.2765  0.5401
   97OSM   C17S 9657   0.276   5.392   9.081  0.0438 -0.4448  0.5174
   97OSM   H17S 9658   0.274   5.283   9.057 -1.6612 -0.1646 -0.8532
   97OSM   H17T 9659   0.385   5.413   9.079 -0.4183  2.2848  0.0232
   97OSM   C18S 9660   0.233   5.454   8.955 -0.0021  0.0314  0.2311
   97OSM   H18S 9661   0.129   5.439   8.919  0.4379  0.2603 -1.2258
   97OSM   H18T 9662   0.303   5.438   8.870 -0.1425 -3.6857  0.6592
   97OSM   H18U 9663   0.235   5.564   8.971  0.6423  0.1241 -0.4153
   97OSM    C1F 9664   0.531   5.090  10.522  0.1266 -0.4959 -0.3692
   97OSM     OF 9665   0.428   5.053  10.579  0.2104 -0.2279  0.0229
   97OSM    C2F 9666   0.610   5.004  10.427 -0.6400 -0.3109  0.1635
   97OSM    H2F 9667   0.716   5.033  10.436 -0.4290 -0.6957 -0.9217
   97OSM    H2G 9668   0.589   5.034  10.323 -0.4117 -1.6422 -0.2934
   97OSM    C3F 9669   0.587   4.850  10.448 -0.6431  0.1373 -0.2624
   97OSM    H3F 9670   0.481   4.845  10.417 -1.5603  4.2918  1.5085
   97OSM    H3G 9671   0.602   4.819  10.554  0.9459  1.5232 -0.0286
   97OSM    C4F 9672   0.664   4.755  10.358 -0.2265 -0.8145  0.1134
   97OSM    H4F 9673   0.620   4.653  10.354 -0.5285 -0.6592 -0.8710
   97OSM    H4G 9674   0.769   4.739  10.388 -0.4850 -2.4492  0.2404
   97OSM    C5F 9675   0.654   4.800  10.213 -0.0398  0.5879  0.7006
   97OSM    H5F 9676   0.711   4.892  10.190  0.7478 -0.2934 -1.0040
   97OSM    H5G 9677   0.547   4.815  10.187 -0.0341  1.1970  1.0231
   97OSM    C6F 9678   0.715   4.695  10.121  0.5512  0.2126  0.7557
   97OSM    H6F 9679   0.685   4.593  10.154 -1.5293  0.9613  1.2774
   97OSM    H6G 9680   0.826   4.686  10.122  0.4621 -1.4040 -0.3571
   97OSM    C7F 9681   0.687   4.711   9.969  1.0345 -0.3040 -0.0137
   97OSM    H7F 9682   0.705   4.820   9.957 -1.9512  0.4190  1.2078
   97OSM    H7G 9683   0.578   4.695   9.957  0.7668  0.5826  1.0347
   97OSM    C8F 9684   0.787   4.630   9.883  0.4067 -0.3024 -0.3933
   97OSM    H8F 9685   0.886   4.649   9.930  0.5396 -1.5492 -0.1397
   97OSM    H8G 9686   0.783   4.674   9.781 -1.3115  0.9710  0.1636
   97OSM    C9F 9687   0.756   4.486   9.889 -0.0180 -0.3523 -0.6354
   97OSM    H9F 9688   0.689   4.451   9.969  1.2763  0.0149  0.6627
   97OSM   C10F 9689   0.808   4.387   9.813 -0.0839 -0.8022 -0.0787
   97OSM   H10F 9690   0.770   4.284   9.821 -2.1296  0.0020  1.4833
   97OSM   C11F 9691   0.907   4.405   9.698  0.3338  0.6763  0.1348
   97OSM   H11F 9692   1.005   4.374   9.739 -0.2226  0.9746  1.7590
   97OSM   H11G 9693   0.916   4.509   9.659  2.4457  0.3416 -0.3594
   97OSM   C12F 9694   0.878   4.325   9.569  0.8792  0.1329  0.7107
   97OSM   H12F 9695   0.895   4.218   9.593  1.7044  0.2629  0.7615
   97OSM   H12G 9696   0.960   4.345   9.497 -0.0810 -1.8101 -1.0386
   97OSM   C13F 9697   0.749   4.365   9.501 -0.3681  0.2627 -1.2796
   97OSM   H13F 9698   0.752   4.476   9.491  0.2638  0.4804  0.8295
   97OSM   H13G 9699   0.671   4.345   9.578  0.3933 -0.0359 -0.5742
   97OSM   C14F 9700   0.725   4.310   9.362 -0.1726  0.1439  0.2251
   97OSM   H14F 9701   0.619   4.319   9.331  0.3380  1.7055 -1.1634
   97OSM   H14G 9702   0.736   4.199   9.357 -1.2958 -0.1158  2.2775
   97OSM   C15F 9703   0.811   4.374   9.253 -0.0525 -0.8029 -0.2853
   97OSM   H15F 9704   0.919   4.352   9.269  0.1111  0.4682  0.4672
   97OSM   H15G 9705   0.795   4.483   9.261 -1.6025 -1.1523  2.1518
   97OSM   C16F 9706   0.771   4.335   9.106 -0.3435 -0.8806  0.1783
   97OSM   H16F 9707   0.717   4.238   9.108 -1.1197 -0.4577  0.0728
   97OSM   H16G 9708   0.860   4.343   9.040 -0.4436 -0.4917  0.0901
   97OSM   C17F 9709   0.661   4.422   9.050 -0.5697  0.2620 -0.0966
   97OSM   H17F 9710   0.685   4.531   9.054 -3.0161  0.8287  1.1369
   97OSM   H17G 9711   0.569   4.409   9.111 -0.9493  0.3627 -0.6427
   97OSM   C18F 9712   0.629   4.391   8.900 -0.0636 -0.1455  0.4860
   97OSM   H18F 9713   0.548   4.459   8.868  1.7325  1.5411 -0.6822
   97OSM   H18G 9714   0.595   4.286   8.881 -1.2379  0.5379 -1.5583
   97OSM   H18H 9715   0.720   4.408   8.839 -0.6729 -0.6289 -0.5908
   98OSM      N 9716   1.218   3.726  10.828  0.6144  0.2796  0.6711
   98OSM    C15 9717   1.290   3.623  10.908  0.2404  0.2527 -0.1319
   98OSM   H15A 9718   1.344   3.552  10.847 -2.2417 -0.8945 -1.1084
   98OSM   H15B 9719   1.226   3.572  10.979 -0.6591 -0.4141 -1.3972
   98OSM   H15C 9720   1.369   3.671  10.965  0.7141  0.0681 -0.6254
   98OSM    C14 9721   1.144   3.818  10.917  0.4662 -0.2910  0.0018
   98OSM   H14A 9722   1.048   3.783  10.951  0.4981  0.9626  1.4499
   98OSM   H14B 9723   1.119   3.908  10.863  1.9301  1.1659  1.6448
   98OSM   H14C 9724   1.203   3.837  11.005 -0.3973 -0.1134  0.5495
   98OSM    C13 9725   1.310   3.798  10.734 -0.2788 -0.4733 -0.5292
   98OSM   H13A 9726   1.367   3.732  10.671  2.5229  0.8016  0.4693
   98OSM   H13B 9727   1.385   3.852  10.790 -1.5726  0.8091  0.0143
   98OSM   H13C 9728   1.258   3.876  10.680 -0.0936 -0.2399 -0.3776
   98OSM    C12 9729   1.118   3.654  10.739 -0.0180  0.0362  0.2863
   98OSM   H12A 9730   1.175   3.594  10.670 -0.2166  0.9632 -0.6874
   98OSM   H12B 9731   1.065   3.732  10.687  1.7564  1.8125  1.0671
   98OSM    C11 9732   1.005   3.576  10.792 -0.6939  0.6581 -0.5337
   98OSM   H11A 9733   1.035   3.490  10.856 -0.4662 -0.6461 -2.3137
   98OSM   H11B 9734   0.948   3.524  10.712 -1.1572 -1.5227  1.1074
   98OSM      P 9735   0.784   3.701  10.830 -0.1435 -0.1895  0.3065
   98OSM    O13 9736   0.700   3.575  10.817 -0.2523  0.3164 -0.1290
   98OSM    O14 9737   0.724   3.805  10.921  0.9248 -0.2807  0.1928
   98OSM    O11 9738   0.820   3.772  10.696  0.2673 -0.0044  0.9359
   98OSM    O12 9739   0.924   3.655  10.880  0.6583  0.3957  0.8532
   98OSM    C1S 9740   0.761   3.728  10.576  0.0449  0.2974 -0.3662
   98OSM    H1S 9741   0.652   3.709  10.593  0.2531 -0.9344 -0.3412
   98OSM    H1T 9742   0.813   3.633  10.555 -0.3262  0.1143 -0.4632
   98OSM     NF 9743   0.725   3.761  10.331 -0.3171  0.4854 -0.0866
   98OSM    HNF 9744   0.785   3.700  10.279  2.7650  0.9023  2.6028
   98OSM    C2S 9745   0.786   3.822  10.451 -0.6155  0.1432  0.2761
   98OSM    H2S 9746   0.751   3.926  10.470 -1.7183 -0.1954  0.1299
   98OSM    C3S 9747   0.946   3.841  10.433  0.4794 -0.4741  0.5397
   98OSM    H3S 9748   0.995   3.742  10.423 -0.5355 -0.9635  0.2765
   98OSM     O3 9749   1.006   3.914  10.536  0.2636 -0.1623 -0.2024
   98OSM    HO3 9750   0.952   3.928  10.613  1.3659  0.0703  0.5531
   98OSM    C4S 9751   0.968   3.907  10.293 -0.0459 -0.3006 -0.5551
   98OSM    H4S 9752   0.981   3.843  10.205 -0.2228  1.0695 -1.6084
   98OSM    C5S 9753   0.990   4.037  10.273 -0.2453 -1.1246 -0.0885
   98OSM    H5S 9754   0.994   4.108  10.357 -1.4318 -0.2820 -0.7199
   98OSM    C6S 9755   1.019   4.110  10.146 -0.2774 -0.0041  0.1490
   98OSM    H6S 9756   1.091   4.193  10.161  0.8372 -0.6272 -1.4731
   98OSM    H6T 9757   0.929   4.160  10.105 -0.6952  0.3388  1.4445
   98OSM    C7S 9758   1.068   4.023  10.031 -0.4996  0.1907 -0.3065
   98OSM    H7S 9759   0.996   3.942  10.009  1.7690 -2.3129  0.9489
   98OSM    H7T 9760   1.161   3.966  10.053 -0.6157 -1.8214 -4.1245
   98OSM    C8S 9761   1.093   4.102   9.900  0.3547  0.1930 -0.6072
   98OSM    H8S 9762   1.168   4.175   9.936 -0.1545 -0.2198  1.4315
   98OSM    H8T 9763   1.000   4.156   9.872  0.6379  0.6044 -0.7577
   98OSM    C9S 9764   1.117   4.005   9.787 -0.5061 -0.4621 -0.5094
   98OSM    H9S 9765   1.017   3.961   9.774 -1.5901  1.4233  0.8665
   98OSM    H9T 9766   1.191   3.926   9.812 -0.1144  0.3001  0.9035
   98OSM   C10S 9767   1.172   4.066   9.656 -0.0975 -0.3473  0.3514
   98OSM   H10S 9768   1.273   4.113   9.665 -0.0575 -0.0598 -1.3141
   98OSM   H10T 9769   1.116   4.160   9.636  2.3201  0.8215 -1.5596
   98OSM   C11S 9770   1.167   3.976   9.536 -0.0507 -0.1244 -0.1289
   98OSM   H11S 9771   1.118   3.886   9.579  0.4711 -0.6742 -0.6742
   98OSM   H11T 9772   1.266   3.938   9.505  0.2563 -0.1008  0.8192
   98OSM   C12S 9773   1.092   4.031   9.412  0.0754  0.4707 -0.1912
   98OSM   H12S 9774   1.163   4.103   9.366 -1.2583  0.8847 -1.6964
   98OSM   H12T 9775   1.001   4.082   9.452 -0.7522 -2.8787  2.5905
   98OSM   C13S 9776   1.062   3.922   9.305  0.3209 -0.2999  0.8485
   98OSM   H13S 9777   0.970   3.954   9.252  0.8380  0.6457  0.4878
   98OSM   H13T 9778   1.056   3.820   9.348  0.2532 -0.8217 -0.3555
   98OSM   C14S 9779   1.179   3.926   9.207  0.0597 -1.1412  0.4105
   98OSM   H14S 9780   1.276   3.914   9.260 -0.2886  1.0113  1.6484
   98OSM   H14T 9781   1.175   4.023   9.153  0.8963 -0.8314  0.8785
   98OSM   C15S 9782   1.165   3.820   9.105 -0.1694  0.4020 -0.2436
   98OSM   H15S 9783   1.057   3.822   9.076 -1.0332 -3.0123  2.2016
   98OSM   H15T 9784   1.181   3.716   9.139  2.4701  0.3865 -1.2912
   98OSM   C16S 9785   1.244   3.844   8.977  0.2405 -0.0790  0.3865
   98OSM   H16S 9786   1.355   3.851   8.983  0.2489 -0.9667  1.7139
   98OSM   H16T 9787   1.216   3.945   8.941 -1.6175 -0.6816  0.0445
   98OSM   C17S 9788   1.211   3.748   8.860  0.6561  0.4637 -0.5399
   98OSM   H17S 9789   1.258   3.777   8.763  0.5899  1.2599 -0.3398
   98OSM   H17T 9790   1.100   3.756   8.847  0.7651  0.0741 -1.9294
   98OSM   C18S 9791   1.256   3.605   8.897 -0.0695 -0.0090  0.5401
   98OSM   H18S 9792   1.228   3.526   8.825  2.4054 -0.2044 -0.3163
   98OSM   H18T 9793   1.216   3.574   8.996  1.6052 -2.9422  0.4294
   98OSM   H18U 9794   1.367   3.603   8.908 -0.0250  0.4723  0.2126
   98OSM    C1F 9795   0.593   3.738  10.328  0.4198 -0.2001  0.3123
   98OSM     OF 9796   0.512   3.808  10.391  1.0130  0.1759 -0.5030
   98OSM    C2F 9797   0.555   3.620  10.246  0.6038  1.0489 -1.1401
   98OSM    H2F 9798   0.609   3.533  10.286 -1.0722  0.1443 -0.7418
   98OSM    H2G 9799   0.579   3.648  10.141 -2.1520  1.7766 -1.6599
   98OSM    C3F 9800   0.405   3.580  10.257  0.0913 -1.1385 -0.8149
   98OSM    H3F 9801   0.336   3.665  10.236  1.3864  0.0155 -0.5143
   98OSM    H3G 9802   0.400   3.550  10.364  0.9252  0.2813 -0.3541
   98OSM    C4F 9803   0.370   3.464  10.165 -0.5107  1.2583  0.1585
   98OSM    H4F 9804   0.320   3.381  10.219  0.9538 -0.9056 -1.6093
   98OSM    H4G 9805   0.466   3.418  10.131 -1.9339 -0.9129 -1.1912
   98OSM    C5F 9806   0.298   3.484  10.028 -0.6019 -0.0441 -0.2342
   98OSM    H5F 9807   0.345   3.576   9.989 -0.7944  0.2764  0.2842
   98OSM    H5G 9808   0.191   3.506  10.046 -0.6779 -1.7259  1.7126
   98OSM    C6F 9809   0.321   3.381   9.929  0.0372 -0.6748  0.1757
   98OSM    H6F 9810   0.280   3.291   9.980 -0.5647  0.7029  2.2766
   98OSM    H6G 9811   0.431   3.367   9.920  0.2424 -0.6435  2.1640
   98OSM    C7F 9812   0.262   3.412   9.795  0.1014 -0.2150  0.0691
   98OSM    H7F 9813   0.318   3.492   9.742 -2.2593  0.2967 -1.8488
   98OSM    H7G 9814   0.157   3.447   9.806 -0.4053 -0.9705 -1.8381
   98OSM    C8F 9815   0.256   3.291   9.701 -0.1628 -0.1675  0.3832
   98OSM    H8F 9816   0.179   3.309   9.623  0.5351  1.0325 -0.0743
   98OSM    H8G 9817   0.219   3.202   9.755 -0.4656 -1.2391 -1.5186
   98OSM    C9F 9818   0.392   3.265   9.646 -0.4486 -0.4316 -0.1468
   98OSM    H9F 9819   0.471   3.244   9.720  0.9111 -0.6617 -1.6233
   98OSM   C10F 9820   0.433   3.249   9.521  0.3813  0.7388  0.3500
   98OSM   H10F 9821   0.537   3.228   9.493  0.7629  2.4858  0.3864
   98OSM   C11F 9822   0.349   3.248   9.402  0.0550  0.3034  0.3461
   98OSM   H11F 9823   0.378   3.333   9.336 -3.3899 -0.3649 -2.3286
   98OSM   H11G 9824   0.246   3.279   9.430 -1.1022  0.3252 -3.3335
   98OSM   C12F 9825   0.361   3.117   9.317  0.7978  0.6792 -0.3779
   98OSM   H12F 9826   0.322   3.027   9.368  1.1032  1.6217  1.6816
   98OSM   H12G 9827   0.465   3.102   9.281  0.0067 -0.7012 -2.1737
   98OSM   C13F 9828   0.284   3.132   9.185 -0.4215  0.8402 -0.1937
   98OSM   H13F 9829   0.337   3.200   9.115 -0.4323  0.1165 -0.9190
   98OSM   H13G 9830   0.192   3.192   9.201 -2.0644 -1.0863 -1.8212
   98OSM   C14F 9831   0.258   2.997   9.116 -0.1897 -0.5801 -0.1073
   98OSM   H14F 9832   0.199   3.006   9.022  1.3554 -0.4320 -1.0987
   98OSM   H14G 9833   0.195   2.939   9.187  0.1997 -0.6787  0.1626
   98OSM   C15F 9834   0.381   2.915   9.069 -0.3037 -1.0115 -0.3121
   98OSM   H15F 9835   0.439   2.901   9.163  1.5600  1.3868 -1.0031
   98OSM   H15G 9836   0.444   2.983   9.009 -0.3396 -1.4678 -0.8691
   98OSM   C16F 9837   0.356   2.786   8.994 -0.2555  0.0092 -0.3809
   98OSM   H16F 9838   0.316   2.818   8.896 -0.2304 -0.1353 -0.4392
   98OSM   H16G 9839   0.274   2.732   9.045 -0.0658 -0.0678 -0.1552
   98OSM   C17F 9840   0.485   2.700   8.971 -0.0493 -0.6293  0.2248
   98OSM   H17F 9841   0.464   2.605   8.916 -1.9815 -0.1547  0.0587
   98OSM   H17G 9842   0.526   2.677   9.072  0.6151 -1.1274 -0.1465
   98OSM   C18F 9843   0.598   2.771   8.892  0.0720  0.1542  0.1227
   98OSM   H18F 9844   0.607   2.878   8.921 -1.7320  0.7315 -1.2640
   98OSM   H18G 9845   0.579   2.754   8.784  1.2727  0.7136 -0.2015
   98OSM   H18H 9846   0.691   2.716   8.919 -0.0563  0.2702  0.8127
   99OSM      N 9847   1.251   0.237  10.802 -0.3930 -0.1944  0.5799
   99OSM    C15 9848   1.189   0.102  10.804  0.0748  0.0972  0.5039
   99OSM   H15A 9849   1.083   0.098  10.824  0.4126 -5.2304  2.7644
   99OSM   H15B 9850   1.232   0.044  10.884  0.0247 -0.8622 -0.1490
   99OSM   H15C 9851   1.207   0.060  10.706  0.5006  1.5672 -0.0785
   99OSM    C14 9852   1.234   0.305  10.937 -0.0120  0.2255 -0.1800
   99OSM   H14A 9853   1.297   0.260  11.011 -1.7907  0.5525  1.6059
   99OSM   H14B 9854   1.132   0.320  10.967  0.1823 -0.9713  1.1352
   99OSM   H14C 9855   1.268   0.408  10.929 -3.0957  1.5454  1.7808
   99OSM    C13 9856   1.403   0.235  10.769 -0.3258  0.4833 -0.2727
   99OSM   H13A 9857   1.431   0.339  10.758 -0.8199  0.4632 -2.0417
   99OSM   H13B 9858   1.421   0.198  10.670 -1.7631  4.0832 -2.0956
   99OSM   H13C 9859   1.459   0.188  10.848  1.0133  1.8682 -0.3493
   99OSM    C12 9860   1.175   0.322  10.695 -0.2152 -0.1010  0.7848
   99OSM   H12A 9861   1.070   0.298  10.702 -0.0793 -2.4129 -2.7798
   99OSM   H12B 9862   1.206   0.281  10.601 -0.0349  1.1912  0.2607
   99OSM    C11 9863   1.214   0.480  10.692  0.7053 -0.3811 -0.1984
   99OSM   H11A 9864   1.180   0.520  10.790 -0.0931  0.4831 -0.8179
   99OSM   H11B 9865   1.159   0.536  10.614  0.2264 -0.8366 -0.1955
   99OSM      P 9866   1.409   0.652  10.671 -0.2019  0.3266 -0.0453
   99OSM    O13 9867   1.323   0.748  10.739 -0.7622 -0.0249 -0.0046
   99OSM    O14 9868   1.551   0.651  10.710  0.5068 -0.3932 -0.7987
   99OSM    O11 9869   1.395   0.664  10.511  0.1627 -0.0713 -0.2287
   99OSM    O12 9870   1.356   0.506  10.682 -0.0775  0.6696 -0.3399
   99OSM    C1S 9871   1.519   0.669  10.439  0.7548 -0.0542  0.1481
   99OSM    H1S 9872   1.584   0.587  10.475 -0.1905  0.0424  2.2196
   99OSM    H1T 9873   1.575   0.764  10.433 -2.2437  1.7755 -0.6666
   99OSM     NF 9874   1.597   0.623  10.213  0.7888  1.0154 -0.4498
   99OSM    HNF 9875   1.636   0.690  10.150 -1.1271  0.9572 -1.7787
   99OSM    C2S 9876   1.483   0.657  10.291 -0.3229  0.7143 -0.2197
   99OSM    H2S 9877   1.403   0.583  10.275 -0.3470  0.7542 -0.2841
   99OSM    C3S 9878   1.401   0.783  10.240 -0.2469  1.1874  0.1217
   99OSM    H3S 9879   1.453   0.879  10.262 -0.7223  1.3924  0.3610
   99OSM     O3 9880   1.285   0.802  10.324 -0.1522 -0.4657 -0.1115
   99OSM    HO3 9881   1.306   0.746  10.399  0.2485 -1.6086 -1.0489
   99OSM    C4S 9882   1.373   0.772  10.092 -0.2269 -0.6276 -0.3985
   99OSM    H4S 9883   1.459   0.804  10.031  0.0540 -2.1382 -0.8476
   99OSM    C5S 9884   1.262   0.726  10.027 -0.1682  0.4383  0.5344
   99OSM    H5S 9885   1.182   0.687  10.093  1.4623 -0.0648  2.3029
   99OSM    C6S 9886   1.246   0.719   9.873  0.2486 -0.6399  0.2520
   99OSM    H6S 9887   1.195   0.811   9.837  0.7035 -0.2580  0.5776
   99OSM    H6T 9888   1.168   0.643   9.848 -0.4884  0.1306  0.1446
   99OSM    C7S 9889   1.368   0.699   9.790  0.2870 -0.5214 -0.3208
   99OSM    H7S 9890   1.419   0.604   9.818  0.4110  0.3938  2.9346
   99OSM    H7T 9891   1.436   0.786   9.800  2.2072 -2.0567  0.7733
   99OSM    C8S 9892   1.336   0.688   9.638 -0.4834  0.4151 -0.3932
   99OSM    H8S 9893   1.284   0.780   9.605  0.7069  0.9495 -0.8461
   99OSM    H8T 9894   1.282   0.594   9.615  0.9189 -0.5397  0.0341
   99OSM    C9S 9895   1.468   0.679   9.559 -0.0103  0.3831 -0.1502
   99OSM    H9S 9896   1.551   0.623   9.608  0.7084  1.0818 -0.5387
   99OSM    H9T 9897   1.506   0.782   9.540 -0.4465  1.3366  3.4837
   99OSM   C10S 9898   1.445   0.611   9.418  0.4452 -0.0657 -0.6002
   99OSM   H10S 9899   1.401   0.511   9.438  1.4873 -0.1851  1.3270
   99OSM   H10T 9900   1.546   0.593   9.377  1.5156  2.2647  0.8460
   99OSM   C11S 9901   1.361   0.686   9.319 -1.2797 -0.2116 -0.1000
   99OSM   H11S 9902   1.409   0.784   9.301  0.3918 -0.8940  0.4402
   99OSM   H11T 9903   1.254   0.696   9.350 -1.9062 -0.7747 -1.9348
   99OSM   C12S 9904   1.350   0.612   9.185 -0.0889  0.4270  0.6700
   99OSM   H12S 9905   1.311   0.674   9.102  0.8258  0.4993  0.2894
   99OSM   H12T 9906   1.447   0.585   9.138 -1.1982  2.6963 -3.3401
   99OSM   C13S 9907   1.271   0.478   9.195  0.3399 -0.5128  0.2364
   99OSM   H13S 9908   1.168   0.501   9.230 -0.1565 -0.0431 -1.4661
   99OSM   H13T 9909   1.309   0.406   9.271 -2.2153 -2.2065  0.0541
   99OSM   C14S 9910   1.273   0.410   9.062  0.1128 -0.3285 -0.6957
   99OSM   H14S 9911   1.381   0.389   9.045  1.2748  4.6110 -0.9500
   99OSM   H14T 9912   1.245   0.491   8.992  2.4596  2.6712  1.5083
   99OSM   C15S 9913   1.189   0.284   9.061  0.2692 -0.3432  0.8442
   99OSM   H15S 9914   1.081   0.312   9.055  0.3759  0.5422  2.7133
   99OSM   H15T 9915   1.198   0.223   9.153 -1.2322  0.4570  1.5540
   99OSM   C16S 9916   1.211   0.214   8.923  0.5219 -0.0288 -0.3104
   99OSM   H16S 9917   1.180   0.109   8.940  0.6919 -0.0342 -0.0355
   99OSM   H16T 9918   1.319   0.220   8.898  0.4709  1.1090 -0.3259
   99OSM   C17S 9919   1.109   0.252   8.814 -0.1525 -0.7391  0.9918
   99OSM   H17S 9920   1.007   0.232   8.855 -0.6371  1.1354  0.7851
   99OSM   H17T 9921   1.130   0.178   8.734  2.6776  1.5137 -0.4828
   99OSM   C18S 9922   1.130   0.395   8.764 -0.6834 -0.1361 -0.0194
   99OSM   H18S 9923   1.239   0.410   8.745 -0.6253  0.0532  0.4446
   99OSM   H18T 9924   1.109   0.471   8.842 -0.1052 -0.9308  0.9260
   99OSM   H18U 9925   1.076   0.432   8.674 -2.0710 -0.3924  0.6910
   99OSM    C1F 9926   1.639   0.499  10.208  0.1075  0.1025  0.2891
   99OSM     OF 9927   1.602   0.412  10.284 -0.2730  0.2637  0.9284
   99OSM    C2F 9928   1.733   0.469  10.098 -0.3496  0.1526 -0.1459
   99OSM    H2F 9929   1.765   0.364  10.115 -2.1716 -0.3605  0.3484
   99OSM    H2G 9930   1.821   0.536  10.113 -0.6019  0.9065 -1.8639
   99OSM    C3F 9931   1.679   0.493   9.957  0.8083 -0.3614 -0.1538
   99OSM    H3F 9932   1.587   0.431   9.944 -0.6238  1.0683  2.4574
   99OSM    H3G 9933   1.650   0.599   9.947  0.1920 -0.3750  1.2229
   99OSM    C4F 9934   1.788   0.457   9.854  0.0321 -0.2225  0.3433
   99OSM    H4F 9935   1.884   0.497   9.895  0.0672  1.9899 -1.6919
   99OSM    H4G 9936   1.766   0.516   9.762 -1.4278  1.5975  1.7916
   99OSM    C5F 9937   1.798   0.309   9.818  0.7998  0.0608 -0.3676
   99OSM    H5F 9938   1.818   0.248   9.908  0.9837 -1.3045 -1.2906
   99OSM    H5G 9939   1.890   0.309   9.755  1.6167  1.1561  0.7900
   99OSM    C6F 9940   1.681   0.253   9.728 -0.5206  0.5962  0.8423
   99OSM    H6F 9941   1.593   0.281   9.791  0.2796  1.7101  1.5055
   99OSM    H6G 9942   1.691   0.142   9.729  1.0203  0.6797 -0.6790
   99OSM    C7F 9943   1.651   0.303   9.584 -0.5298 -0.1875  1.8410
   99OSM    H7F 9944   1.599   0.401   9.576  1.3369  0.6680 -1.9771
   99OSM    H7G 9945   1.592   0.232   9.522  2.0446  0.3623 -1.5339
   99OSM    C8F 9946   1.781   0.318   9.505  0.1795 -1.0014  0.8153
   99OSM    H8F 9947   1.827   0.219   9.524  0.4802 -0.7813  1.2586
   99OSM    H8G 9948   1.851   0.389   9.556 -0.9388 -0.8772  2.2546
   99OSM    C9F 9949   1.800   0.358   9.355  0.6797  0.3868 -0.2886
   99OSM    H9F 9950   1.904   0.376   9.325  2.1737 -1.9967  2.8877
   99OSM   C10F 9951   1.712   0.351   9.254 -0.5170 -0.4874  0.4491
   99OSM   H10F 9952   1.741   0.385   9.153  0.5715 -0.2748  0.8269
   99OSM   C11F 9953   1.569   0.299   9.255 -0.1131  0.1453 -0.5366
   99OSM   H11F 9954   1.513   0.368   9.189  0.4503  0.1393 -1.0352
   99OSM   H11G 9955   1.525   0.311   9.356 -2.8678  0.1755 -1.6773
   99OSM   C12F 9956   1.562   0.152   9.221  0.1510  0.1880  0.3497
   99OSM   H12F 9957   1.462   0.113   9.247 -1.0608  2.7516 -0.1173
   99OSM   H12G 9958   1.639   0.097   9.279 -0.1867 -1.1327 -0.4199
   99OSM   C13F 9959   1.574   0.120   9.068  0.4598  0.4997  0.2742
   99OSM   H13F 9960   1.642   0.184   9.008  0.3669 -0.3089 -0.7322
   99OSM   H13G 9961   1.478   0.141   9.015  2.3440  0.3563 -3.5362
   99OSM   C14F 9962   1.619  -0.027   9.042 -0.0996  0.1760 -0.2590
   99OSM   H14F 9963   1.554  -0.089   9.107  1.9485  0.8929  2.6454
   99OSM   H14G 9964   1.725  -0.045   9.070 -0.1842 -1.3143 -0.7804
   99OSM   C15F 9965   1.598  -0.054   8.895 -0.3562 -0.9068 -0.6270
   99OSM   H15F 9966   1.680  -0.003   8.839 -1.3150  1.1667 -0.2391
   99OSM   H15G 9967   1.512   0.001   8.851 -0.1772  0.9759  1.2397
   99OSM   C16F 9968   1.587  -0.202   8.852 -0.0892  0.6654 -0.1508
   99OSM   H16F 9969   1.506  -0.255   8.906 -0.0772  1.5373  0.7598
   99OSM   H16G 9970   1.677  -0.260   8.879 -0.4564  0.3476  0.4042
   99OSM   C17F 9971   1.556  -0.227   8.701  0.1917  0.0874  0.6698
   99OSM   H17F 9972   1.561  -0.338   8.691  2.1044  0.1984 -0.1702
   99OSM   H17G 9973   1.646  -0.183   8.653 -0.0109  2.2304  2.1384
   99OSM   C18F 9974   1.422  -0.182   8.635 -0.0108  0.1932 -0.9326
   99OSM   H18F 9975   1.410  -0.239   8.541 -0.3543 -1.2173 -0.0660
   99OSM   H18G 9976   1.422  -0.071   8.624 -1.3905  0.4003  0.7038
   99OSM   H18H 9977   1.335  -0.210   8.699 -0.1293  0.2026 -1.0901
  100OSM      N 9978   3.973   1.801  11.153  0.3760 -0.1354 -0.5006
  100OSM    C15 9979   3.992   1.692  11.255  0.2295  0.3219 -0.2235
  100OSM   H15A 9980   4.095   1.686  11.286  1.0951  1.4762 -2.5579
  100OSM   H15B 9981   3.952   1.605  11.205  0.2975 -1.0144  1.9427
  100OSM   H15C 9982   3.918   1.714  11.330 -3.1532 -1.1800 -2.8338
  100OSM    C14 9983   4.001   1.931  11.218  0.7329 -0.4528  0.2734
  100OSM   H14A 9984   3.945   1.952  11.308 -0.1380 -0.8938 -0.1530
  100OSM   H14B 9985   3.982   2.012  11.150 -1.4974 -1.7315 -0.7346
  100OSM   H14C 9986   4.105   1.941  11.246  1.1813 -1.8461 -0.7752
  100OSM    C13 9987   4.074   1.777  11.050  0.6547 -0.5351  0.0986
  100OSM   H13A 9988   4.083   1.854  10.975 -1.4115 -0.6543 -0.3435
  100OSM   H13B 9989   4.034   1.688  11.004  0.8843 -1.1049  0.9742
  100OSM   H13C 9990   4.169   1.766  11.100  0.0781  1.7401  1.8796
  100OSM    C12 9991   3.830   1.803  11.103  0.3123 -0.2927 -0.1291
  100OSM   H12A 9992   3.825   1.880  11.028  1.0471 -0.2926 -0.1874
  100OSM   H12B 9993   3.765   1.833  11.183 -0.1775 -0.0637 -0.6089
  100OSM    C11 9994   3.773   1.676  11.043  0.3158  0.3724  0.5031
  100OSM   H11A 9995   3.667   1.704  11.029 -0.7670 -1.3654  4.1198
  100OSM   H11B 9996   3.768   1.591  11.115  0.2585 -0.5927 -0.6125
  100OSM      P 9997   3.821   1.677  10.782  0.0338  0.3081  0.3127
  100OSM    O13 9998   3.797   1.824  10.784  0.0912  0.4153 -0.1833
  100OSM    O14 9999   3.931   1.625  10.704  0.3729  0.3724  0.1853
  100OSM    O1110000   3.688   1.603  10.735  0.3230 -0.0869 -0.0417
  100OSM    O1210001   3.841   1.626  10.929  0.0777 -0.3370  0.1224
  100OSM    C1S10002   3.574   1.665  10.678 -0.4203  0.9402  0.2540
  100OSM    H1S10003   3.561   1.771  10.710 -0.5799  1.1668 -0.5307
  100OSM    H1T10004   3.485   1.613  10.719 -0.6389 -0.0937 -1.4289
  100OSM     NF10005   3.500   1.755  10.466  0.2931 -0.3616  0.1323
  100OSM    HNF10006   3.404   1.729  10.457  0.7699 -2.6853  1.3095
  100OSM    C2S10007   3.567   1.638  10.523 -0.3839  0.6015 -0.4973
  100OSM    H2S10008   3.672   1.628  10.487  0.5663 -0.3396  2.2664
  100OSM    C3S10009   3.498   1.495  10.501  0.0014 -0.3758  0.2872
  100OSM    H3S10010   3.391   1.499  10.530 -0.2271 -0.7530 -0.5022
  100OSM     O310011   3.567   1.388  10.563  0.2087 -0.4269 -0.8463
  100OSM    HO310012   3.633   1.419  10.626  0.9546 -1.7807 -0.9241
  100OSM    C4S10013   3.516   1.465  10.356  0.6627  0.4630  0.4935
  100OSM    H4S10014   3.610   1.412  10.335  1.7145  2.7685 -0.9899
  100OSM    C5S10015   3.429   1.488  10.255 -0.0569 -0.1157 -0.1270
  100OSM    H5S10016   3.329   1.520  10.288  1.4686  3.1002  2.0187
  100OSM    C6S10017   3.442   1.452  10.111 -0.4107  0.1830 -0.3011
  100OSM    H6S10018   3.437   1.544  10.049  1.3736  0.0813 -0.6703
  100OSM    H6T10019   3.364   1.379  10.081 -0.8099  0.4355  0.1116
  100OSM    C7S10020   3.574   1.381  10.070 -0.3844  0.1185 -0.1336
  100OSM    H7S10021   3.567   1.284  10.124  0.7862  1.0147  1.7381
  100OSM    H7T10022   3.668   1.427  10.108  0.1649 -1.4166  0.4252
  100OSM    C8S10023   3.604   1.366   9.915 -0.4326 -0.3247 -0.1025
  100OSM    H8S10024   3.711   1.336   9.906 -0.9880 -2.3759 -0.3332
  100OSM    H8T10025   3.587   1.464   9.865 -1.2889 -0.4067  0.0044
  100OSM    C9S10026   3.521   1.251   9.853  0.0368  0.3587 -0.0761
  100OSM    H9S10027   3.412   1.273   9.858  0.6731  3.8822  0.6474
  100OSM    H9T10028   3.531   1.161   9.918  1.3466  0.2658 -0.3807
  100OSM   C10S10029   3.567   1.210   9.710 -0.4479  0.0609 -0.6760
  100OSM   H10S10030   3.516   1.118   9.672  0.8653 -0.8498 -0.3296
  100OSM   H10T10031   3.674   1.181   9.695 -0.1697  1.2597 -1.0904
  100OSM   C11S10032   3.554   1.329   9.611 -0.0943 -0.3852 -0.4466
  100OSM   H11S10033   3.640   1.398   9.624 -0.3139 -0.2333  0.2239
  100OSM   H11T10034   3.465   1.388   9.640  0.8609  2.0122 -1.9985
  100OSM   C12S10035   3.546   1.293   9.461 -0.2570 -0.2905 -0.0319
  100OSM   H12S10036   3.528   1.387   9.403  0.0651 -0.3364 -0.2042
  100OSM   H12T10037   3.460   1.223   9.450  1.3973 -2.3977 -0.1066
  100OSM   C13S10038   3.671   1.233   9.406  0.3649  0.1196  0.4473
  100OSM   H13S10039   3.694   1.146   9.471 -0.1066  1.2700  2.2520
  100OSM   H13T10040   3.761   1.296   9.423  2.0485 -1.2784 -2.6050
  100OSM   C14S10041   3.666   1.210   9.256  0.1120 -0.4640 -0.6013
  100OSM   H14S10042   3.600   1.125   9.228 -0.2630 -0.5509  0.4942
  100OSM   H14T10043   3.769   1.184   9.223 -0.2919  0.2124 -2.5434
  100OSM   C15S10044   3.628   1.325   9.166 -0.6789 -0.3307 -0.8703
  100OSM   H15S10045   3.695   1.409   9.192 -0.0484 -0.9543 -0.4435
  100OSM   H15T10046   3.526   1.359   9.195  0.3635  2.4044 -0.2192
  100OSM   C16S10047   3.641   1.288   9.023  0.0869  0.3965 -0.1102
  100OSM   H16S10048   3.578   1.199   9.005  0.7917 -0.5559  1.8904
  100OSM   H16T10049   3.742   1.246   9.004 -0.3272  0.6318 -3.4065
  100OSM   C17S10050   3.595   1.396   8.922  0.1231  0.9123  0.2175
  100OSM   H17S10051   3.672   1.476   8.923  1.4858 -0.3685  0.7111
  100OSM   H17T10052   3.493   1.436   8.939  0.4748  1.5233  0.9811
  100OSM   C18S10053   3.588   1.335   8.778 -0.0340  0.0038 -0.7464
  100OSM   H18S10054   3.503   1.264   8.775 -0.0252 -0.0722  0.4494
  100OSM   H18T10055   3.674   1.268   8.755 -1.4125 -2.8209  1.7557
  100OSM   H18U10056   3.567   1.417   8.705 -0.5584  0.1646 -0.4134
  100OSM    C1F10057   3.546   1.883  10.449 -1.1548 -0.4768 -0.4368
  100OSM     OF10058   3.664   1.908  10.477 -0.2956 -0.2791  0.2521
  100OSM    C2F10059   3.446   1.994  10.410 -0.0085 -0.3402 -0.3301
  100OSM    H2F10060   3.485   2.087  10.457  0.0762  0.0166 -1.0953
  100OSM    H2G10061   3.347   1.966  10.451  0.7285  0.4712  2.2483
  100OSM    C3F10062   3.431   2.017  10.262  0.2746 -0.1827 -0.6633
  100OSM    H3F10063   3.524   2.067  10.226 -0.0679  0.4323 -0.7148
  100OSM    H3G10064   3.362   2.100  10.235  1.2203  1.1977  0.9142
  100OSM    C4F10065   3.401   1.893  10.173  0.3185  0.2244 -0.1339
  100OSM    H4F10066   3.303   1.847  10.200 -0.1752 -0.0300 -2.1391
  100OSM    H4G10067   3.489   1.826  10.184 -0.9963 -1.6657 -0.5306
  100OSM    C5F10068   3.387   1.931  10.027  0.3351  0.0627 -0.4493
  100OSM    H5F10069   3.479   1.985   9.994  1.3955 -1.0621  0.5532
  100OSM    H5G10070   3.305   2.005  10.032 -0.1412 -0.5540  2.8108
  100OSM    C6F10071   3.358   1.814   9.936  0.1150  1.1259  0.1048
  100OSM    H6F10072   3.293   1.740   9.987 -0.9942  1.0676 -1.3341
  100OSM    H6G10073   3.456   1.764   9.922 -0.4417 -0.2763  0.9353
  100OSM    C7F10074   3.302   1.841   9.793 -0.3105  0.1629 -0.2934
  100OSM    H7F10075   3.355   1.925   9.743  0.8276  0.1049  0.7830
  100OSM    H7G10076   3.195   1.869   9.805 -0.3571  0.3996 -1.1851
  100OSM    C8F10077   3.295   1.713   9.697 -0.2144 -0.1643  0.3642
  100OSM    H8F10078   3.230   1.640   9.750 -0.6861  1.1405  1.6448
  100OSM    H8G10079   3.400   1.680   9.685  0.5058  1.9237  0.5690
  100OSM    C9F10080   3.231   1.762   9.567 -0.3762  0.4822  0.4343
  100OSM    H9F10081   3.145   1.829   9.560 -1.4066 -0.6985  1.3906
  100OSM   C10F10082   3.282   1.726   9.446  0.6959  0.5185  0.2027
  100OSM   H10F10083   3.234   1.768   9.355  0.8822  2.7194  1.0486
  100OSM   C11F10084   3.403   1.640   9.411 -0.0515  0.0254 -0.0982
  100OSM   H11F10085   3.374   1.534   9.394 -0.3409  0.1780 -0.5709
  100OSM   H11G10086   3.468   1.628   9.501  1.4558 -1.7016 -1.3439
  100OSM   C12F10087   3.503   1.691   9.304 -0.2505  0.4195 -0.1503
  100OSM   H12F10088   3.581   1.612   9.304 -0.1527  0.5152 -0.7175
  100OSM   H12G10089   3.539   1.790   9.339  0.4688  0.2475 -0.3934
  100OSM   C13F10090   3.445   1.715   9.162  0.0869  0.2056 -0.5721
  100OSM   H13F10091   3.361   1.788   9.168 -0.0872 -0.0843  0.8294
  100OSM   H13G10092   3.394   1.620   9.136  1.8395 -0.8977 -0.1401
  100OSM   C14F10093   3.543   1.747   9.052 -0.4661 -0.1678  0.2771
  100OSM   H14F10094   3.629   1.676   9.050 -0.8979 -0.7107  0.6684
  100OSM   H14G10095   3.584   1.846   9.081  2.2912 -1.2200  0.3199
  100OSM   C15F10096   3.482   1.758   8.916  0.2357 -0.0209 -0.1762
  100OSM   H15F10097   3.461   1.653   8.886  1.9049 -0.0664 -1.3557
  100OSM   H15G10098   3.558   1.804   8.848  3.3886  0.7865  3.5664
  100OSM   C16F10099   3.347   1.830   8.919 -0.1308 -0.5998  0.3843
  100OSM   H16F10100   3.356   1.931   8.966 -0.0542 -0.0474 -0.7704
  100OSM   H16G10101   3.270   1.778   8.979 -0.0174 -2.5687 -1.0830
  100OSM   C17F10102   3.311   1.865   8.777  0.2976  0.1952  0.2502
  100OSM   H17F10103   3.408   1.888   8.727 -0.9302  0.6555 -2.0603
  100OSM   H17G10104   3.240   1.949   8.762  1.8003  1.8959  2.0463
  100OSM   C18F10105   3.257   1.741   8.707  0.1068 -0.9729  0.0746
  100OSM   H18F10106   3.193   1.687   8.780 -0.3321 -0.5560  0.0077
  100OSM   H18G10107   3.332   1.664   8.680 -0.6162 -1.0046 -2.0439
  100OSM   H18H10108   3.203   1.767   8.613 -0.8436  0.8371  1.0677
  101OSM      N10109   5.820   0.125  11.172  0.1714 -0.2436  0.5936
  101OSM    C1510110   5.863   0.207  11.289  0.3624 -0.0498 -0.6199
  101OSM   H15A10111   5.968   0.199  11.313 -0.2719  1.2932  3.2912
  101OSM   H15B10112   5.812   0.165  11.374 -1.0676 -1.0176 -1.9071
  101OSM   H15C10113   5.845   0.312  11.278 -0.8986 -0.3421 -1.5492
  101OSM    C1410114   5.845  -0.017  11.214  0.5068  0.2326 -0.2222
  101OSM   H14A10115   5.941  -0.047  11.175  0.5649 -0.0534  0.1283
  101OSM   H14B10116   5.761  -0.076  11.181 -0.9906  1.5309  1.1128
  101OSM   H14C10117   5.859  -0.036  11.320 -0.8286 -0.0623 -0.0838
  101OSM    C1310118   5.674   0.138  11.142  0.3607  0.4955  0.2361
  101OSM   H13A10119   5.647   0.084  11.052 -0.8583  0.3276  0.6791
  101OSM   H13B10120   5.640   0.239  11.123 -0.5673  0.2312  0.4415
  101OSM   H13C10121   5.619   0.092  11.222  0.3749 -1.0411 -0.6001
  101OSM    C1210122   5.903   0.156  11.044  0.2453 -0.4044  0.0410
  101OSM   H12A10123   5.861   0.250  11.009  1.2980 -0.2936 -1.0058
  101OSM   H12B10124   5.892   0.079  10.968  1.2605  1.2103 -1.8434
  101OSM    C1110125   6.060   0.182  11.063  0.7325 -0.3901  0.1877
  101OSM   H11A10126   6.086   0.258  11.140 -1.3446  3.3376 -2.4604
  101OSM   H11B10127   6.088   0.229  10.966  1.3940 -0.3189  0.4086
  101OSM      P10128   6.145  -0.041  10.983 -0.0183  0.0119  0.2390
  101OSM    O1310129   6.257  -0.134  11.019  0.3978 -0.1240 -0.5451
  101OSM    O1410130   6.018  -0.104  10.940 -0.1929  0.5006  0.4812
  101OSM    O1110131   6.204   0.054  10.866 -0.1480  0.1645 -0.1131
  101OSM    O1210132   6.127   0.061  11.100 -0.2964 -0.5603 -0.2957
  101OSM    C1S10133   6.201   0.007  10.728  0.3839  0.2037  0.2983
  101OSM    H1S10134   6.094  -0.007  10.701  0.0562 -1.8757  2.3615
  101OSM    H1T10135   6.258  -0.088  10.720  1.1719  0.5599  1.3521
  101OSM     NF10136   6.281   0.065  10.503  0.1324 -0.1448 -0.1791
  101OSM    HNF10137   6.348  -0.001  10.473 -0.3227 -0.9408  0.5084
  101OSM    C2S10138   6.294   0.099  10.640 -0.2273  0.2191 -0.4297
  101OSM    H2S10139   6.262   0.205  10.653 -0.6466  0.0135  0.2293
  101OSM    C3S10140   6.442   0.100  10.700  0.1226 -0.0636  0.1379
  101OSM    H3S10141   6.480  -0.005  10.701 -0.3994 -0.2850 -1.1302
  101OSM     O310142   6.451   0.147  10.838  0.5102  0.7052 -0.3005
  101OSM    HO310143   6.361   0.134  10.869  0.5605  0.6487 -0.1758
  101OSM    C4S10144   6.531   0.177  10.607 -0.4569 -1.1879  0.2280
  101OSM    H4S10145   6.579   0.108  10.535  1.5253 -0.6521  0.9793
  101OSM    C5S10146   6.564   0.308  10.612 -0.4697  0.1840 -0.2122
  101OSM    H5S10147   6.506   0.366  10.685  0.2598 -0.9318  1.3186
  101OSM    C6S10148   6.659   0.387  10.525 -0.1076  0.0661  0.8883
  101OSM    H6S10149   6.758   0.376  10.575  0.7844 -2.0562 -1.1566
  101OSM    H6T10150   6.641   0.496  10.521 -1.1805 -0.1385 -0.4906
  101OSM    C7S10151   6.672   0.331  10.380 -0.2094 -0.3949  0.2539
  101OSM    H7S10152   6.576   0.298  10.335 -0.1974 -2.0636  1.3330
  101OSM    H7T10153   6.736   0.240  10.384 -0.6091 -0.6522  1.5020
  101OSM    C8S10154   6.738   0.444  10.291 -0.1541  1.0361  0.0018
  101OSM    H8S10155   6.843   0.474  10.313 -0.3608  1.0645  1.0044
  101OSM    H8T10156   6.673   0.534  10.294 -1.1487  0.3304  0.3337
  101OSM    C9S10157   6.747   0.403  10.143  0.5371 -0.3576 -0.7789
  101OSM    H9S10158   6.658   0.348  10.105 -0.2215 -0.5776  1.2207
  101OSM    H9T10159   6.829   0.330  10.124  0.4720 -0.8914  0.8723
  101OSM   C10S10160   6.773   0.532  10.053 -0.4928  0.1390  1.0710
  101OSM   H10S10161   6.852   0.591  10.105  2.0924 -0.9770 -1.3517
  101OSM   H10T10162   6.681   0.594  10.056  1.0574  2.5730  2.7782
  101OSM   C11S10163   6.818   0.487   9.908 -0.0137 -0.3588  0.4851
  101OSM   H11S10164   6.817   0.376   9.913 -1.2419 -0.5590 -2.4557
  101OSM   H11T10165   6.918   0.527   9.882  0.9950 -1.5665  2.2302
  101OSM   C12S10166   6.719   0.528   9.804 -0.4912 -0.2198  0.4736
  101OSM   H12S10167   6.704   0.638   9.801  0.6963 -0.0392  0.6938
  101OSM   H12T10168   6.619   0.481   9.818 -0.7561  0.2021  0.0107
  101OSM   C13S10169   6.756   0.485   9.654 -0.8299 -0.6553 -1.0228
  101OSM   H13S10170   6.753   0.379   9.621  0.9428 -1.0090 -0.1564
  101OSM   H13T10171   6.860   0.522   9.644 -0.3687 -1.4102  0.5701
  101OSM   C14S10172   6.669   0.569   9.560 -0.6814  0.7463 -0.9099
  101OSM   H14S10173   6.680   0.673   9.598 -1.9185  0.9032 -0.9277
  101OSM   H14T10174   6.564   0.532   9.562 -0.1055 -1.0798 -2.3251
  101OSM   C15S10175   6.712   0.559   9.415 -0.0962  0.6049 -0.0197
  101OSM   H15S10176   6.820   0.585   9.403 -0.5004  2.1418 -0.5946
  101OSM   H15T10177   6.662   0.643   9.362 -1.3113 -0.1249 -0.0737
  101OSM   C16S10178   6.695   0.428   9.331  0.5569  0.2659  0.6879
  101OSM   H16S10179   6.731   0.346   9.398  0.5565 -0.0456  0.3100
  101OSM   H16T10180   6.770   0.420   9.250  0.5880  0.2104  0.7216
  101OSM   C17S10181   6.558   0.392   9.281 -0.1695  0.4263 -0.1445
  101OSM   H17S10182   6.482   0.395   9.361 -0.1032  0.0273 -0.0610
  101OSM   H17T10183   6.544   0.288   9.244 -2.3588  1.3707 -2.2123
  101OSM   C18S10184   6.519   0.474   9.165  0.3399  0.5856 -0.3446
  101OSM   H18S10185   6.504   0.580   9.193 -1.0046  0.7714 -1.6453
  101OSM   H18T10186   6.426   0.431   9.121  0.1245  0.7022 -0.0066
  101OSM   H18U10187   6.598   0.477   9.087  0.1532 -0.5022 -0.5949
  101OSM    C1F10188   6.175   0.097  10.434  0.6738  0.3059  0.1251
  101OSM     OF10189   6.086   0.160  10.487  0.0055 -0.4286  0.0709
  101OSM    C2F10190   6.181   0.056  10.292 -0.3979 -0.0286 -0.4487
  101OSM    H2F10191   6.236  -0.040  10.280 -1.4404 -0.6652 -0.2991
  101OSM    H2G10192   6.243   0.140  10.255 -0.2241  0.3696  0.7192
  101OSM    C3F10193   6.049   0.027  10.225 -0.1045  0.1492 -0.8226
  101OSM    H3F10194   5.995   0.124  10.218 -0.9243 -0.3133 -1.0622
  101OSM    H3G10195   5.988  -0.046  10.284  0.2421 -0.1287 -0.8033
  101OSM    C4F10196   6.062  -0.023  10.082 -0.0131  0.1045  0.1052
  101OSM    H4F10197   5.959  -0.050  10.050 -0.7078  1.5463  1.0410
  101OSM    H4G10198   6.128  -0.112  10.091 -0.4805 -0.1397  1.1771
  101OSM    C5F10199   6.110   0.081   9.980 -0.4945  0.5898 -0.3010
  101OSM    H5F10200   6.208   0.119  10.016  0.3130 -1.9867  0.4500
  101OSM    H5G10201   6.040   0.166   9.974 -0.1436  0.8508 -0.8063
  101OSM    C6F10202   6.120   0.014   9.835 -0.3841 -0.4065  0.5924
  101OSM    H6F10203   6.157   0.096   9.770  0.1678 -1.1012  0.0138
  101OSM    H6G10204   6.204  -0.057   9.849  0.3081  0.6305  1.8156
  101OSM    C7F10205   6.002  -0.066   9.780 -0.0471 -0.2179  0.1248
  101OSM    H7F10206   5.916   0.004   9.778 -0.3872 -0.6460 -0.3813
  101OSM    H7G10207   5.982  -0.156   9.842 -0.2482 -0.1342  0.1812
  101OSM    C8F10208   6.011  -0.123   9.637 -0.0222 -0.8417 -0.8798
  101OSM    H8F10209   5.917  -0.180   9.619  0.3538 -2.7387  2.3908
  101OSM    H8G10210   6.095  -0.195   9.644  0.9825  0.4273  1.1785
  101OSM    C9F10211   6.030  -0.008   9.538 -0.3462 -0.0361 -0.0392
  101OSM    H9F10212   6.132   0.034   9.538 -0.0041 -0.8539  0.4029
  101OSM   C10F10213   5.944   0.027   9.442  0.5996 -0.4395  0.0329
  101OSM   H10F10214   5.966   0.112   9.375 -3.0149 -0.4419 -1.3850
  101OSM   C11F10215   5.810  -0.036   9.412 -0.0365  0.4749  0.2915
  101OSM   H11F10216   5.721   0.014   9.456 -1.8360 -0.8331 -1.6913
  101OSM   H11G10217   5.808  -0.146   9.427  0.9203  0.2744 -0.9357
  101OSM   C12F10218   5.782  -0.013   9.259  0.6306  0.2823 -0.2159
  101OSM   H12F10219   5.795   0.096   9.245  1.6906  0.7948  3.6110
  101OSM   H12G10220   5.675  -0.034   9.238 -0.0363  1.4838  1.7487
  101OSM   C13F10221   5.879  -0.098   9.171  0.3394 -0.3803  0.2143
  101OSM   H13F10222   5.861  -0.204   9.201  2.5610 -1.2632 -1.3340
  101OSM   H13G10223   5.986  -0.074   9.186  0.6451 -2.5499  2.1165
  101OSM   C14F10224   5.841  -0.092   9.019 -0.6548 -0.3555 -0.9201
  101OSM   H14F10225   5.824   0.013   8.986 -1.8070 -0.5918 -1.1076
  101OSM   H14G10226   5.745  -0.143   8.996  0.0128 -0.6316 -3.3806
  101OSM   C15F10227   5.950  -0.159   8.934  0.1188 -0.1677  0.2749
  101OSM   H15F10228   6.050  -0.111   8.944 -0.2977  0.8607 -0.3033
  101OSM   H15G10229   5.928  -0.148   8.826  2.4293 -0.5242 -0.2669
  101OSM   C16F10230   5.973  -0.311   8.968  0.4971  0.5738 -0.2566
  101OSM   H16F10231   5.996  -0.317   9.076  1.5700 -0.3135 -0.5202
  101OSM   H16G10232   6.068  -0.349   8.925  0.8259  0.2089  0.7784
  101OSM   C17F10233   5.863  -0.410   8.928  0.0280 -0.8236 -0.0991
  101OSM   H17F10234   5.766  -0.401   8.981  0.5518 -0.4293  0.8210
  101OSM   H17G10235   5.892  -0.511   8.962 -2.1543 -0.9833  1.4628
  101OSM   C18F10236   5.831  -0.411   8.783 -0.3761 -0.3355  0.1159
  101OSM   H18F10237   5.762  -0.493   8.756  0.0798 -1.2295  1.5713
  101OSM   H18G10238   5.922  -0.414   8.718 -1.5903  0.5914 -1.7127
  101OSM   H18H10239   5.779  -0.319   8.749  1.3739  0.8741  0.5288
  102OSM      N10240   1.334   1.128  10.553  0.3067  0.9901  0.2443
  102OSM    C1510241   1.241   1.241  10.526  0.5955 -0.3071 -0.0206
  102OSM   H15A10242   1.187   1.271  10.614 -0.0522  0.7597 -0.7517
  102OSM   H15B10243   1.184   1.229  10.435 -1.1454 -1.5792  1.1712
  102OSM   H15C10244   1.308   1.322  10.504  0.0343  0.1602 -0.0276
  102OSM    C1410245   1.245   1.006  10.585  0.3925  0.3095  0.4008
  102OSM   H14A10246   1.163   1.033  10.650  0.4734  2.7974 -0.4180
  102OSM   H14B10247   1.301   0.918  10.614  0.1891 -0.7406 -2.1781
  102OSM   H14C10248   1.215   0.974  10.486  0.2449  0.8160  0.2773
  102OSM    C1310249   1.408   1.103  10.424 -0.1794  0.0435 -1.0932
  102OSM   H13A10250   1.510   1.074  10.446 -1.1195 -1.1998  2.1824
  102OSM   H13B10251   1.413   1.198  10.372 -2.5792 -0.4961 -2.4704
  102OSM   H13C10252   1.357   1.032  10.360  1.8588 -0.8426 -1.8359
  102OSM    C1210253   1.434   1.158  10.659  0.1149 -0.1536 -0.0862
  102OSM   H12A10254   1.383   1.185  10.750 -0.6568  1.1347 -0.8707
  102OSM   H12B10255   1.482   1.252  10.635 -1.6126  0.9971  0.7913
  102OSM    C1110256   1.536   1.046  10.686 -0.6685 -0.2089 -0.3416
  102OSM   H11A10257   1.480   0.955  10.717  0.3624 -0.7408 -0.0015
  102OSM   H11B10258   1.587   1.061  10.784  0.1900  2.3155 -1.0869
  102OSM      P10259   1.749   1.114  10.566  0.4152 -0.2011  0.0204
  102OSM    O1310260   1.729   1.230  10.663 -0.5543  0.1697  0.6487
  102OSM    O1410261   1.879   1.044  10.568  0.2709 -0.1053  0.2648
  102OSM    O1110262   1.710   1.167  10.419 -0.4365  0.4074  0.6130
  102OSM    O1210263   1.629   1.009  10.578 -0.2732 -0.2147 -0.5347
  102OSM    C1S10264   1.762   1.093  10.306 -0.1372  0.0451 -0.1834
  102OSM    H1S10265   1.722   0.989  10.299  1.9425 -0.9281  1.4043
  102OSM    H1T10266   1.873   1.092  10.308 -0.1378  0.6495  0.7280
  102OSM     NF10267   1.793   1.081  10.060  0.2684  0.0224  0.7254
  102OSM    HNF10268   1.858   1.137  10.009  0.0889 -0.1413  0.3093
  102OSM    C2S10269   1.736   1.162  10.168 -0.1581 -0.6103 -0.5625
  102OSM    H2S10270   1.627   1.169  10.151 -0.1386 -1.2312 -0.9841
  102OSM    C3S10271   1.793   1.308  10.176 -0.7491 -0.1714 -0.0481
  102OSM    H3S10272   1.902   1.300  10.196 -0.0508 -0.5295 -3.4100
  102OSM     O310273   1.739   1.385  10.285  0.1984  0.0905  0.4272
  102OSM    HO310274   1.696   1.316  10.336  1.2221 -0.9401 -0.0618
  102OSM    C4S10275   1.773   1.385  10.045  0.0863 -0.6254  0.0044
  102OSM    H4S10276   1.670   1.400  10.009  0.9346  2.7760 -1.4251
  102OSM    C5S10277   1.870   1.433   9.965  0.1774 -0.1166  0.2913
  102OSM    H5S10278   1.974   1.419   9.996  0.5317  1.1748 -0.2884
  102OSM    C6S10279   1.851   1.497   9.831  0.6005 -0.7375 -0.3064
  102OSM    H6S10280   1.831   1.606   9.838  1.2829 -0.4147 -2.6055
  102OSM    H6T10281   1.764   1.446   9.786 -0.3614  0.9413 -0.4269
  102OSM    C7S10282   1.981   1.476   9.746 -0.4068 -0.2363  0.4063
  102OSM    H7S10283   2.019   1.374   9.765  0.2905 -0.7197 -3.0538
  102OSM    H7T10284   2.059   1.546   9.782  0.2069  0.2227 -1.6990
  102OSM    C8S10285   1.980   1.510   9.599  0.2009  0.0906 -0.0245
  102OSM    H8S10286   2.080   1.532   9.557  0.9938  0.4702  1.9709
  102OSM    H8T10287   1.930   1.609   9.597 -0.0777 -0.0520 -0.1979
  102OSM    C9S10288   1.903   1.399   9.523 -0.7139  0.3664 -0.5389
  102OSM    H9S10289   1.796   1.403   9.550 -0.4833  0.5154  0.3814
  102OSM    H9T10290   1.948   1.300   9.546 -1.1674 -0.9358 -4.5242
  102OSM   C10S10291   1.914   1.419   9.375 -0.2552  0.3840  0.1980
  102OSM   H10S10292   2.019   1.448   9.353 -0.4381  1.3901  0.6158
  102OSM   H10T10293   1.850   1.509   9.359 -1.4866 -0.7444 -1.6350
  102OSM   C11S10294   1.864   1.301   9.289 -0.3379 -0.1298  0.3524
  102OSM   H11S10295   1.771   1.255   9.329 -0.3714  0.9470  1.5511
  102OSM   H11T10296   1.945   1.226   9.299  0.6879  1.2381  3.6319
  102OSM   C12S10297   1.833   1.331   9.143 -0.0754  1.1638 -0.6005
  102OSM   H12S10298   1.782   1.429   9.141  0.1730  1.3380  0.7504
  102OSM   H12T10299   1.773   1.254   9.089 -2.4159  4.0615 -2.4361
  102OSM   C13S10300   1.955   1.365   9.054 -0.2169 -0.0001 -0.4483
  102OSM   H13S10301   2.015   1.274   9.033 -2.1390 -2.4616  3.5314
  102OSM   H13T10302   2.006   1.443   9.114 -0.8140 -1.4470  2.0461
  102OSM   C14S10303   1.918   1.434   8.925 -0.3255 -0.4654 -0.0095
  102OSM   H14S10304   2.003   1.485   8.875  0.6541 -0.1305  1.8872
  102OSM   H14T10305   1.844   1.517   8.936  0.8548  0.7333 -0.7916
  102OSM   C15S10306   1.841   1.332   8.832 -0.4675 -0.1215 -0.6978
  102OSM   H15S10307   1.741   1.310   8.876 -0.2635  2.0078  0.9965
  102OSM   H15T10308   1.902   1.239   8.837 -0.4132 -0.0255  1.0431
  102OSM   C16S10309   1.810   1.372   8.686 -0.2925  0.3142 -1.3995
  102OSM   H16S10310   1.756   1.288   8.637 -2.0733  1.0835 -0.8484
  102OSM   H16T10311   1.904   1.395   8.631  1.8678  0.7360  2.1178
  102OSM   C17S10312   1.711   1.491   8.686 -0.1700  0.3932 -1.0878
  102OSM   H17S10313   1.769   1.579   8.721  0.8667 -0.3800 -0.7904
  102OSM   H17T10314   1.630   1.469   8.759 -2.3109 -0.3787 -3.5333
  102OSM   C18S10315   1.646   1.508   8.550  0.0711  0.5031 -0.5085
  102OSM   H18S10316   1.712   1.551   8.472 -0.2835 -1.4929 -1.9662
  102OSM   H18T10317   1.563   1.583   8.554  0.4347  0.9386  3.3615
  102OSM   H18U10318   1.598   1.414   8.516  0.6159 -0.0135  0.1227
  102OSM    C1F10319   1.759   0.957  10.019 -0.3288 -0.8045 -0.4237
  102OSM     OF10320   1.676   0.886  10.075 -0.2818  0.3846  0.6347
  102OSM    C2F10321   1.809   0.910   9.891 -0.2456  0.2816 -0.1365
  102OSM    H2F10322   1.791   0.800   9.885  3.8150 -0.5879  0.5844
  102OSM    H2G10323   1.918   0.925   9.899  0.3132 -3.5051  1.7716
  102OSM    C3F10324   1.727   0.974   9.773 -0.2104 -0.3265 -0.1325
  102OSM    H3F10325   1.733   1.085   9.769 -1.1938 -0.2914 -0.9685
  102OSM    H3G10326   1.622   0.938   9.777 -0.4298  0.3889  0.8042
  102OSM    C4F10327   1.798   0.927   9.644 -0.0053  0.0278  0.2966
  102OSM    H4F10328   1.788   0.816   9.648 -3.1603  0.1654 -1.1685
  102OSM    H4G10329   1.907   0.948   9.635  0.0376 -0.3776 -0.1833
  102OSM    C5F10330   1.728   0.990   9.522 -0.6118 -1.0849  0.4961
  102OSM    H5F10331   1.738   1.101   9.521 -0.6694 -1.0656  1.2000
  102OSM    H5G10332   1.620   0.963   9.524 -0.7942 -0.3640  0.7845
  102OSM    C6F10333   1.788   0.944   9.385  0.4409 -0.0181  0.7801
  102OSM    H6F10334   1.899   0.956   9.382  0.3815  1.1632  2.1086
  102OSM    H6G10335   1.752   1.013   9.306 -1.1473  0.7234  2.1039
  102OSM    C7F10336   1.748   0.803   9.342 -0.0999 -0.4216  0.0132
  102OSM    H7F10337   1.638   0.793   9.359 -0.1966  1.4546  0.7125
  102OSM    H7G10338   1.796   0.734   9.415  0.5212  0.4529  0.4628
  102OSM    C8F10339   1.776   0.760   9.198  0.0075 -0.1007  0.0844
  102OSM    H8F10340   1.744   0.654   9.203  0.4268 -0.4979 -3.1205
  102OSM    H8G10341   1.885   0.768   9.176 -0.3263  1.5161 -1.2054
  102OSM    C9F10342   1.683   0.822   9.098 -0.2341 -1.2160 -0.0039
  102OSM    H9F10343   1.580   0.833   9.135 -0.6763 -1.9236 -0.9670
  102OSM   C10F10344   1.721   0.880   8.989  0.0965  1.1568  0.0891
  102OSM   H10F10345   1.635   0.911   8.927 -0.7940  0.2484  0.8453
  102OSM   C11F10346   1.858   0.880   8.922 -0.1818 -0.6965 -0.0252
  102OSM   H11F10347   1.932   0.827   8.986 -2.4651 -1.8489  1.8275
  102OSM   H11G10348   1.904   0.980   8.939  3.3912 -2.4248  1.4255
  102OSM   C12F10349   1.869   0.862   8.767  0.1687 -0.5823 -0.4831
  102OSM   H12F10350   1.863   0.754   8.746 -0.9737 -0.7428  0.5361
  102OSM   H12G10351   1.977   0.874   8.743 -0.0250  1.2098 -0.6295
  102OSM   C13F10352   1.776   0.948   8.679  0.2520  0.1050 -0.2350
  102OSM   H13F10353   1.824   0.960   8.579  1.2966 -2.0352 -0.0563
  102OSM   H13G10354   1.759   1.047   8.726  3.7609  0.7814 -0.1838
  102OSM   C14F10355   1.632   0.883   8.663 -0.1594  0.1028  0.2889
  102OSM   H14F10356   1.561   0.888   8.749 -0.3355  1.0717  0.1003
  102OSM   H14G10357   1.647   0.774   8.648 -2.5719 -0.1628 -0.6837
  102OSM   C15F10358   1.557   0.944   8.535  0.6177  0.3795  0.2753
  102OSM   H15F10359   1.585   1.050   8.520  0.6396  0.4928  1.0938
  102OSM   H15G10360   1.447   0.939   8.551  0.5657  1.4857  0.3516
  102OSM   C16F10361   1.588   0.857   8.410 -0.3800 -0.0042  0.6489
  102OSM   H16F10362   1.553   0.753   8.427 -1.1643  0.2938  0.8925
  102OSM   H16G10363   1.699   0.851   8.399 -0.1823  1.4053  1.5829
  102OSM   C17F10364   1.526   0.905   8.284 -0.1150  0.4548 -0.1452
  102OSM   H17F10365   1.423   0.936   8.312 -0.6034  0.8577 -2.2212
  102OSM   H17G10366   1.513   0.832   8.202 -0.7004  1.1949 -0.7244
  102OSM   C18F10367   1.597   1.027   8.232 -1.5803  0.0428  0.0061
  102OSM   H18F10368   1.695   0.989   8.196 -1.2157  1.6187 -0.7621
  102OSM   H18G10369   1.631   1.109   8.299 -1.3453 -1.4223  1.7460
  102OSM   H18H10370   1.533   1.076   8.155 -0.6526  0.1712 -0.7029
  103OSM      N10371   0.991   6.507  11.041 -0.2486 -0.3250 -0.1341
  103OSM    C1510372   0.947   6.553  11.183 -0.3364 -0.2464 -0.0042
  103OSM   H15A10373   0.862   6.618  11.169 -0.5864 -1.0254 -2.4925
  103OSM   H15B10374   1.023   6.607  11.237  1.0721  0.9605 -3.0163
  103OSM   H15C10375   0.931   6.472  11.253 -0.7616 -0.0409  0.1369
  103OSM    C1410376   1.033   6.625  10.957 -0.3420  0.1462  0.1326
  103OSM   H14A10377   1.136   6.651  10.977  0.4832 -2.5768 -0.2252
  103OSM   H14B10378   0.965   6.705  10.980 -0.5434  0.7386 -2.2396
  103OSM   H14C10379   1.021   6.590  10.855  2.8092  1.4739 -0.8139
  103OSM    C1310380   1.114   6.429  11.053  0.0362 -0.1625  0.0163
  103OSM   H13A10381   1.133   6.369  10.966  2.0643  0.3746  0.0366
  103OSM   H13B10382   1.127   6.358  11.134  1.0705  0.6207  0.5577
  103OSM   H13C10383   1.207   6.482  11.067  0.8830 -1.8943  1.4243
  103OSM    C1210384   0.879   6.427  10.968  0.4847 -0.0900  0.5265
  103OSM   H12A10385   0.808   6.502  10.935 -0.7669 -0.2772  2.6415
  103OSM   H12B10386   0.834   6.354  11.034  2.0072  0.7295  2.5675
  103OSM    C1110387   0.920   6.354  10.840  0.5887  0.3533  0.9622
  103OSM   H11A10388   0.972   6.429  10.776 -1.5178  0.9500 -0.1416
  103OSM   H11B10389   0.833   6.323  10.778  0.0552  0.1852  1.7757
  103OSM      P10390   0.996   6.104  10.790  0.0435  0.2859  0.1370
  103OSM    O1310391   1.131   6.061  10.763 -0.0196 -0.2230  0.2306
  103OSM    O1410392   0.924   6.018  10.885  0.6314 -0.4054 -0.1157
  103OSM    O1110393   0.916   6.132  10.659  0.2160 -0.0245  0.2708
  103OSM    O1210394   1.005   6.246  10.861 -0.0013  0.7846 -0.2537
  103OSM    C1S10395   0.983   6.194  10.543  0.2411 -0.8263 -0.4677
  103OSM    H1S10396   1.070   6.129  10.517  1.7515  1.4855 -1.5732
  103OSM    H1T10397   1.013   6.300  10.563 -2.9819 -0.1100  1.3697
  103OSM     NF10398   0.967   6.271  10.307 -0.1504 -0.0296  0.2921
  103OSM    HNF10399   0.946   6.366  10.289 -0.1032 -0.2532 -1.1503
  103OSM    C2S10400   0.898   6.201  10.413 -0.4525  0.3283  0.4992
  103OSM    H2S10401   0.884   6.094  10.388 -0.5533 -0.1956  2.5970
  103OSM    C3S10402   0.761   6.266  10.439 -0.0536  0.7644  0.1248
  103OSM    H3S10403   0.751   6.376  10.449  0.1361  0.8227 -0.2854
  103OSM     O310404   0.687   6.209  10.546  0.1463 -0.2909 -0.1411
  103OSM    HO310405   0.752   6.157  10.593  1.9803  0.5586 -1.5893
  103OSM    C4S10406   0.687   6.246  10.315 -0.7628  0.0112  0.6945
  103OSM    H4S10407   0.731   6.307  10.234  0.5891 -2.8221 -0.8328
  103OSM    C5S10408   0.594   6.155  10.272 -0.3635 -0.3333  0.2484
  103OSM    H5S10409   0.558   6.076  10.339 -0.4057 -0.6328 -0.1230
  103OSM    C6S10410   0.533   6.143  10.138 -0.4981  0.0552 -0.5740
  103OSM    H6S10411   0.423   6.137  10.149 -0.4214 -1.9789 -0.4745
  103OSM    H6T10412   0.576   6.050  10.095 -0.8415  0.4168 -1.7277
  103OSM    C7S10413   0.569   6.244  10.037 -0.2140  0.0199  0.6318
  103OSM    H7S10414   0.678   6.244  10.016 -0.4071  1.1641 -0.5270
  103OSM    H7T10415   0.544   6.349  10.063  0.5806  0.4418 -0.2537
  103OSM    C8S10416   0.493   6.215   9.902 -0.0834  0.6105 -0.2292
  103OSM    H8S10417   0.495   6.307   9.839 -1.2427  1.4653  0.9215
  103OSM    H8T10418   0.385   6.205   9.929 -0.0970  2.3843  0.5011
  103OSM    C9S10419   0.534   6.091   9.823 -0.3727 -0.0417 -0.7860
  103OSM    H9S10420   0.492   6.001   9.874 -0.4590  0.4716  0.0740
  103OSM    H9T10421   0.645   6.087   9.818 -0.2820  0.8553  0.0950
  103OSM   C10S10422   0.481   6.085   9.678 -0.1247 -0.5033  0.4413
  103OSM   H10S10423   0.453   6.180   9.627 -1.9459 -0.9216  0.5878
  103OSM   H10T10424   0.390   6.022   9.687 -0.1702 -0.1805  2.6481
  103OSM   C11S10425   0.592   6.022   9.595 -0.5091 -0.3754  0.7053
  103OSM   H11S10426   0.625   5.924   9.636 -0.1611  0.0172  1.3610
  103OSM   H11T10427   0.686   6.080   9.606 -0.1811 -1.2009  2.7210
  103OSM   C12S10428   0.564   5.989   9.445  0.5044 -0.3990 -0.5013
  103OSM   H12S10429   0.636   5.914   9.405 -1.4771 -3.0283  0.5589
  103OSM   H12T10430   0.575   6.084   9.388 -1.0761 -1.7009 -3.2122
  103OSM   C13S10431   0.427   5.925   9.406 -0.6370 -0.2209  0.2559
  103OSM   H13S10432   0.345   6.000   9.394 -0.1149  0.1381 -1.4667
  103OSM   H13T10433   0.407   5.864   9.496  0.8106 -0.9558  0.1084
  103OSM   C14S10434   0.455   5.839   9.273  0.0448 -0.0068  0.9751
  103OSM   H14S10435   0.354   5.805   9.244 -1.5781  3.4830  1.9499
  103OSM   H14T10436   0.519   5.753   9.302  1.7593  0.2474 -1.6893
  103OSM   C15S10437   0.514   5.909   9.153 -0.3450 -0.5119  0.0043
  103OSM   H15S10438   0.547   5.834   9.079  0.5673  0.3767 -0.5248
  103OSM   H15T10439   0.598   5.976   9.184 -1.8394  0.8075  1.4043
  103OSM   C16S10440   0.411   6.003   9.080 -0.3314  0.5730 -0.5116
  103OSM   H16S10441   0.479   6.065   9.018  1.8576 -1.7528 -0.5987
  103OSM   H16T10442   0.352   6.050   9.161  0.8353 -1.4609  1.6412
  103OSM   C17S10443   0.314   5.919   8.994  0.2542  0.6730  0.3580
  103OSM   H17S10444   0.222   5.976   8.971 -0.6347  0.3146  2.7865
  103OSM   H17T10445   0.278   5.831   9.050 -0.0386  1.6316  1.7069
  103OSM   C18S10446   0.377   5.865   8.860  0.1908 -0.7870  0.7692
  103OSM   H18S10447   0.301   5.800   8.811 -0.3286  0.2512  0.1609
  103OSM   H18T10448   0.469   5.804   8.867  2.1702  1.9041 -0.0797
  103OSM   H18U10449   0.402   5.949   8.792  1.5450 -0.7882  1.2489
  103OSM    C1F10450   1.076   6.219  10.247 -0.2492 -0.1591  0.3895
  103OSM     OF10451   1.106   6.101  10.253 -0.0127  0.2255  0.0919
  103OSM    C2F10452   1.154   6.309  10.157  0.0060 -0.2383  0.5725
  103OSM    H2F10453   1.256   6.273  10.183  0.5972  0.8509 -0.1548
  103OSM    H2G10454   1.150   6.416  10.185  1.0946 -0.2281  0.7384
  103OSM    C3F10455   1.119   6.282  10.002  0.1978 -0.6697 -0.6047
  103OSM    H3F10456   1.124   6.172   9.990  0.3783 -0.7584  0.2112
  103OSM    H3G10457   1.211   6.310   9.947  0.3089  0.3851  0.0818
  103OSM    C4F10458   0.988   6.354   9.948  0.4119  0.6317 -0.0992
  103OSM    H4F10459   0.984   6.460   9.982 -0.3719  0.1568  1.3757
  103OSM    H4G10460   0.907   6.302  10.004 -0.0784 -1.1553 -2.3561
  103OSM    C5F10461   0.971   6.346   9.795 -0.6031 -0.6876  0.4888
  103OSM    H5F10462   0.970   6.239   9.764 -0.7127  0.1721 -2.8368
  103OSM    H5G10463   1.056   6.409   9.760 -2.1270  2.8075  2.5202
  103OSM    C6F10464   0.852   6.421   9.737  0.4945 -0.8018 -0.1648
  103OSM    H6F10465   0.865   6.520   9.785  0.2001 -1.2345  0.8402
  103OSM    H6G10466   0.751   6.392   9.773 -0.4931  0.4166 -1.7980
  103OSM    C7F10467   0.854   6.439   9.585 -0.1225 -0.2861 -0.2661
  103OSM    H7F10468   0.958   6.458   9.551 -0.4724 -1.9013 -2.4231
  103OSM    H7G10469   0.786   6.524   9.562 -5.8734 -3.6751  2.0078
  103OSM    C8F10470   0.801   6.316   9.511  0.4128  0.1603 -0.0870
  103OSM    H8F10471   0.692   6.308   9.531  0.5488 -1.6217  0.0439
  103OSM    H8G10472   0.847   6.222   9.546 -1.2097  0.4434  3.1547
  103OSM    C9F10473   0.824   6.347   9.367  0.0735 -0.9467  0.7400
  103OSM    H9F10474   0.790   6.448   9.336 -1.0708 -1.1295  1.3173
  103OSM   C10F10475   0.891   6.281   9.275 -0.0694  0.2984 -0.3522
  103OSM   H10F10476   0.880   6.314   9.171  0.4181  0.9112 -0.2137
  103OSM   C11F10477   0.961   6.148   9.300  0.3965 -0.0056  0.0272
  103OSM   H11F10478   0.936   6.106   9.399  1.7460 -0.4776  0.1933
  103OSM   H11G10479   1.069   6.173   9.305  0.3901  0.7493 -2.3183
  103OSM   C12F10480   0.950   6.043   9.181 -0.2265 -0.3934 -0.4010
  103OSM   H12F10481   0.841   6.025   9.174 -0.0937 -0.9369 -1.1074
  103OSM   H12G10482   1.008   5.956   9.217 -0.5183 -0.9861 -1.3313
  103OSM   C13F10483   1.002   6.103   9.050 -0.1050  0.0590  0.2787
  103OSM   H13F10484   1.106   6.139   9.060  0.0843 -0.8403  2.1138
  103OSM   H13G10485   0.940   6.187   9.014 -0.8926 -1.3221 -1.7474
  103OSM   C14F10486   1.012   5.993   8.940 -0.3160 -0.2577  0.5629
  103OSM   H14F10487   0.921   5.930   8.932  1.0324 -2.1151 -0.8316
  103OSM   H14G10488   1.095   5.924   8.964  0.3561  0.1048 -0.6282
  103OSM   C15F10489   1.031   6.050   8.804 -0.5844 -0.4397  0.1697
  103OSM   H15F10490   0.935   6.097   8.773 -0.6007 -1.2724 -1.1162
  103OSM   H15G10491   1.036   5.968   8.730  3.0215  0.4744 -0.8042
  103OSM   C16F10492   1.161   6.136   8.783  0.6456  0.3686 -0.0921
  103OSM   H16F10493   1.247   6.094   8.840  1.8765  1.7748 -0.8556
  103OSM   H16G10494   1.153   6.239   8.823 -1.6417 -0.4122  1.7024
  103OSM   C17F10495   1.213   6.127   8.640 -0.3894 -0.2141 -0.2318
  103OSM   H17F10496   1.211   6.022   8.606 -1.6499  0.7632 -3.5095
  103OSM   H17G10497   1.319   6.162   8.646 -1.0714  1.8220  1.9536
  103OSM   C18F10498   1.144   6.226   8.554 -0.4998  0.2653  0.2190
  103OSM   H18F10499   1.150   6.327   8.600  0.1462 -0.6579  2.2871
  103OSM   H18G10500   1.037   6.198   8.551 -0.2319 -0.8717  0.6693
  103OSM   H18H10501   1.189   6.222   8.452  0.1760  1.9766  0.4220
  104OSM      N10502   2.844   6.166  11.095 -0.8217 -0.1408 -0.5740
  104OSM    C1510503   2.962   6.168  11.187 -0.1843 -0.2481  0.7651
  104OSM   H15A10504   3.037   6.102  11.146 -0.6102 -0.5225  0.4199
  104OSM   H15B10505   2.933   6.131  11.284 -0.8923 -0.0772  0.6257
  104OSM   H15C10506   3.014   6.263  11.193  0.1916 -0.4744  1.1957
  104OSM    C1410507   2.787   6.027  11.097 -0.2897  0.4023 -0.3284
  104OSM   H14A10508   2.711   6.014  11.022  1.7748  0.3922 -2.5486
  104OSM   H14B10509   2.760   6.006  11.200  0.9714  0.1661 -0.0317
  104OSM   H14C10510   2.867   5.958  11.072  0.8094  1.1067  1.1056
  104OSM    C1310511   2.739   6.257  11.142 -0.2606  0.2883 -0.7965
  104OSM   H13A10512   2.647   6.248  11.086 -1.2973  1.4473  0.6112
  104OSM   H13B10513   2.779   6.355  11.120  3.0748 -0.6341  0.4570
  104OSM   H13C10514   2.709   6.246  11.245  0.5141 -0.9427 -0.6870
  104OSM    C1210515   2.897   6.211  10.960  0.2459 -0.0172 -0.3161
  104OSM   H12A10516   2.832   6.161  10.889 -0.4178 -0.4987  0.6018
  104OSM   H12B10517   2.981   6.146  10.947 -1.3777 -2.4949  0.8404
  104OSM    C1110518   2.922   6.358  10.924  0.5702 -0.1247  1.0994
  104OSM   H11A10519   2.832   6.421  10.942 -0.9801 -0.5944 -3.5348
  104OSM   H11B10520   2.927   6.372  10.814 -2.3197 -0.0086  0.8967
  104OSM      P10521   3.171   6.371  10.947  0.2175 -0.0012  0.4055
  104OSM    O1310522   3.249   6.488  10.899  0.0807  0.1767  0.0091
  104OSM    O1410523   3.230   6.298  11.059 -0.1514 -0.2999 -0.5212
  104OSM    O1110524   3.154   6.266  10.829  0.1655  0.1057  0.0602
  104OSM    O1210525   3.029   6.421  10.986  0.3145  0.4103  0.3971
  104OSM    C1S10526   3.213   6.272  10.704  0.5275  0.1489 -0.3906
  104OSM    H1S10527   3.322   6.292  10.696  0.2428  1.5597 -1.2450
  104OSM    H1T10528   3.172   6.358  10.646  0.6034 -0.3198 -1.1568
  104OSM     NF10529   3.248   6.169  10.491  0.0651 -0.6884 -0.1631
  104OSM    HNF10530   3.195   6.208  10.416 -1.2015 -1.3399  0.3541
  104OSM    C2S10531   3.172   6.149  10.610  0.5865 -0.4670  0.6363
  104OSM    H2S10532   3.210   6.060  10.664  0.6210 -2.1177 -1.9486
  104OSM    C3S10533   3.017   6.144  10.594 -0.0743  0.0889 -0.5938
  104OSM    H3S10534   2.964   6.242  10.588 -0.1433  0.2064  1.3426
  104OSM     O310535   2.949   6.074  10.700 -0.3238 -0.2557  0.0906
  104OSM    HO310536   3.027   6.025  10.728  0.7615  0.4384 -1.5498
  104OSM    C4S10537   2.981   6.082  10.454 -0.0897  0.3019 -0.1442
  104OSM    H4S10538   2.972   6.156  10.374  1.1846  0.9646  0.2955
  104OSM    C5S10539   2.979   5.949  10.414  0.1052  0.1494 -0.4378
  104OSM    H5S10540   2.998   5.873  10.491 -0.4206  0.2635 -0.1915
  104OSM    C6S10541   2.966   5.893  10.274 -1.2698  0.0872  0.0385
  104OSM    H6S10542   2.873   5.833  10.263  0.4138 -2.9567  1.0859
  104OSM    H6T10543   3.044   5.815  10.258 -0.2489  0.9751  0.5777
  104OSM    C7S10544   2.981   5.992  10.152 -0.7755  0.0877  0.6493
  104OSM    H7S10545   3.069   6.059  10.165  0.8275 -1.8778  0.4767
  104OSM    H7T10546   2.891   6.056  10.148 -1.5611 -0.9292  1.4087
  104OSM    C8S10547   2.989   5.918  10.017 -0.3777  0.2887  0.1906
  104OSM    H8S10548   2.892   5.869   9.993 -0.5001  1.0335 -0.9241
  104OSM    H8T10549   3.067   5.839  10.020  1.3986  1.9875  1.0793
  104OSM    C9S10550   3.020   6.009   9.900 -0.7730  0.3293 -0.0753
  104OSM    H9S10551   3.120   6.057   9.905 -0.0323 -1.1300 -0.4160
  104OSM    H9T10552   2.952   6.097   9.896 -1.5322 -0.2760 -0.9695
  104OSM   C10S10553   3.026   5.930   9.768 -0.2565  0.0957 -0.3605
  104OSM   H10S10554   2.933   5.868   9.762 -2.1075  2.4227  1.9527
  104OSM   H10T10555   3.110   5.857   9.765 -1.5530 -1.5134  0.4989
  104OSM   C11S10556   3.037   6.028   9.652 -0.0650  0.3191 -0.1179
  104OSM   H11S10557   3.129   6.087   9.668 -0.4980  1.2738 -1.0044
  104OSM   H11T10558   2.945   6.090   9.643  0.3862  1.1940  1.1554
  104OSM   C12S10559   3.053   5.948   9.519 -0.2072 -0.0009 -0.7447
  104OSM   H12S10560   2.970   5.876   9.510  0.5291 -0.8233 -1.1655
  104OSM   H12T10561   3.149   5.892   9.523 -0.7174 -0.9944 -1.8408
  104OSM   C13S10562   3.043   6.042   9.396 -1.1884  0.5665  0.1986
  104OSM   H13S10563   3.135   6.105   9.393 -2.0303  2.0056  2.2257
  104OSM   H13T10564   2.964   6.118   9.413 -0.4380  1.5171 -0.4268
  104OSM   C14S10565   3.009   5.960   9.269 -0.3962  0.0034 -0.6580
  104OSM   H14S10566   3.082   5.876   9.272 -0.3193  0.0137  2.9348
  104OSM   H14T10567   3.035   6.012   9.175 -0.5663 -2.2312 -2.0237
  104OSM   C15S10568   2.863   5.921   9.258  0.3742  0.1469  0.2607
  104OSM   H15S10569   2.821   5.865   9.344  2.3607 -2.7639 -0.4901
  104OSM   H15T10570   2.857   5.842   9.180 -1.3089 -1.6769  2.1056
  104OSM   C16S10571   2.772   6.030   9.204  0.3110  0.3294  1.2371
  104OSM   H16S10572   2.810   6.066   9.107 -1.2462  0.2712  0.5755
  104OSM   H16T10573   2.760   6.115   9.274 -0.9483  1.0538  0.1787
  104OSM   C17S10574   2.625   5.976   9.178 -0.3942  0.3217  0.6692
  104OSM   H17S10575   2.599   5.907   9.261  0.5320  0.0245  0.7240
  104OSM   H17T10576   2.641   5.907   9.092  0.8568  0.1804  0.9838
  104OSM   C18S10577   2.527   6.079   9.142 -0.4980  0.2354 -0.0682
  104OSM   H18S10578   2.548   6.115   9.039 -0.0335 -1.1806 -0.4913
  104OSM   H18T10579   2.539   6.166   9.211 -0.7044  0.4295 -0.2749
  104OSM   H18U10580   2.419   6.055   9.132  0.0931 -1.9824 -1.8694
  104OSM    C1F10581   3.374   6.146  10.484 -0.4058  0.4506  0.7653
  104OSM     OF10582   3.435   6.116  10.582 -0.2072  0.1902 -0.3434
  104OSM    C2F10583   3.437   6.141  10.348  0.0071 -0.0251 -0.5818
  104OSM    H2F10584   3.518   6.217  10.342  0.3836 -0.3586  0.2811
  104OSM    H2G10585   3.359   6.177  10.276  0.0642 -0.2204 -0.7431
  104OSM    C3F10586   3.478   6.001  10.304  0.4809  0.3004 -0.2247
  104OSM    H3F10587   3.383   5.944  10.302  0.4332  0.3922 -1.8764
  104OSM    H3G10588   3.551   5.952  10.371  0.7709 -0.3467 -1.0061
  104OSM    C4F10589   3.533   5.991  10.164  0.0480  0.1222  0.3249
  104OSM    H4F10590   3.590   5.895  10.164 -0.0744 -0.0022  2.3166
  104OSM    H4G10591   3.623   6.053  10.141  2.2472 -3.6317 -2.2750
  104OSM    C5F10592   3.433   6.005  10.048 -0.2845 -0.1058  0.3877
  104OSM    H5F10593   3.387   6.105  10.058 -1.5989 -0.5494 -0.9414
  104OSM    H5G10594   3.359   5.923  10.044 -1.1649  0.7346 -1.3171
  104OSM    C6F10595   3.505   6.000   9.913  0.1316  0.7724 -0.6622
  104OSM    H6F10596   3.573   5.912   9.922  1.1010  1.6314  0.8688
  104OSM    H6G10597   3.568   6.089   9.894 -0.1797  0.8511 -1.3496
  104OSM    C7F10598   3.405   5.981   9.799 -0.1058  0.1960  0.7221
  104OSM    H7F10599   3.336   6.068   9.796 -1.8677 -1.1286  0.7647
  104OSM    H7G10600   3.347   5.894   9.837 -0.2840 -0.6318 -1.3179
  104OSM    C8F10601   3.482   5.952   9.673  0.6882 -0.5937 -0.7977
  104OSM    H8F10602   3.404   5.908   9.606 -0.6131  0.3129  0.0853
  104OSM    H8G10603   3.565   5.881   9.694  0.6327 -0.3218  0.3628
  104OSM    C9F10604   3.537   6.080   9.622  0.1637 -0.3407 -0.2680
  104OSM    H9F10605   3.591   6.149   9.689  0.2570  0.3394 -1.0327
  104OSM   C10F10606   3.523   6.119   9.493 -1.0321 -0.3971  0.4879
  104OSM   H10F10607   3.556   6.220   9.464  2.5569 -1.3922  0.6711
  104OSM   C11F10608   3.441   6.036   9.391  0.0870  0.4259  0.5370
  104OSM   H11F10609   3.333   6.036   9.416  0.2345 -0.8426  1.2702
  104OSM   H11G10610   3.471   5.930   9.401  1.2117  0.6910  0.1152
  104OSM   C12F10611   3.471   6.081   9.240 -0.3678  0.6800 -0.5465
  104OSM   H12F10612   3.579   6.057   9.231  0.1358  1.3865  2.4852
  104OSM   H12G10613   3.458   6.191   9.234  0.4064  1.1894  3.5434
  104OSM   C13F10614   3.397   5.985   9.144  0.8928 -0.1385  0.0118
  104OSM   H13F10615   3.290   5.987   9.175  0.2939  2.3365 -1.9123
  104OSM   H13G10616   3.441   5.883   9.147  1.3859 -0.0930 -3.0924
  104OSM   C14F10617   3.412   6.024   9.001 -0.2947  0.1763  0.0629
  104OSM   H14F10618   3.345   5.956   8.944  0.8567 -1.0182  0.0850
  104OSM   H14G10619   3.506   5.991   8.951 -0.9455 -1.3503 -0.2384
  104OSM   C15F10620   3.378   6.174   8.970 -0.1024  0.1549  0.2071
  104OSM   H15F10621   3.458   6.237   9.014 -0.0353  0.4832 -0.3643
  104OSM   H15G10622   3.278   6.201   9.012 -0.7594 -2.0730  0.2128
  104OSM   C16F10623   3.374   6.196   8.814  0.2096  0.4622  0.1034
  104OSM   H16F10624   3.280   6.145   8.785 -1.2141  1.0270  3.2689
  104OSM   H16G10625   3.448   6.128   8.768  0.0515  0.9039 -0.8236
  104OSM   C17F10626   3.377   6.340   8.777  1.1603 -0.4053 -0.2272
  104OSM   H17F10627   3.473   6.396   8.782  0.2577  1.1344  1.5504
  104OSM   H17G10628   3.315   6.398   8.850  0.5583 -0.2174 -0.8708
  104OSM   C18F10629   3.312   6.383   8.637 -0.2635 -0.1790  1.0866
  104OSM   H18F10630   3.291   6.492   8.632 -1.0411 -0.2623  2.1501
  104OSM   H18G10631   3.222   6.324   8.611 -1.3619  1.3266  1.3422
  104OSM   H18H10632   3.384   6.361   8.555  0.1900  0.7388  1.2310
  105OSM      N10633   6.432   0.509  10.995 -0.0539 -0.3074  0.1669
  105OSM    C1510634   6.404   0.521  11.144  0.0845  0.0445  0.0085
  105OSM   H15A10635   6.397   0.424  11.191 -1.1565  1.1825  2.3730
  105OSM   H15B10636   6.305   0.565  11.145 -0.4624 -1.1520 -0.0067
  105OSM   H15C10637   6.484   0.581  11.185  1.2109  0.8993 -3.1373
  105OSM    C1410638   6.548   0.420  10.967 -0.1896 -0.4115  0.5708
  105OSM   H14A10639   6.642   0.466  10.997 -0.8772  0.2259  1.8403
  105OSM   H14B10640   6.571   0.404  10.863  0.2965  0.6986  0.4864
  105OSM   H14C10641   6.543   0.327  11.021 -0.3342  0.3644  1.9428
  105OSM    C1310642   6.306   0.465  10.939 -0.3692 -0.2057  0.2675
  105OSM   H13A10643   6.272   0.371  10.978  0.7956 -0.3093  1.0638
  105OSM   H13B10644   6.313   0.444  10.833  0.0663  0.8983  0.0622
  105OSM   H13C10645   6.224   0.533  10.957  0.3755  0.1324  2.6543
  105OSM    C1210646   6.455   0.651  10.938 -0.6071 -0.3109 -0.0480
  105OSM   H12A10647   6.540   0.696  10.987  0.5608 -2.8492  0.4475
  105OSM   H12B10648   6.364   0.707  10.954 -0.5820 -0.2618 -0.0781
  105OSM    C1110649   6.492   0.662  10.789 -0.2861 -0.6705 -0.2509
  105OSM   H11A10650   6.480   0.769  10.759  0.6580 -0.7066 -0.8103
  105OSM   H11B10651   6.415   0.605  10.734 -0.0859 -2.8749  1.5797
  105OSM      P10652   6.753   0.693  10.771  0.4360  0.3380 -0.1648
  105OSM    O1310653   6.753   0.758  10.904 -0.0061  0.1055 -0.1675
  105OSM    O1410654   6.872   0.613  10.727 -0.5309  0.0114 -1.0954
  105OSM    O1110655   6.732   0.806  10.661 -0.5840 -0.0417 -0.0895
  105OSM    O1210656   6.622   0.610  10.759  0.1377  0.2440 -0.3807
  105OSM    C1S10657   6.843   0.854  10.576  0.2513 -0.2064 -0.5534
  105OSM    H1S10658   6.943   0.816  10.607  0.0160  0.4485  1.0982
  105OSM    H1T10659   6.852   0.965  10.581  3.6531 -0.3644 -1.0571
  105OSM     NF10660   6.913   0.868  10.352 -0.3418 -0.5316 -0.1687
  105OSM    HNF10661   6.901   0.960  10.317  3.5283  0.3720  0.4237
  105OSM    C2S10662   6.802   0.825  10.428  0.6624 -0.6649 -0.0306
  105OSM    H2S10663   6.806   0.714  10.420  2.2953 -0.7610  1.4683
  105OSM    C3S10664   6.663   0.889  10.396  0.3208  0.1367  0.3474
  105OSM    H3S10665   6.658   0.989  10.445 -1.5210  0.9106 -1.2868
  105OSM     O310666   6.555   0.825  10.464 -0.7297 -0.3509 -0.1750
  105OSM    HO310667   6.592   0.762  10.526  1.3726  0.0453 -0.9283
  105OSM    C4S10668   6.640   0.904  10.243 -0.3837  0.0857 -0.0431
  105OSM    H4S10669   6.713   0.978  10.206 -1.6664 -0.7240 -4.9021
  105OSM    C5S10670   6.546   0.845  10.163 -0.8134 -0.0474  0.3349
  105OSM    H5S10671   6.475   0.770  10.201  1.2407 -2.4986 -0.3575
  105OSM    C6S10672   6.538   0.864  10.019 -0.5250  0.4362 -0.0079
  105OSM    H6S10673   6.434   0.902  10.006 -1.8485 -1.7263  3.0575
  105OSM    H6T10674   6.538   0.766   9.966 -2.3997 -0.3282  1.2864
  105OSM    C7S10675   6.632   0.961   9.948 -0.4981 -0.0991 -0.1100
  105OSM    H7S10676   6.737   0.923   9.947 -0.2399  0.6094 -0.5327
  105OSM    H7T10677   6.627   1.063   9.990 -1.7869  0.0958 -0.6815
  105OSM    C8S10678   6.599   0.972   9.799 -0.4817 -0.6003  1.0796
  105OSM    H8S10679   6.498   1.014   9.780 -0.1352  0.1583  0.8613
  105OSM    H8T10680   6.594   0.874   9.748 -3.0566 -0.0077  0.0323
  105OSM    C9S10681   6.707   1.059   9.721 -0.1124  0.5041  0.2163
  105OSM    H9S10682   6.808   1.012   9.727 -1.1348 -1.6577  1.8590
  105OSM    H9T10683   6.716   1.151   9.783  3.5430  0.6563 -0.2958
  105OSM   C10S10684   6.669   1.086   9.574  0.0600  0.4166  0.2147
  105OSM   H10S10685   6.713   1.185   9.548 -0.2652  1.6917  3.8605
  105OSM   H10T10686   6.559   1.098   9.567  0.0176  0.6388  1.1341
  105OSM   C11S10687   6.734   0.984   9.483  0.6159  0.3185  0.3737
  105OSM   H11S10688   6.686   0.886   9.505  4.7926 -2.0447  0.0981
  105OSM   H11T10689   6.840   0.960   9.506  0.4802  1.2271  2.1229
  105OSM   C12S10690   6.714   1.017   9.340 -0.0977 -0.3400  0.7867
  105OSM   H12S10691   6.748   1.121   9.326 -0.5473 -0.5893 -3.5750
  105OSM   H12T10692   6.605   1.000   9.325  0.0534  0.4282 -1.5886
  105OSM   C13S10693   6.788   0.920   9.247  0.5350 -0.0247 -0.1271
  105OSM   H13S10694   6.799   0.829   9.311  0.5936  0.7689  1.0197
  105OSM   H13T10695   6.893   0.952   9.233  0.6298 -0.4258 -0.3626
  105OSM   C14S10696   6.717   0.909   9.110 -0.0422 -0.6831  0.3115
  105OSM   H14S10697   6.732   1.006   9.058 -0.9427 -1.2999 -1.1498
  105OSM   H14T10698   6.608   0.888   9.116 -0.3161 -0.0402 -1.6371
  105OSM   C15S10699   6.767   0.792   9.029  0.1198  0.1285  0.4655
  105OSM   H15S10700   6.735   0.703   9.087 -0.1229  0.6025  1.0584
  105OSM   H15T10701   6.878   0.788   9.020  0.3670  3.3653  1.0273
  105OSM   C16S10702   6.703   0.776   8.882 -0.3362  0.1245 -0.3853
  105OSM   H16S10703   6.604   0.726   8.890 -0.8311  1.0960 -0.2425
  105OSM   H16T10704   6.772   0.705   8.832 -0.1534 -1.3270  1.7886
  105OSM   C17S10705   6.685   0.903   8.793 -0.5606  0.5677 -0.0887
  105OSM   H17S10706   6.786   0.927   8.753 -0.1715 -0.2762  0.3628
  105OSM   H17T10707   6.648   0.987   8.855  0.9613  1.2743 -0.0864
  105OSM   C18S10708   6.592   0.874   8.685 -0.5580  0.2566 -0.2417
  105OSM   H18S10709   6.490   0.867   8.730 -0.5593  0.6786 -0.1798
  105OSM   H18T10710   6.611   0.775   8.638 -1.7685  0.0341 -0.3060
  105OSM   H18U10711   6.598   0.954   8.609  2.3238 -0.4797 -0.8963
  105OSM    C1F10712   7.029   0.803  10.337 -0.6426  0.1239  0.7439
  105OSM     OF10713   7.046   0.690  10.375  0.0326  0.2638  0.1474
  105OSM    C2F10714   7.143   0.883  10.286 -0.2774  0.3344  0.1423
  105OSM    H2F10715   7.229   0.864  10.354 -1.6018  1.2048  2.1537
  105OSM    H2G10716   7.120   0.991  10.300 -0.7819  0.1787  0.5742
  105OSM    C3F10717   7.185   0.841  10.145 -0.3376  0.6033 -0.6900
  105OSM    H3F10718   7.229   0.739  10.151 -2.3374 -0.2953 -0.7626
  105OSM    H3G10719   7.269   0.905  10.110  1.1886 -1.6426 -1.3890
  105OSM    C4F10720   7.077   0.836  10.037 -0.7440 -0.0237 -0.2523
  105OSM    H4F10721   7.032   0.936  10.021  0.3484  0.6590  0.7965
  105OSM    H4G10722   7.001   0.762  10.069 -1.0665  1.4617  2.8079
  105OSM    C5F10723   7.134   0.791   9.905  0.2994  0.1662  0.5142
  105OSM    H5F10724   7.159   0.684   9.921 -1.1751 -0.2835 -0.0202
  105OSM    H5G10725   7.232   0.842   9.898  0.4388 -0.2380 -0.7503
  105OSM    C6F10726   7.039   0.811   9.789  0.7624 -0.2613  0.3660
  105OSM    H6F10727   6.980   0.905   9.798 -0.0056 -0.6642 -0.3610
  105OSM    H6G10728   6.978   0.721   9.766  0.6190  0.4332 -2.1806
  105OSM    C7F10729   7.118   0.844   9.657  0.0557 -0.1767  0.9598
  105OSM    H7F10730   7.054   0.804   9.576  0.1472  1.4201  0.0513
  105OSM    H7G10731   7.211   0.783   9.658 -0.0433 -0.3553  0.0994
  105OSM    C8F10732   7.154   0.994   9.636 -0.2379  0.0784 -0.0831
  105OSM    H8F10733   7.154   1.039   9.737 -3.0269 -0.7173  0.3593
  105OSM    H8G10734   7.078   1.057   9.585 -1.3812  0.0981  1.5778
  105OSM    C9F10735   7.288   1.002   9.570  0.4505  0.2148 -0.0954
  105OSM    H9F10736   7.365   1.027   9.644  0.5100  0.0717 -0.1098
  105OSM   C10F10737   7.312   0.993   9.442 -0.1318 -0.7633  0.4386
  105OSM   H10F10738   7.416   0.998   9.407 -0.7407  0.9688 -1.3678
  105OSM   C11F10739   7.202   0.959   9.336  0.1842 -0.1380  0.0493
  105OSM   H11F10740   7.143   1.052   9.320  0.5609 -0.2783 -2.4912
  105OSM   H11G10741   7.141   0.868   9.359 -0.1625 -0.3020 -1.4294
  105OSM   C12F10742   7.265   0.954   9.193  0.9200  0.1987  0.3598
  105OSM   H12F10743   7.316   0.856   9.183  0.6098  0.1003 -0.3257
  105OSM   H12G10744   7.332   1.042   9.187  0.5519  0.4050 -1.1112
  105OSM   C13F10745   7.156   0.958   9.080 -0.6101 -0.5558  0.1451
  105OSM   H13F10746   7.117   1.061   9.072 -0.1163 -0.4910 -2.5134
  105OSM   H13G10747   7.060   0.906   9.104 -2.1503  0.9132 -2.4330
  105OSM   C14F10748   7.201   0.917   8.938 -0.1864 -0.0575 -0.2320
  105OSM   H14F10749   7.242   0.813   8.938  1.6684  0.4875  3.4674
  105OSM   H14G10750   7.292   0.978   8.920  0.5001 -1.6313 -2.4560
  105OSM   C15F10751   7.089   0.934   8.827 -0.3087 -0.1708  0.6690
  105OSM   H15F10752   7.049   1.037   8.826  1.3072  0.5249 -1.9525
  105OSM   H15G10753   7.007   0.859   8.834  1.8606 -2.7051  0.7151
  105OSM   C16F10754   7.150   0.914   8.687 -0.3919 -0.4909 -0.5418
  105OSM   H16F10755   7.253   0.953   8.693 -0.7370  0.3822 -0.1740
  105OSM   H16G10756   7.098   0.980   8.615  0.3051  0.0139 -0.5903
  105OSM   C17F10757   7.143   0.773   8.645  0.3176 -0.0896 -0.2735
  105OSM   H17F10758   7.038   0.736   8.651  0.5917 -0.6843  1.0819
  105OSM   H17G10759   7.198   0.710   8.718 -2.4301 -4.4656 -1.6215
  105OSM   C18F10760   7.208   0.741   8.509  0.5603  0.1543 -0.6866
  105OSM   H18F10761   7.202   0.633   8.484  0.1687 -0.1192  0.5013
  105OSM   H18G10762   7.316   0.766   8.518  0.6007  0.5427 -2.0614
  105OSM   H18H10763   7.163   0.792   8.421  1.6730  0.4957 -1.0669
  106OSM      N10764   3.525   1.374  11.019  0.3619  0.3929  0.8386
  106OSM    C1510765   3.507   1.385  10.874  0.0854  0.3536 -1.0008
  106OSM   H15A10766   3.557   1.299  10.832  1.2182  0.6577 -0.3269
  106OSM   H15B10767   3.553   1.462  10.814 -0.9653  0.6664 -1.4211
  106OSM   H15C10768   3.402   1.384  10.849 -0.7417 -0.5758  2.1218
  106OSM    C1410769   3.671   1.360  11.048 -0.1077 -0.6273  0.0498
  106OSM   H14A10770   3.719   1.276  11.000  1.3020 -0.2261  0.7216
  106OSM   H14B10771   3.698   1.341  11.150  2.6735  0.5097 -0.3774
  106OSM   H14C10772   3.730   1.446  11.019  0.5588 -0.7307  1.0801
  106OSM    C1310773   3.472   1.498  11.083 -0.3916 -0.5770 -0.3335
  106OSM   H13A10774   3.490   1.496  11.190 -0.7673 -0.2845 -0.2632
  106OSM   H13B10775   3.367   1.516  11.066 -0.5938 -1.8275 -0.4786
  106OSM   H13C10776   3.532   1.584  11.058  0.5351 -1.1567 -0.1435
  106OSM    C1210777   3.444   1.254  11.064 -0.3527 -0.3387  0.5000
  106OSM   H12A10778   3.460   1.260  11.170  0.1681  0.8518  0.3749
  106OSM   H12B10779   3.492   1.163  11.034 -0.5708 -0.4216  0.4015
  106OSM    C1110780   3.295   1.233  11.031  0.1916  0.7327 -0.7777
  106OSM   H11A10781   3.237   1.325  11.053 -1.1012  0.1936 -1.8341
  106OSM   H11B10782   3.243   1.170  11.106  1.2599  0.3120 -0.3719
  106OSM      P10783   3.307   1.066  10.845  0.3305 -0.4640  0.0632
  106OSM    O1310784   3.437   1.030  10.894  0.1859 -0.0593  0.2049
  106OSM    O1410785   3.190   0.978  10.872 -0.7955  0.1852 -0.0375
  106OSM    O1110786   3.299   1.073  10.683  0.1026 -0.3257 -0.4799
  106OSM    O1210787   3.268   1.209  10.894  0.1234 -0.2879  0.2819
  106OSM    C1S10788   3.181   1.114  10.614 -0.0532  0.2462  0.1762
  106OSM    H1S10789   3.145   1.216  10.638 -1.6394 -0.3001  0.2115
  106OSM    H1T10790   3.094   1.052  10.645 -0.4458 -0.3477 -1.9683
  106OSM     NF10791   3.116   1.203  10.387 -0.0082  0.3306 -0.0284
  106OSM    HNF10792   3.057   1.150  10.327  0.5655 -0.6497  0.2518
  106OSM    C2S10793   3.211   1.121  10.458 -0.3626  0.6770 -0.0726
  106OSM    H2S10794   3.309   1.173  10.457  0.3015 -0.4981  0.7596
  106OSM    C3S10795   3.235   0.973  10.407 -0.0702  0.5584 -0.6481
  106OSM    H3S10796   3.138   0.919  10.405  0.5208 -0.5427 -0.4712
  106OSM     O310797   3.321   0.895  10.487 -0.1094 -0.2227  0.2070
  106OSM    HO310798   3.331   0.940  10.571 -1.2465 -0.7591  0.6575
  106OSM    C4S10799   3.285   0.979  10.269  0.2978 -1.4220 -0.1014
  106OSM    H4S10800   3.381   1.032  10.266  0.2037 -1.2165  0.3311
  106OSM    C5S10801   3.226   0.947  10.154  0.1052  0.3664 -0.0283
  106OSM    H5S10802   3.126   0.902  10.151 -0.3868  1.4190  0.3113
  106OSM    C6S10803   3.292   0.985  10.028  0.2055  0.0704 -0.0207
  106OSM    H6S10804   3.402   0.974  10.041 -0.0049 -0.8478  1.1535
  106OSM    H6T10805   3.295   1.089   9.989  2.6604 -1.1594 -3.6771
  106OSM    C7S10806   3.228   0.901   9.918 -0.3054 -0.5281 -0.5076
  106OSM    H7S10807   3.118   0.890   9.929 -0.3169 -0.2678 -0.3503
  106OSM    H7T10808   3.274   0.800   9.922  1.9156  0.3877 -1.3168
  106OSM    C8S10809   3.262   0.964   9.783 -0.7260  0.7660 -0.6254
  106OSM    H8S10810   3.368   0.948   9.754  0.7263  3.6876  2.4861
  106OSM    H8T10811   3.238   1.072   9.785  1.5613  1.3244 -0.6908
  106OSM    C9S10812   3.185   0.896   9.673  0.3226  0.4866  0.0125
  106OSM    H9S10813   3.085   0.944   9.678  0.6003  0.9746  1.1472
  106OSM    H9T10814   3.175   0.787   9.690 -1.9310  0.8145  1.2418
  106OSM   C10S10815   3.253   0.924   9.537  0.4901  0.4244  0.4184
  106OSM   H10S10816   3.364   0.922   9.541  0.5472 -0.5953 -1.1288
  106OSM   H10T10817   3.216   1.028   9.523  0.3633  0.3589  0.2695
  106OSM   C11S10818   3.220   0.840   9.413 -0.4401  0.1696 -0.2707
  106OSM   H11S10819   3.110   0.821   9.405 -0.1250 -2.0301  0.0869
  106OSM   H11T10820   3.275   0.744   9.418  0.8141  0.8782  0.0547
  106OSM   C12S10821   3.273   0.904   9.283  0.3324 -0.1043  0.1027
  106OSM   H12S10822   3.377   0.941   9.298  0.9941 -2.5546  2.3462
  106OSM   H12T10823   3.204   0.990   9.266  0.5179  0.0409  0.0766
  106OSM   C13S10824   3.252   0.810   9.163  0.3034 -0.1197 -0.3285
  106OSM   H13S10825   3.142   0.792   9.158 -0.0785  1.7583  0.4987
  106OSM   H13T10826   3.293   0.708   9.179  2.9207  0.7432 -1.0865
  106OSM   C14S10827   3.290   0.877   9.035 -0.8607  0.3159 -0.1306
  106OSM   H14S10828   3.235   0.973   9.024  1.0830  1.3930 -0.8656
  106OSM   H14T10829   3.263   0.805   8.955 -0.6144  1.2173 -1.0322
  106OSM   C15S10830   3.444   0.897   9.018  0.3507  0.0035 -0.4877
  106OSM   H15S10831   3.484   0.798   9.047  0.0891  1.0269  4.3315
  106OSM   H15T10832   3.479   0.952   9.109  0.8277  0.3808 -0.8942
  106OSM   C16S10833   3.471   0.952   8.877 -0.1571  0.2109 -0.4759
  106OSM   H16S10834   3.426   1.053   8.872  0.7215  0.6991  0.8179
  106OSM   H16T10835   3.405   0.893   8.810 -0.7251 -1.7365  1.6593
  106OSM   C17S10836   3.618   0.944   8.839  0.0139 -0.0845 -0.2371
  106OSM   H17S10837   3.662   0.849   8.876 -0.0639  0.5430  1.5760
  106OSM   H17T10838   3.682   1.020   8.888 -0.2735  0.0955 -0.1362
  106OSM   C18S10839   3.642   0.963   8.690  0.4375 -0.2104 -0.2592
  106OSM   H18S10840   3.749   0.954   8.660  0.1965 -2.2853 -0.6520
  106OSM   H18T10841   3.618   1.068   8.664 -0.0938 -0.2697 -0.0150
  106OSM   H18U10842   3.581   0.896   8.626 -2.1184  0.1121  1.7171
  106OSM    C1F10843   3.104   1.336  10.403  0.0418  0.4043  0.3777
  106OSM     OF10844   3.186   1.392  10.478 -0.5219 -0.2813 -0.3477
  106OSM    C2F10845   2.999   1.410  10.325  0.3535 -0.7036 -0.2676
  106OSM    H2F10846   2.973   1.505  10.376 -0.9812  0.3331 -2.7161
  106OSM    H2G10847   2.916   1.336  10.329  1.4500 -2.1136 -2.1483
  106OSM    C3F10848   3.042   1.446  10.180 -0.2160  1.1285 -0.5935
  106OSM    H3F10849   3.062   1.344  10.138 -0.4992  0.6919  0.3019
  106OSM    H3G10850   3.135   1.507  10.174  0.8661 -0.3260  0.5997
  106OSM    C4F10851   2.934   1.502  10.098  0.0173 -0.7966  0.0825
  106OSM    H4F10852   2.911   1.605  10.134  1.2945 -0.4202 -0.1335
  106OSM    H4G10853   2.843   1.440  10.112  1.8536 -3.4393  0.9196
  106OSM    C5F10854   2.959   1.511   9.952  0.3242 -0.1766 -0.7740
  106OSM    H5F10855   3.057   1.560   9.933  0.7894 -0.1949  1.2743
  106OSM    H5G10856   2.882   1.578   9.909 -0.3538 -0.3038  0.1902
  106OSM    C6F10857   2.959   1.372   9.888  0.2271  0.0766  0.4396
  106OSM    H6F10858   2.875   1.312   9.929 -1.0208  1.7672  0.4930
  106OSM    H6G10859   3.047   1.313   9.920  0.2072  0.4849  1.3024
  106OSM    C7F10860   2.960   1.369   9.736  0.6349 -0.2658  0.0581
  106OSM    H7F10861   3.038   1.435   9.694 -1.0981  1.6012 -0.4030
  106OSM    H7G10862   2.863   1.419   9.712  0.6179 -0.2795  0.0989
  106OSM    C8F10863   2.978   1.232   9.665  0.1717 -0.2755 -0.1012
  106OSM    H8F10864   2.938   1.142   9.717  3.4838  0.1206  3.6213
  106OSM    H8G10865   3.087   1.208   9.669  0.4586  1.0842  1.6237
  106OSM    C9F10866   2.926   1.219   9.526 -0.8133 -0.1623  0.0332
  106OSM    H9F10867   2.836   1.156   9.518 -0.0774 -1.3051  0.4737
  106OSM   C10F10868   2.979   1.268   9.413 -0.5542  0.0024  0.0722
  106OSM   H10F10869   2.941   1.260   9.310 -0.6405  0.8779  0.0280
  106OSM   C11F10870   3.101   1.350   9.411 -0.3884 -0.1288  0.3719
  106OSM   H11F10871   3.186   1.279   9.420 -0.6435 -0.2783  1.8349
  106OSM   H11G10872   3.115   1.426   9.490 -4.0560  0.4239  0.6741
  106OSM   C12F10873   3.095   1.423   9.276 -0.0307 -0.5518 -0.1646
  106OSM   H12F10874   3.168   1.501   9.308  0.1071 -0.8737  0.3192
  106OSM   H12G10875   2.995   1.469   9.259  0.6044  0.8802 -0.1844
  106OSM   C13F10876   3.149   1.335   9.160  0.7220  0.7263 -0.2801
  106OSM   H13F10877   3.077   1.251   9.158  2.3658 -0.9640  2.7473
  106OSM   H13G10878   3.249   1.309   9.202 -0.4325 -1.3773  1.3830
  106OSM   C14F10879   3.162   1.410   9.028  0.0889 -0.3958  0.0601
  106OSM   H14F10880   3.236   1.492   9.040  0.5725 -0.5031 -1.8717
  106OSM   H14G10881   3.062   1.455   9.009  0.3658  0.6909  1.0587
  106OSM   C15F10882   3.201   1.313   8.910  0.6827  0.0039 -0.1687
  106OSM   H15F10883   3.290   1.255   8.941  0.2267 -0.5196  0.1603
  106OSM   H15G10884   3.226   1.365   8.815 -0.2329 -1.6485 -1.3514
  106OSM   C16F10885   3.080   1.219   8.878 -0.7539 -0.6201 -0.7155
  106OSM   H16F10886   2.996   1.282   8.840 -0.0766 -0.3110 -1.7716
  106OSM   H16G10887   3.055   1.164   8.971  0.7976  0.8094  0.6233
  106OSM   C17F10888   3.107   1.111   8.774  0.2000 -0.5364  0.2893
  106OSM   H17F10889   3.200   1.069   8.819  1.5242  3.5428  1.8476
  106OSM   H17G10890   3.129   1.158   8.676  0.1803  0.0376  0.5489
  106OSM   C18F10891   3.013   0.991   8.777  0.1052  0.5174  0.1650
  106OSM   H18F10892   2.923   1.017   8.719 -0.3148 -1.3060 -0.0494
  106OSM   H18G10893   2.974   0.977   8.880  1.5875  1.1878  0.8542
  106OSM   H18H10894   3.057   0.903   8.726 -1.1070  0.4279 -0.7652
  107OSM      N10895   6.016   5.254  11.005  0.1748  0.2089 -0.1740
  107OSM    C1510896   6.072   5.146  10.921 -0.5200 -0.0198 -0.7894
  107OSM   H15A10897   6.036   5.046  10.942  1.8760 -1.0309 -1.1197
  107OSM   H15B10898   6.179   5.155  10.930 -0.6233 -0.1450  0.7303
  107OSM   H15C10899   6.059   5.169  10.816  0.9551  1.6651 -0.6363
  107OSM    C1410900   5.876   5.275  10.978  0.3978 -0.1897 -0.4106
  107OSM   H14A10901   5.817   5.200  11.028 -0.4365 -1.0449 -2.5931
  107OSM   H14B10902   5.853   5.282  10.873 -0.6495 -0.4597 -0.2071
  107OSM   H14C10903   5.857   5.373  11.021  1.1856  0.6376 -1.8720
  107OSM    C1310904   6.049   5.214  11.150 -0.1533 -0.1680 -0.2131
  107OSM   H13A10905   6.005   5.288  11.214  3.3423  1.4577  0.5622
  107OSM   H13B10906   6.155   5.222  11.168 -0.0692  1.0739 -1.1750
  107OSM   H13C10907   6.007   5.118  11.175 -0.6058 -0.3917 -1.7073
  107OSM    C1210908   6.083   5.388  10.965  0.1933  0.0777 -0.1303
  107OSM   H12A10909   6.045   5.464  11.031  1.6137  0.5723  0.1547
  107OSM   H12B10910   6.052   5.401  10.862 -4.2690 -1.4106  0.8034
  107OSM    C1110911   6.239   5.411  10.964  0.2213  0.1381 -0.0189
  107OSM   H11A10912   6.283   5.372  11.058 -1.1899  1.6399  1.3521
  107OSM   H11B10913   6.250   5.521  10.972 -0.0575  0.1525  0.1932
  107OSM      P10914   6.433   5.279  10.841 -0.1330 -0.0392 -0.2384
  107OSM    O1310915   6.528   5.368  10.905 -0.5350 -0.8052 -0.7268
  107OSM    O1410916   6.420   5.142  10.883  0.2114 -0.2321 -0.1340
  107OSM    O1110917   6.466   5.276  10.687 -0.2329 -0.0074  0.4127
  107OSM    O1210918   6.294   5.355  10.849 -0.4217 -0.4288 -0.0249
  107OSM    C1S10919   6.384   5.234  10.581  0.0575  0.4136 -0.4862
  107OSM    H1S10920   6.280   5.241  10.622  0.6373  0.0473  1.1317
  107OSM    H1T10921   6.385   5.123  10.569 -3.1992 -0.1222  2.4357
  107OSM     NF10922   6.288   5.261  10.354 -0.2841 -0.3106  0.0586
  107OSM    HNF10923   6.317   5.192  10.287  1.0665  0.5019 -0.2387
  107OSM    C2S10924   6.392   5.311  10.444 -0.2591 -0.2593 -0.5691
  107OSM    H2S10925   6.384   5.420  10.463  0.8960 -0.1894 -0.4442
  107OSM    C3S10926   6.531   5.290  10.372  0.2949  0.3419  0.3176
  107OSM    H3S10927   6.548   5.187  10.334 -0.2245  0.2445  0.3448
  107OSM     O310928   6.644   5.321  10.450 -0.0527  0.2748 -0.1601
  107OSM    HO310929   6.618   5.344  10.540 -1.8706  0.1696 -0.6274
  107OSM    C4S10930   6.549   5.386  10.254  0.2079 -0.0972 -0.8117
  107OSM    H4S10931   6.582   5.485  10.289  0.2039  0.1225 -1.4019
  107OSM    C5S10932   6.536   5.358  10.119 -0.5633 -0.0373 -0.0488
  107OSM    H5S10933   6.507   5.256  10.091 -0.1638 -0.1587 -0.0240
  107OSM    C6S10934   6.578   5.444  10.001  0.2835 -0.2639  0.0181
  107OSM    H6S10935   6.618   5.374   9.924  0.1063 -2.1033  1.5340
  107OSM    H6T10936   6.669   5.507  10.015  0.1414  0.0879 -0.5792
  107OSM    C7S10937   6.465   5.527   9.947  0.1289  0.6908  0.2502
  107OSM    H7S10938   6.428   5.596  10.026  0.3228  0.0654  0.8953
  107OSM    H7T10939   6.389   5.448   9.929  0.7045  0.0986  0.3903
  107OSM    C8S10940   6.504   5.598   9.818 -0.4199 -0.1201 -0.0003
  107OSM    H8S10941   6.548   5.528   9.744  1.6662  1.0122  0.0885
  107OSM    H8T10942   6.589   5.668   9.834  0.6797 -1.6222  1.0134
  107OSM    C9S10943   6.379   5.662   9.758 -0.3074  0.3160  0.6691
  107OSM    H9S10944   6.349   5.736   9.835  1.1548  1.2361  0.3955
  107OSM    H9T10945   6.300   5.584   9.746 -0.9176  0.8189  1.3688
  107OSM   C10S10946   6.402   5.710   9.617 -0.0840 -0.0580  0.4795
  107OSM   H10S10947   6.429   5.629   9.546 -2.2247  0.4226 -0.9827
  107OSM   H10T10948   6.479   5.790   9.608 -1.7786  1.3846 -3.9309
  107OSM   C11S10949   6.270   5.777   9.566  0.6994 -0.3705 -0.3458
  107OSM   H11S10950   6.240   5.848   9.647 -2.0967  1.0890 -2.4560
  107OSM   H11T10951   6.194   5.696   9.565  1.1337 -0.8631  1.8856
  107OSM   C12S10952   6.262   5.836   9.421 -0.5280  0.2791 -0.8138
  107OSM   H12S10953   6.369   5.858   9.401 -0.3446  1.1315  0.8464
  107OSM   H12T10954   6.214   5.936   9.432 -1.4648 -0.2265 -0.2109
  107OSM   C13S10955   6.201   5.743   9.321  0.6873  0.6110  0.0998
  107OSM   H13S10956   6.095   5.715   9.342  0.3705  2.0151  0.4172
  107OSM   H13T10957   6.263   5.651   9.320  0.0945  0.1201 -2.7082
  107OSM   C14S10958   6.221   5.799   9.181  0.1347  0.5832 -0.0109
  107OSM   H14S10959   6.183   5.733   9.099  1.1848 -0.4010  0.2761
  107OSM   H14T10960   6.329   5.782   9.164  0.2858 -0.6424  1.9624
  107OSM   C15S10961   6.175   5.944   9.151  0.0622  0.1486 -0.0209
  107OSM   H15S10962   6.235   6.013   9.215  2.9656 -0.8741 -1.4570
  107OSM   H15T10963   6.066   5.945   9.170 -0.1090 -2.4823 -0.6004
  107OSM   C16S10964   6.204   5.989   9.003 -0.8153 -0.0377 -0.0020
  107OSM   H16S10965   6.142   5.927   8.935  0.1828 -1.4195  0.2896
  107OSM   H16T10966   6.309   5.968   8.973  0.2853  2.9442  1.3331
  107OSM   C17S10967   6.173   6.130   8.973 -0.4702  0.0687  0.2082
  107OSM   H17S10968   6.236   6.201   9.031  1.8582  0.2756 -2.3370
  107OSM   H17T10969   6.069   6.150   9.006 -0.2995  1.9558 -0.2982
  107OSM   C18S10970   6.183   6.171   8.819 -0.0032 -0.3353  0.7934
  107OSM   H18S10971   6.139   6.273   8.807 -0.4931 -0.6384 -0.0793
  107OSM   H18T10972   6.125   6.096   8.760  2.1609 -2.2349  0.9586
  107OSM   H18U10973   6.289   6.170   8.787  0.0178  1.3137  0.7269
  107OSM    C1F10974   6.165   5.296  10.359  1.1093  0.5312  0.5826
  107OSM     OF10975   6.128   5.377  10.447  0.2472  0.3147 -0.2077
  107OSM    C2F10976   6.063   5.238  10.260  0.2798  0.3568 -0.7740
  107OSM    H2F10977   5.972   5.201  10.311  1.2127  0.5150  1.0620
  107OSM    H2G10978   6.110   5.156  10.201  1.9271  1.0818 -0.5323
  107OSM    C3F10979   6.029   5.351  10.160  0.4371 -0.0393 -0.3500
  107OSM    H3F10980   6.128   5.380  10.117  0.2939  1.7885  0.4380
  107OSM    H3G10981   5.984   5.441  10.208  2.1969  1.5675 -1.5115
  107OSM    C4F10982   5.933   5.292  10.052  0.6698  0.0493 -0.9290
  107OSM    H4F10983   5.899   5.372   9.982 -0.4057 -0.9504 -1.5837
  107OSM    H4G10984   5.848   5.258  10.114  1.9942  0.0097  0.9689
  107OSM    C5F10985   5.995   5.181   9.960 -0.1925 -0.2534 -0.1748
  107OSM    H5F10986   5.909   5.152   9.897 -0.0505  1.8327 -1.4105
  107OSM    H5G10987   6.038   5.095  10.017  2.2223  0.5618 -0.6676
  107OSM    C6F10988   6.103   5.248   9.863  0.7868 -0.3918  0.2569
  107OSM    H6F10989   6.191   5.270   9.926  0.2939 -3.7230  2.3108
  107OSM    H6G10990   6.052   5.342   9.829  0.0439 -0.9234 -0.1342
  107OSM    C7F10991   6.151   5.168   9.744  0.0659  0.1393  0.0251
  107OSM    H7F10992   6.058   5.124   9.703 -0.7667  0.4624  1.4880
  107OSM    H7G10993   6.213   5.080   9.770 -0.4388  0.5770  3.1301
  107OSM    C8F10994   6.225   5.254   9.636  0.2003 -0.0434 -0.1368
  107OSM    H8F10995   6.330   5.271   9.670 -0.4211 -0.7386  2.2976
  107OSM    H8G10996   6.174   5.352   9.620 -2.2258 -1.0920  0.7775
  107OSM    C9F10997   6.225   5.185   9.501  0.2664  0.3035  0.3884
  107OSM    H9F10998   6.309   5.115   9.487 -0.4304 -0.6217  0.7652
  107OSM   C10F10999   6.144   5.201   9.394 -0.1831  1.0366 -0.1465
  107OSM   H10F11000   6.169   5.143   9.304 -0.9464  0.2736  0.1200
  107OSM   C11F11001   6.024   5.299   9.381 -0.5499  0.7941  0.4920
  107OSM   H11F11002   6.047   5.405   9.401 -0.9821  1.1246 -0.6303
  107OSM   H11G11003   5.944   5.273   9.454  0.5760 -0.1421  1.4397
  107OSM   C12F11004   5.984   5.290   9.234  0.7223  0.5493  0.3432
  107OSM   H12F11005   5.948   5.187   9.215  1.1491 -0.2072  3.1171
  107OSM   H12G11006   6.074   5.317   9.175  2.6284 -1.4501  2.1294
  107OSM   C13F11007   5.870   5.390   9.204 -0.7242 -0.0174  0.0665
  107OSM   H13F11008   5.909   5.494   9.208  0.7838 -0.5935  2.1180
  107OSM   H13G11009   5.796   5.385   9.287 -2.4729  3.0741 -1.1619
  107OSM   C14F11010   5.809   5.380   9.059  0.0404  0.5380  0.2608
  107OSM   H14F11011   5.757   5.282   9.056 -2.0321  1.6128 -0.4476
  107OSM   H14G11012   5.889   5.381   8.981  0.1104 -1.7274  0.2167
  107OSM   C15F11013   5.697   5.489   9.035 -0.3803  0.7703  0.3847
  107OSM   H15F11014   5.743   5.587   9.058  1.8991 -0.3277  0.7536
  107OSM   H15G11015   5.619   5.470   9.112  0.7896  2.9539  2.1927
  107OSM   C16F11016   5.654   5.478   8.887  0.1871  0.4551 -0.2185
  107OSM   H16F11017   5.558   5.534   8.881 -1.5602 -2.0598  1.8541
  107OSM   H16G11018   5.627   5.371   8.874 -1.7862  0.6764  1.5667
  107OSM   C17F11019   5.754   5.505   8.783  0.2856  0.5486 -0.1986
  107OSM   H17F11020   5.697   5.497   8.687 -0.1378  0.0986  0.0858
  107OSM   H17G11021   5.833   5.427   8.795  0.0789  0.0538 -1.7831
  107OSM   C18F11022   5.819   5.644   8.783 -0.3170  0.2226  0.1000
  107OSM   H18F11023   5.928   5.628   8.769 -0.2451  0.4715  0.3580
  107OSM   H18G11024   5.807   5.689   8.884  3.5655  2.3425 -0.1848
  107OSM   H18H11025   5.775   5.718   8.712 -0.5528 -1.4181 -1.5331
  108OSM      N11026   4.485   1.227  10.921  0.7027 -0.2250 -0.4534
  108OSM    C1511027   4.444   1.119  11.016 -0.7013  0.1283 -0.2402
  108OSM   H15A11028   4.376   1.158  11.090 -1.5410 -1.7950  0.0663
  108OSM   H15B11029   4.530   1.075  11.064 -1.3294  0.7041  1.4650
  108OSM   H15C11030   4.391   1.040  10.965 -1.3353  1.2628 -1.4187
  108OSM    C1411031   4.357   1.268  10.848 -0.6620 -0.6000 -0.0039
  108OSM   H14A11032   4.311   1.186  10.795 -2.6001 -0.4500  1.3439
  108OSM   H14B11033   4.367   1.346  10.774 -1.0185 -1.6613 -1.2122
  108OSM   H14C11034   4.281   1.298  10.918 -0.7770 -1.6888  0.3575
  108OSM    C1311035   4.545   1.342  10.996  0.7795  0.3130 -0.3718
  108OSM   H13A11036   4.472   1.419  11.017  2.6872  1.4392  2.9412
  108OSM   H13B11037   4.619   1.389  10.932 -1.1453  0.0995 -2.9077
  108OSM   H13C11038   4.585   1.315  11.092 -0.2892  2.0471  0.6142
  108OSM    C1211039   4.575   1.173  10.801 -0.0816  0.7830  0.3975
  108OSM   H12A11040   4.529   1.088  10.752  0.4853  0.8572 -0.2735
  108OSM   H12B11041   4.667   1.142  10.849 -1.0060 -0.6159  1.3467
  108OSM    C1111042   4.614   1.261  10.676  0.4291  0.2602 -1.1703
  108OSM   H11A11043   4.515   1.293  10.638 -0.1639  0.1769  0.2252
  108OSM   H11B11044   4.672   1.206  10.599  1.8716 -0.1440  0.1497
  108OSM      P11045   4.834   1.390  10.768 -0.5769  0.1772 -0.3371
  108OSM    O1311046   4.836   1.499  10.867  0.2193  0.0302  0.5313
  108OSM    O1411047   4.863   1.255  10.821  0.1599 -0.2910  0.3319
  108OSM    O1111048   4.939   1.418  10.656 -0.6235 -0.1328  0.4230
  108OSM    O1211049   4.686   1.382  10.707 -0.2344  0.6088 -0.5380
  108OSM    C1S11050   4.900   1.434  10.521  0.1254  0.3190  0.4933
  108OSM    H1S11051   4.895   1.543  10.499  0.8323  0.6697  1.9740
  108OSM    H1T11052   4.798   1.394  10.501  0.2300  0.5394 -0.5605
  108OSM     NF11053   4.984   1.423  10.288  0.1858  0.2619  0.1458
  108OSM    HNF11054   4.942   1.374  10.212  2.3205  0.1381 -1.0216
  108OSM    C2S11055   4.997   1.359  10.420  0.3475  0.3876 -0.8981
  108OSM    H2S11056   5.100   1.369  10.461  0.8787 -2.3158 -1.3969
  108OSM    C3S11057   4.956   1.202  10.415 -0.5436  0.1161 -0.0057
  108OSM    H3S11058   4.852   1.208  10.375 -0.0936 -1.6529 -1.5845
  108OSM     O311059   4.936   1.143  10.550  0.4836 -0.1577  0.2242
  108OSM    HO311060   4.936   1.216  10.613 -3.3469  1.8828 -1.7895
  108OSM    C4S11061   5.060   1.129  10.331  0.0225 -0.2959  0.6030
  108OSM    H4S11062   5.164   1.163  10.347 -0.6232  1.6703  0.8332
  108OSM    C5S11063   5.039   1.040  10.233  0.6564  0.2312  0.9284
  108OSM    H5S11064   4.936   1.013  10.203  1.4091 -0.8560 -0.8525
  108OSM    C6S11065   5.147   0.984  10.147 -0.6101  0.5975 -0.1581
  108OSM    H6S11066   5.155   0.878  10.182  1.0091  0.5188 -0.6487
  108OSM    H6T11067   5.244   1.024  10.185 -1.1127  0.7574  0.9783
  108OSM    C7S11068   5.132   0.998   9.992  0.4824 -0.9471 -0.7707
  108OSM    H7S11069   5.040   0.948   9.956  0.0482 -1.2776  0.7309
  108OSM    H7T11070   5.211   0.948   9.932 -1.1218 -1.6518 -2.3837
  108OSM    C8S11071   5.130   1.142   9.943  0.2024 -0.1005 -0.2768
  108OSM    H8S11072   5.225   1.184   9.984  0.9262 -0.7316 -1.2688
  108OSM    H8T11073   5.044   1.189   9.996 -2.0550 -5.6765  1.7505
  108OSM    C9S11074   5.139   1.160   9.791 -0.2581  0.2997 -0.7671
  108OSM    H9S11075   5.059   1.091   9.756 -1.5124  1.1042  0.4237
  108OSM    H9T11076   5.238   1.120   9.758  0.8425  0.4466  2.1246
  108OSM   C10S11077   5.137   1.308   9.742 -0.2040 -0.1830  0.5453
  108OSM   H10S11078   5.195   1.377   9.807  1.5016 -0.8079 -0.2508
  108OSM   H10T11079   5.036   1.353   9.736 -0.4311 -0.9180 -2.3014
  108OSM   C11S11080   5.203   1.313   9.601  0.6518  0.0296  0.8320
  108OSM   H11S11081   5.310   1.285   9.609  0.2209 -1.5598  1.5834
  108OSM   H11T11082   5.194   1.419   9.571 -1.0356 -0.5566 -0.8830
  108OSM   C12S11083   5.128   1.220   9.512 -0.5855  0.4380 -0.1940
  108OSM   H12S11084   5.026   1.210   9.555 -0.2195 -3.4301  0.1832
  108OSM   H12T11085   5.161   1.114   9.514  1.9855  1.2034  1.1796
  108OSM   C13S11086   5.110   1.276   9.375  0.1755 -0.3293  0.2497
  108OSM   H13S11087   5.213   1.276   9.333  0.9019  0.3975  1.9556
  108OSM   H13T11088   5.072   1.380   9.374  2.6811  0.6542  0.7570
  108OSM   C14S11089   5.009   1.188   9.294 -0.2624 -0.3392 -0.4917
  108OSM   H14S11090   4.917   1.186   9.356  0.7540 -0.6562  1.0511
  108OSM   H14T11091   5.054   1.087   9.285 -2.2773 -1.1768 -2.4581
  108OSM   C15S11092   4.979   1.240   9.153 -0.4475  0.5431 -0.0310
  108OSM   H15S11093   4.919   1.333   9.147 -1.3619 -0.0796 -1.1178
  108OSM   H15T11094   4.919   1.163   9.099 -0.8167  0.7202  0.1215
  108OSM   C16S11095   5.096   1.263   9.056  0.3666  0.1299  0.3207
  108OSM   H16S11096   5.058   1.247   8.952  2.8366 -2.3802 -0.2960
  108OSM   H16T11097   5.170   1.185   9.082 -1.3646 -1.6399  0.2600
  108OSM   C17S11098   5.154   1.404   9.071 -0.3366 -0.1595 -0.3164
  108OSM   H17S11099   5.210   1.418   9.166 -0.1994 -1.1159 -0.2454
  108OSM   H17T11100   5.067   1.472   9.081  0.5790  1.2856 -1.6041
  108OSM   C18S11101   5.237   1.470   8.955  0.4928  0.3500 -0.1574
  108OSM   H18S11102   5.319   1.405   8.918  0.1720 -0.0695 -0.1457
  108OSM   H18T11103   5.277   1.567   8.992  0.1997  0.1418  0.7344
  108OSM   H18U11104   5.178   1.483   8.862  1.0747  0.1697 -0.5558
  108OSM    C1F11105   5.031   1.548  10.272  0.1094  0.3949 -0.0147
  108OSM     OF11106   5.089   1.606  10.361  0.2593 -0.2714  0.2979
  108OSM    C2F11107   5.011   1.608  10.138  0.4670  0.1837  0.7906
  108OSM    H2F11108   4.910   1.588  10.096  0.2876  1.0953  0.7706
  108OSM    H2G11109   5.082   1.552  10.073  0.5417  1.3662 -0.1794
  108OSM    C3F11110   5.030   1.758  10.138  0.5318  0.2897  0.2871
  108OSM    H3F11111   5.123   1.790  10.190  1.1601 -0.6475 -0.2250
  108OSM    H3G11112   4.942   1.806  10.186  0.4332  0.2366  0.1601
  108OSM    C4F11113   5.052   1.800   9.988 -0.7238 -0.7080  0.0317
  108OSM    H4F11114   5.158   1.778   9.962 -0.8107 -1.1948  0.0853
  108OSM    H4G11115   5.043   1.911   9.981  1.2965 -0.6178 -3.3366
  108OSM    C5F11116   4.968   1.734   9.874 -0.0922  0.3954 -0.0667
  108OSM    H5F11117   4.862   1.723   9.908 -0.1249  0.4127 -0.1618
  108OSM    H5G11118   5.004   1.631   9.854 -0.4276  0.3699 -0.5646
  108OSM    C6F11119   4.984   1.813   9.747  0.8064  0.4169 -0.1135
  108OSM    H6F11120   5.089   1.814   9.711 -0.3397 -1.7441 -4.1386
  108OSM    H6G11121   4.956   1.917   9.775 -0.3932  0.3073 -0.8696
  108OSM    C7F11122   4.884   1.768   9.638 -0.1198 -0.0511  0.6386
  108OSM    H7F11123   4.826   1.856   9.600  1.9187  0.9151 -0.3925
  108OSM    H7G11124   4.814   1.692   9.679 -0.9961  0.3458 -0.0790
  108OSM    C8F11125   4.942   1.700   9.515 -0.0775  0.7113  0.2994
  108OSM    H8F11126   5.020   1.625   9.541  0.3805  0.4759 -1.5933
  108OSM    H8G11127   4.990   1.781   9.455 -0.2016 -0.4369 -1.3879
  108OSM    C9F11128   4.843   1.637   9.419  0.3532 -0.1142  0.1217
  108OSM    H9F11129   4.775   1.566   9.469  0.6820 -0.7006 -0.2555
  108OSM   C10F11130   4.832   1.655   9.286  0.0445  0.7307 -0.4909
  108OSM   H10F11131   4.748   1.620   9.225  0.4200  0.5826 -0.9267
  108OSM   C11F11132   4.928   1.748   9.214 -0.1459  0.4526 -0.4258
  108OSM   H11F11133   5.031   1.731   9.253 -0.6152  0.5485  0.9124
  108OSM   H11G11134   4.900   1.854   9.234  1.2482  1.2446 -2.2733
  108OSM   C12F11135   4.924   1.753   9.055 -0.1712 -0.5492  0.3654
  108OSM   H12F11136   4.942   1.648   9.024 -1.5169 -1.0210  1.1050
  108OSM   H12G11137   5.012   1.813   9.025 -0.5586  0.4018  1.0875
  108OSM   C13F11138   4.793   1.817   9.001 -0.1144 -0.0015  0.1441
  108OSM   H13F11139   4.773   1.909   9.060 -2.3154 -0.5634  0.3634
  108OSM   H13G11140   4.708   1.749   9.022 -1.4575  2.1424  2.0530
  108OSM   C14F11141   4.806   1.850   8.850 -0.4680  0.3861  0.6562
  108OSM   H14F11142   4.905   1.898   8.833  0.7544 -1.9363  0.7922
  108OSM   H14G11143   4.728   1.922   8.816 -1.4825 -1.2417 -0.6562
  108OSM   C15F11144   4.785   1.727   8.761 -0.6105  0.8093  0.0860
  108OSM   H15F11145   4.683   1.682   8.765 -0.1398 -0.1746  3.1122
  108OSM   H15G11146   4.851   1.642   8.788 -3.0934 -1.5073 -0.6758
  108OSM   C16F11147   4.812   1.765   8.617 -0.2899  0.1171  0.1996
  108OSM   H16F11148   4.918   1.800   8.617  0.0436 -0.7515 -1.8924
  108OSM   H16G11149   4.747   1.850   8.586  0.5423 -0.0921 -2.3716
  108OSM   C17F11150   4.806   1.655   8.511  0.7420 -0.4875 -0.8792
  108OSM   H17F11151   4.834   1.701   8.414  2.0531  1.3225  0.3033
  108OSM   H17G11152   4.701   1.621   8.498 -0.6439  3.7248 -2.4017
  108OSM   C18F11153   4.903   1.543   8.529 -0.5600  0.9631 -0.1726
  108OSM   H18F11154   4.940   1.488   8.439 -0.6520 -0.4979  0.6552
  108OSM   H18G11155   4.864   1.462   8.593 -0.2398 -1.3172 -2.6904
  108OSM   H18H11156   4.994   1.576   8.584 -0.2497  0.1098 -0.1546
  109OSM      N11157   2.082   1.791  10.980  0.5996  1.1528  0.3888
  109OSM    C1511158   2.146   1.673  11.050 -0.0743  0.2348  0.1854
  109OSM   H15A11159   2.074   1.611  11.102 -1.4705  2.7453  1.4051
  109OSM   H15B11160   2.223   1.707  11.117 -1.2102  1.5013  0.8910
  109OSM   H15C11161   2.189   1.614  10.970  0.3135  0.3642  0.2957
  109OSM    C1411162   2.041   1.890  11.083  0.0372 -0.5704  0.3634
  109OSM   H14A11163   2.123   1.943  11.130  0.1010 -0.1231 -0.2397
  109OSM   H14B11164   1.979   1.840  11.156  0.9356  0.3309  1.8001
  109OSM   H14C11165   1.983   1.972  11.044 -0.4768 -0.2814  1.6638
  109OSM    C1311166   2.194   1.854  10.907 -0.4202  0.4680  0.3943
  109OSM   H13A11167   2.158   1.949  10.871 -1.9580 -0.4167 -0.4699
  109OSM   H13B11168   2.227   1.799  10.820  0.5922 -0.8424  1.5571
  109OSM   H13C11169   2.267   1.869  10.986  0.4368 -1.4138  0.0195
  109OSM    C1211170   1.975   1.751  10.881 -0.0192  0.0824  0.4632
  109OSM   H12A11171   2.013   1.667  10.826 -3.3874 -1.1636 -0.2096
  109OSM   H12B11172   1.962   1.830  10.808 -0.2330 -1.9992 -1.8765
  109OSM    C1111173   1.834   1.700  10.933  0.3164 -0.2435  0.0679
  109OSM   H11A11174   1.857   1.601  10.978 -0.6380 -1.9155 -2.8523
  109OSM   H11B11175   1.765   1.682  10.848 -0.1417  0.0345  0.3799
  109OSM      P11176   1.674   1.897  11.002 -0.3095 -0.0340  0.7724
  109OSM    O1311177   1.538   1.854  11.045  0.1653 -0.0331 -0.1045
  109OSM    O1411178   1.718   2.032  11.053  0.2185 -0.2386 -0.0430
  109OSM    O1111179   1.670   1.897  10.848  0.2438  0.6552 -0.0029
  109OSM    O1211180   1.780   1.787  11.033  0.3737 -0.4634  0.8204
  109OSM    C1S11181   1.744   1.985  10.768  0.4435  0.4600  0.4387
  109OSM    H1S11182   1.852   1.980  10.793  0.8833  1.9282 -1.0223
  109OSM    H1T11183   1.704   2.087  10.778  2.0729  1.1094  0.6495
  109OSM     NF11184   1.837   2.012  10.547  0.2401  0.6213  0.2783
  109OSM    HNF11185   1.799   2.092  10.501 -0.1944  0.9797  1.2098
  109OSM    C2S11186   1.744   1.936  10.617 -0.1092  0.6409  0.2310
  109OSM    H2S11187   1.783   1.833  10.632  0.1325  0.6631 -0.2165
  109OSM    C3S11188   1.603   1.935  10.558 -0.1858  0.4750  0.4409
  109OSM    H3S11189   1.573   2.042  10.557  1.8183  1.1402 -2.5554
  109OSM     O311190   1.501   1.865  10.634 -0.5487 -0.0614  0.0543
  109OSM    HO311191   1.535   1.877  10.723 -1.6007  0.6821  0.3715
  109OSM    C4S11192   1.617   1.890  10.414  0.0209  0.0597  1.1338
  109OSM    H4S11193   1.610   1.969  10.339 -2.3859 -2.4274 -1.5084
  109OSM    C5S11194   1.613   1.760  10.371 -0.3944 -0.0518  0.2711
  109OSM    H5S11195   1.612   1.686  10.452  1.7057 -1.4088 -0.8489
  109OSM    C6S11196   1.617   1.708  10.233  0.4485  0.5744 -0.6111
  109OSM    H6S11197   1.536   1.633  10.217  1.0579 -0.2010 -0.0992
  109OSM    H6T11198   1.720   1.671  10.213  1.4402  2.8864 -0.0719
  109OSM    C7S11199   1.592   1.806  10.116 -0.2373  0.1334  0.3934
  109OSM    H7S11200   1.680   1.874  10.105 -1.4834  1.4816 -2.3142
  109OSM    H7T11201   1.502   1.866  10.143 -0.2151 -0.0872  0.9719
  109OSM    C8S11202   1.566   1.739   9.984  0.5228 -0.9305 -0.5034
  109OSM    H8S11203   1.462   1.699   9.986  1.3557 -3.2499  1.3258
  109OSM    H8T11204   1.643   1.663   9.960  1.4796 -0.1174 -0.0572
  109OSM    C9S11205   1.579   1.834   9.861 -0.3681 -0.3421 -0.2989
  109OSM    H9S11206   1.680   1.880   9.865 -0.2070 -0.6588  3.4234
  109OSM    H9T11207   1.501   1.912   9.862 -1.8622 -1.7716  0.0891
  109OSM   C10S11208   1.557   1.758   9.727  0.3285 -0.7833  0.2341
  109OSM   H10S11209   1.448   1.737   9.723  0.2365 -0.3102  0.1024
  109OSM   H10T11210   1.608   1.660   9.740  2.5979  0.5041  1.8414
  109OSM   C11S11211   1.622   1.833   9.605  0.1563 -0.4868  1.0116
  109OSM   H11S11212   1.732   1.813   9.606  0.3523  0.1595 -1.7305
  109OSM   H11T11213   1.598   1.941   9.598 -0.1130 -0.3189  3.5177
  109OSM   C12S11214   1.581   1.772   9.472  0.1809 -0.0177  0.0447
  109OSM   H12S11215   1.471   1.767   9.458  0.3083  0.8136 -1.5151
  109OSM   H12T11216   1.621   1.668   9.475  0.1492 -0.0515 -0.5153
  109OSM   C13S11217   1.636   1.855   9.354  0.0692 -0.7493 -0.2625
  109OSM   H13S11218   1.741   1.886   9.370  0.3061 -0.8013 -1.6422
  109OSM   H13T11219   1.579   1.950   9.355  3.2789  1.3161  1.4817
  109OSM   C14S11220   1.611   1.780   9.226  0.2583 -0.3386  0.0344
  109OSM   H14S11221   1.506   1.745   9.231  0.2953 -0.6923 -1.3202
  109OSM   H14T11222   1.665   1.683   9.231  0.7253 -0.0875 -0.1228
  109OSM   C15S11223   1.645   1.853   9.097  0.2774 -0.3628 -0.2533
  109OSM   H15S11224   1.753   1.858   9.075  0.1650  0.3429 -0.6574
  109OSM   H15T11225   1.616   1.960   9.105  2.1306  0.2133 -0.8553
  109OSM   C16S11226   1.575   1.791   8.978  0.0389  0.7157 -0.2249
  109OSM   H16S11227   1.467   1.819   8.980 -0.4399 -1.0632  0.7063
  109OSM   H16T11228   1.593   1.682   8.976  2.5963  1.0848 -0.3568
  109OSM   C17S11229   1.636   1.839   8.854 -0.2760 -0.0842 -0.0551
  109OSM   H17S11230   1.720   1.776   8.816 -1.0670 -0.9199 -0.4638
  109OSM   H17T11231   1.681   1.940   8.859  0.4551 -0.4545  2.9185
  109OSM   C18S11232   1.540   1.852   8.741 -0.6616 -0.5215  0.6345
  109OSM   H18S11233   1.496   1.758   8.703  0.9956 -2.4090  3.0794
  109OSM   H18T11234   1.580   1.915   8.658 -2.5922  0.8353  0.6728
  109OSM   H18U11235   1.456   1.912   8.781  1.9419  2.9236  1.4528
  109OSM    C1F11236   1.969   2.009  10.582 -0.1190 -0.1870  0.4204
  109OSM     OF11237   2.021   1.910  10.626  0.5288 -0.3670 -0.3545
  109OSM    C2F11238   2.047   2.134  10.568 -0.0360  0.2671  0.3378
  109OSM    H2F11239   2.120   2.152  10.649  0.5903 -1.4902  0.1851
  109OSM    H2G11240   1.981   2.224  10.566  0.6721  0.9590  3.4151
  109OSM    C3F11241   2.132   2.147  10.440  0.3252  0.2159  0.2724
  109OSM    H3F11242   2.060   2.143  10.355  0.7372  3.6165 -0.3815
  109OSM    H3G11243   2.196   2.056  10.439  0.3578  0.2322 -0.8527
  109OSM    C4F11244   2.201   2.277  10.426  0.0198  0.4946  0.1453
  109OSM    H4F11245   2.296   2.270  10.482  0.5059 -2.4886 -0.8537
  109OSM    H4G11246   2.142   2.362  10.467 -0.4357  0.4743 -0.4530
  109OSM    C5F11247   2.254   2.314  10.284  0.3076  0.4866  0.3198
  109OSM    H5F11248   2.303   2.413  10.297 -0.4985  0.5908  3.2265
  109OSM    H5G11249   2.170   2.331  10.212 -0.7580  0.9562  1.6258
  109OSM    C6F11250   2.337   2.198  10.225  0.3150 -0.1843 -0.6404
  109OSM    H6F11251   2.263   2.121  10.194 -1.2723  0.5449  1.1186
  109OSM    H6G11252   2.403   2.160  10.306  1.3195  0.7924 -0.9825
  109OSM    C7F11253   2.415   2.248  10.105 -0.1111 -0.2235  0.1919
  109OSM    H7F11254   2.473   2.333  10.145 -2.0001  0.9825  0.5179
  109OSM    H7G11255   2.347   2.296  10.031 -2.2987 -1.4996  1.2524
  109OSM    C8F11256   2.506   2.144  10.042  0.5428 -0.1920  0.6621
  109OSM    H8F11257   2.571   2.100  10.121  0.2664  0.4505  1.2495
  109OSM    H8G11258   2.571   2.207   9.977 -0.1081  0.2160  0.4019
  109OSM    C9F11259   2.436   2.039   9.961  0.1924 -0.2704  0.5044
  109OSM    H9F11260   2.413   1.944  10.012 -0.3006 -0.4292 -0.0032
  109OSM   C10F11261   2.407   2.059   9.833  0.4476 -0.6485  0.6348
  109OSM   H10F11262   2.361   1.980   9.771 -0.5533 -0.2015  0.7770
  109OSM   C11F11263   2.428   2.179   9.745  0.1320  0.3240  0.0236
  109OSM   H11F11264   2.468   2.266   9.800  1.4723 -0.3667  0.1728
  109OSM   H11G11265   2.328   2.216   9.713 -0.9072 -1.1706  1.3799
  109OSM   C12F11266   2.513   2.153   9.617 -0.2719 -0.1334  0.2206
  109OSM   H12F11267   2.613   2.115   9.646  0.1342  0.2175 -0.6804
  109OSM   H12G11268   2.520   2.253   9.568  1.1610 -1.4180 -2.3624
  109OSM   C13F11269   2.451   2.052   9.516  0.2782  0.3258 -0.3331
  109OSM   H13F11270   2.340   2.059   9.509  0.0500 -0.2786  1.8478
  109OSM   H13G11271   2.445   1.955   9.568 -0.7108  0.9500  0.7726
  109OSM   C14F11272   2.515   2.051   9.381  0.3166 -0.2904 -0.7426
  109OSM   H14F11273   2.490   1.953   9.334  1.3367 -1.0212  0.1637
  109OSM   H14G11274   2.624   2.040   9.399  0.1182  0.1605  0.8213
  109OSM   C15F11275   2.482   2.169   9.291  0.5725 -0.0910 -0.3344
  109OSM   H15F11276   2.514   2.260   9.346  0.5117 -0.1511 -0.2007
  109OSM   H15G11277   2.371   2.172   9.287  0.5941 -0.1230 -1.7816
  109OSM   C16F11278   2.549   2.171   9.152 -0.1995  0.3030 -0.7437
  109OSM   H16F11279   2.651   2.127   9.148 -0.7654 -0.9553 -2.4578
  109OSM   H16G11280   2.571   2.278   9.134  0.6446  0.5650  1.4811
  109OSM   C17F11281   2.455   2.109   9.044 -0.1544  0.0228  1.1198
  109OSM   H17F11282   2.355   2.150   9.067 -0.1971  0.3907  0.2929
  109OSM   H17G11283   2.451   1.999   9.059 -0.9060 -0.5831 -2.5133
  109OSM   C18F11284   2.487   2.137   8.894  0.0378 -0.5449  0.2761
  109OSM   H18F11285   2.587   2.096   8.867  0.3412 -0.1942  0.8330
  109OSM   H18G11286   2.494   2.247   8.880  2.6025 -0.7834 -1.0102
  109OSM   H18H11287   2.421   2.086   8.820  0.8988 -0.7691 -0.3570
  110OSM      N11288   3.430   4.844  11.043 -0.1687 -0.4443  0.2879
  110OSM    C1511289   3.372   4.717  11.101 -0.1523 -0.5206 -0.1949
  110OSM   H15A11290   3.387   4.712  11.208 -0.0114 -2.9080 -0.2762
  110OSM   H15B11291   3.433   4.636  11.065  0.9767 -0.1070  0.7323
  110OSM   H15C11292   3.267   4.703  11.078 -0.5695 -0.6173  1.5504
  110OSM    C1411293   3.424   4.830  10.889 -0.3724 -0.2366 -0.4282
  110OSM   H14A11294   3.325   4.801  10.855  0.2528 -0.6521 -1.9621
  110OSM   H14B11295   3.486   4.754  10.844 -0.3715 -0.9053  0.6631
  110OSM   H14C11296   3.437   4.928  10.846  2.2358  1.3510  3.4583
  110OSM    C1311297   3.341   4.958  11.077 -0.4484 -0.3023 -0.1252
  110OSM   H13A11298   3.329   4.985  11.180  2.0501  0.2449  0.0755
  110OSM   H13B11299   3.241   4.946  11.036 -0.5344 -2.2303  0.5399
  110OSM   H13C11300   3.378   5.048  11.030 -0.7893 -0.4012 -0.5968
  110OSM    C1211301   3.571   4.870  11.095  0.0502  0.1157  0.1941
  110OSM   H12A11302   3.564   4.868  11.203 -0.9130 -3.1240  0.1927
  110OSM   H12B11303   3.605   4.963  11.053  0.1910 -0.0611 -0.0816
  110OSM    C1111304   3.692   4.771  11.066  0.3091 -0.3537  0.1229
  110OSM   H11A11305   3.780   4.797  11.129  1.9433 -1.4402 -1.6127
  110OSM   H11B11306   3.721   4.788  10.960 -4.4565  0.3804 -1.3015
  110OSM      P11307   3.750   4.517  11.043  0.2559  0.2252 -0.3393
  110OSM    O1311308   3.876   4.553  11.116 -0.0153 -0.1141  0.1951
  110OSM    O1411309   3.695   4.391  11.083 -0.2693 -0.0226  0.4806
  110OSM    O1111310   3.774   4.534  10.892 -0.1138 -0.1440 -0.0283
  110OSM    O1211311   3.657   4.631  11.083 -0.2385 -0.3719  0.3631
  110OSM    C1S11312   3.686   4.500  10.787 -0.0907 -0.5888  0.4050
  110OSM    H1S11313   3.590   4.551  10.812  1.8770  3.6229  0.1625
  110OSM    H1T11314   3.669   4.391  10.772 -1.4155 -0.2417 -0.8373
  110OSM     NF11315   3.648   4.551  10.546 -0.4786 -0.1941 -0.1084
  110OSM    HNF11316   3.658   4.473  10.485  2.5239 -1.0246  1.2567
  110OSM    C2S11317   3.748   4.566  10.655  0.6641  0.0046 -0.1849
  110OSM    H2S11318   3.766   4.672  10.682 -0.2941 -0.0565  0.7570
  110OSM    C3S11319   3.880   4.499  10.620 -0.8408 -0.4307 -0.4973
  110OSM    H3S11320   3.865   4.392  10.594  1.1890 -1.4146  1.9855
  110OSM     O311321   3.968   4.488  10.726 -0.0728 -1.2169 -0.3396
  110OSM    HO311322   3.912   4.505  10.802  0.4456 -0.6091 -0.0762
  110OSM    C4S11323   3.946   4.574  10.505  1.1426  0.3710  0.3192
  110OSM    H4S11324   3.960   4.681  10.525 -0.3642  0.5196  0.7129
  110OSM    C5S11325   3.981   4.522  10.388 -1.2219 -0.5093 -0.2037
  110OSM    H5S11326   3.957   4.415  10.380 -2.3329 -0.2794 -0.1185
  110OSM    C6S11327   4.049   4.590  10.266 -0.7110  0.3077  0.1515
  110OSM    H6S11328   4.143   4.535  10.243 -0.1517  1.0577  0.5809
  110OSM    H6T11329   4.086   4.694  10.280 -1.6842  0.7731 -0.6113
  110OSM    C7S11330   3.960   4.577  10.138  0.2916 -0.5304  0.0444
  110OSM    H7S11331   3.865   4.631  10.158 -0.6854 -3.1452  3.0778
  110OSM    H7T11332   3.925   4.474  10.119  0.1585 -0.4040 -0.4145
  110OSM    C8S11333   4.036   4.627  10.015  1.0300 -0.2180 -0.1520
  110OSM    H8S11334   4.136   4.578  10.007  1.5002  0.8225 -1.0477
  110OSM    H8T11335   4.051   4.737  10.022  1.0839 -0.3167  1.9110
  110OSM    C9S11336   3.952   4.603   9.885  0.3749 -0.1996  0.1175
  110OSM    H9S11337   3.868   4.675   9.879  0.6781  0.0697 -1.1127
  110OSM    H9T11338   3.922   4.496   9.883 -1.6910  0.3369  0.4853
  110OSM   C10S11339   4.029   4.624   9.753 -0.3110 -0.1050  1.1588
  110OSM   H10S11340   4.122   4.564   9.758 -0.6245 -0.6091  1.0252
  110OSM   H10T11341   4.067   4.728   9.747  1.0002 -0.5469  1.3987
  110OSM   C11S11342   3.948   4.582   9.633 -0.2718  0.2727 -0.1115
  110OSM   H11S11343   3.854   4.640   9.636 -1.8288 -2.0367 -1.3213
  110OSM   H11T11344   3.922   4.475   9.648 -0.7732  0.4019 -0.0499
  110OSM   C12S11345   4.018   4.610   9.496 -0.0193  0.3106 -0.2245
  110OSM   H12S11346   4.121   4.571   9.504 -0.3008 -0.2548  1.0196
  110OSM   H12T11347   4.021   4.721   9.502 -1.0393  0.2838  1.5048
  110OSM   C13S11348   3.955   4.562   9.366  0.0988  0.0877 -0.3419
  110OSM   H13S11349   3.854   4.606   9.348  0.3392  0.1185 -1.6576
  110OSM   H13T11350   3.930   4.454   9.367 -1.7074  0.4711 -0.6101
  110OSM   C14S11351   4.052   4.586   9.247  0.2033 -0.0142  0.4949
  110OSM   H14S11352   4.155   4.547   9.262  0.1563 -1.4447 -2.2548
  110OSM   H14T11353   4.068   4.696   9.246  0.7211 -0.0643 -1.9410
  110OSM   C15S11354   4.000   4.546   9.110  0.0553  0.5890 -0.2560
  110OSM   H15S11355   4.077   4.577   9.036 -0.7864  0.5265 -1.1735
  110OSM   H15T11356   3.909   4.604   9.088 -1.7640 -1.6317  0.9696
  110OSM   C16S11357   3.991   4.394   9.105  0.0062  0.6955 -0.0123
  110OSM   H16S11358   3.888   4.371   9.141 -0.6523 -0.4806 -2.4256
  110OSM   H16T11359   4.055   4.337   9.176 -1.5089 -1.3838 -0.2348
  110OSM   C17S11360   4.002   4.341   8.964  0.0480 -0.0123 -0.5918
  110OSM   H17S11361   4.107   4.350   8.928  0.7296 -0.1416  1.2600
  110OSM   H17T11362   3.934   4.380   8.886 -0.7469  0.0964  0.1437
  110OSM   C18S11363   3.979   4.186   8.956 -0.1142  0.0493  0.7625
  110OSM   H18S11364   3.873   4.159   8.974  0.0087 -2.8152 -1.8803
  110OSM   H18T11365   4.047   4.132   9.025  0.2270 -2.2731 -1.2506
  110OSM   H18U11366   3.998   4.158   8.850  0.9367  2.7527  0.1487
  110OSM    C1F11367   3.540   4.628  10.533  0.0456  0.1699  0.9177
  110OSM     OF11368   3.521   4.720  10.612  0.1749  0.3996  0.1561
  110OSM    C2F11369   3.448   4.598  10.419  0.3572  0.0910 -0.8098
  110OSM    H2F11370   3.360   4.542  10.457  0.6553 -0.7694 -1.3682
  110OSM    H2G11371   3.495   4.520  10.355  0.0596  0.8440 -1.9720
  110OSM    C3F11372   3.381   4.722  10.356  0.4683 -0.3222 -0.6225
  110OSM    H3F11373   3.461   4.793  10.326  1.4402 -0.0526  2.3413
  110OSM    H3G11374   3.327   4.775  10.437  0.9837  1.6517 -1.5232
  110OSM    C4F11375   3.293   4.700  10.237  0.6217 -0.2873 -0.4343
  110OSM    H4F11376   3.243   4.799  10.233 -1.4836 -1.0951  2.5096
  110OSM    H4G11377   3.209   4.632  10.263  0.8053 -0.1520  0.5490
  110OSM    C5F11378   3.380   4.673  10.114  0.1936 -0.1721 -0.3604
  110OSM    H5F11379   3.414   4.567  10.108 -0.8769 -0.5952  0.7578
  110OSM    H5G11380   3.475   4.731  10.120 -0.1372  0.2257  1.3498
  110OSM    C6F11381   3.310   4.716   9.991 -0.4959  0.3403  0.3925
  110OSM    H6F11382   3.337   4.822   9.968  1.1084 -0.5194 -2.1903
  110OSM    H6G11383   3.200   4.706  10.009 -0.5244 -1.3873 -0.5156
  110OSM    C7F11384   3.361   4.630   9.870 -0.2878 -0.4416 -0.0774
  110OSM    H7F11385   3.355   4.521   9.893 -0.4637 -0.4704 -0.2538
  110OSM    H7G11386   3.470   4.653   9.866  0.2213 -2.1578  1.9656
  110OSM    C8F11387   3.285   4.671   9.747  0.0392  0.1203 -0.8196
  110OSM    H8F11388   3.321   4.775   9.733  3.1036 -0.5823  0.9207
  110OSM    H8G11389   3.177   4.658   9.764  0.4737 -0.9790  1.4072
  110OSM    C9F11390   3.314   4.572   9.633  0.0157 -0.7406 -0.6212
  110OSM    H9F11391   3.276   4.470   9.650 -2.4471  0.1538 -0.4680
  110OSM   C10F11392   3.370   4.604   9.512 -0.2931  0.4525 -0.2312
  110OSM   H10F11393   3.371   4.527   9.433 -0.8447  0.1523  0.0492
  110OSM   C11F11394   3.429   4.735   9.473 -0.9043 -1.3729  0.1113
  110OSM   H11F11395   3.434   4.803   9.560 -0.0210 -0.9263 -0.2743
  110OSM   H11G11396   3.366   4.782   9.394 -0.8655 -2.7803 -0.7869
  110OSM   C12F11397   3.573   4.730   9.410 -0.3091 -0.0811 -0.9698
  110OSM   H12F11398   3.630   4.659   9.474  0.5589  3.0088  1.9999
  110OSM   H12G11399   3.629   4.825   9.423 -1.6103  0.3804  2.5269
  110OSM   C13F11400   3.573   4.679   9.265 -0.1504  0.0467 -0.0664
  110OSM   H13F11401   3.523   4.580   9.260  1.2428 -0.6434 -0.5415
  110OSM   H13G11402   3.681   4.679   9.239 -0.1263  0.1417  0.0300
  110OSM   C14F11403   3.527   4.769   9.157  0.4755 -0.1100 -0.2835
  110OSM   H14F11404   3.525   4.869   9.204 -0.7837 -0.5348  0.6173
  110OSM   H14G11405   3.423   4.750   9.124 -0.0006  0.2691  0.9350
  110OSM   C15F11406   3.615   4.770   9.029 -0.2160 -0.5845  0.1932
  110OSM   H15F11407   3.722   4.773   9.058  0.3181  2.1586 -1.6340
  110OSM   H15G11408   3.599   4.865   8.974  0.6780  0.3830  1.5353
  110OSM   C16F11409   3.588   4.642   8.947  0.5134 -0.7438  1.2966
  110OSM   H16F11410   3.481   4.636   8.919  0.9218  0.9308 -0.9463
  110OSM   H16G11411   3.616   4.545   8.994  3.1076 -0.6977  0.0481
  110OSM   C17F11412   3.666   4.646   8.818  0.3549 -0.2262 -0.2172
  110OSM   H17F11413   3.771   4.671   8.846 -0.3233  0.6006  1.7508
  110OSM   H17G11414   3.639   4.731   8.752  1.3841 -0.6923 -1.2923
  110OSM   C18F11415   3.663   4.516   8.740 -0.6803  0.9931 -0.2585
  110OSM   H18F11416   3.690   4.436   8.813 -1.8683 -1.6143 -2.4709
  110OSM   H18G11417   3.734   4.506   8.655 -1.0674 -0.5191 -0.4330
  110OSM   H18H11418   3.557   4.504   8.707 -0.3331 -0.2947 -0.9825
  111OSM      N11419   2.804   1.655  10.807 -0.8242 -0.6988 -0.2548
  111OSM    C1511420   2.953   1.667  10.793 -0.0551 -0.0845  0.1674
  111OSM   H15A11421   2.987   1.665  10.691  2.8972  3.1020  0.8802
  111OSM   H15B11422   3.008   1.592  10.848  2.6797  1.0623 -0.8516
  111OSM   H15C11423   2.972   1.768  10.828 -1.2365 -0.0708  0.8281
  111OSM    C1411424   2.761   1.512  10.770 -0.6233 -0.4451  0.0331
  111OSM   H14A11425   2.657   1.488  10.790 -0.3125 -2.7127 -0.7853
  111OSM   H14B11426   2.826   1.444  10.823 -0.6773  0.2456  1.0279
  111OSM   H14C11427   2.786   1.493  10.667  1.7250 -0.7694  0.6026
  111OSM    C1311428   2.762   1.679  10.951 -0.3378 -0.7947 -0.3770
  111OSM   H13A11429   2.655   1.664  10.947 -0.0410 -3.0528 -2.7807
  111OSM   H13B11430   2.780   1.782  10.977 -0.5122 -1.4396  2.5689
  111OSM   H13C11431   2.815   1.621  11.025 -0.9672  0.2914  0.9750
  111OSM    C1211432   2.732   1.752  10.711  0.1175  0.4163 -0.0389
  111OSM   H12A11433   2.627   1.731  10.703 -0.5846  3.2367  0.6120
  111OSM   H12B11434   2.763   1.749  10.608 -0.6277 -0.3324 -0.2482
  111OSM    C1111435   2.745   1.899  10.747  0.0915  0.2678  0.0861
  111OSM   H11A11436   2.727   1.907  10.856 -0.9081 -1.0417  0.0407
  111OSM   H11B11437   2.673   1.963  10.691 -0.1294 -1.5533 -1.8198
  111OSM      P11438   2.931   2.066  10.808 -0.1476 -0.0707  0.0689
  111OSM    O1311439   2.819   2.158  10.837 -0.2087  0.0300 -0.0244
  111OSM    O1411440   3.003   2.016  10.936  0.0452 -0.6267  0.1537
  111OSM    O1111441   3.040   2.131  10.721  0.7483  0.0633  0.2876
  111OSM    O1211442   2.884   1.941  10.729  0.3161  0.5930 -0.6299
  111OSM    C1S11443   3.058   2.100  10.585  0.2731 -0.0089 -0.0709
  111OSM    H1S11444   3.053   1.993  10.557 -0.1554  0.3224 -1.3633
  111OSM    H1T11445   3.163   2.124  10.556  1.4069 -3.0405  1.1146
  111OSM     NF11446   2.970   2.141  10.358 -0.4017 -0.6204 -0.1470
  111OSM    HNF11447   3.016   2.207  10.299  0.3767  0.3973  1.5254
  111OSM    C2S11448   2.963   2.188  10.499  0.0505  0.4493  0.9881
  111OSM    H2S11449   2.858   2.178  10.534  0.4459  0.7850  2.3322
  111OSM    C3S11450   3.002   2.344  10.518 -0.2937 -0.1667  0.0865
  111OSM    H3S11451   3.105   2.352  10.479 -0.9788 -2.2558 -2.5197
  111OSM     O311452   3.001   2.385  10.653 -0.3525  0.0775 -0.1070
  111OSM    HO311453   2.972   2.306  10.699 -0.6717 -0.4087 -1.1125
  111OSM    C4S11454   2.909   2.421  10.425 -0.2327  0.2594  0.1877
  111OSM    H4S11455   2.947   2.436  10.323  1.0181  0.0407  0.6149
  111OSM    C5S11456   2.783   2.457  10.445 -0.6245  0.5176 -0.7781
  111OSM    H5S11457   2.738   2.442  10.545  0.9283 -2.5337 -0.4082
  111OSM    C6S11458   2.685   2.528  10.354 -0.1508  0.3760  0.3707
  111OSM    H6S11459   2.665   2.634  10.383 -1.6768  0.2047  0.0106
  111OSM    H6T11460   2.586   2.486  10.381 -0.2329 -0.1386 -0.7154
  111OSM    C7S11461   2.712   2.509  10.211 -0.3520 -0.1995 -1.2130
  111OSM    H7S11462   2.688   2.406  10.179  0.1255 -0.6431 -0.1900
  111OSM    H7T11463   2.816   2.542  10.190  0.5058 -2.1770 -0.3234
  111OSM    C8S11464   2.628   2.611  10.130  0.2124 -0.0635  0.1020
  111OSM    H8S11465   2.632   2.707  10.185  0.3966 -0.4969  0.8497
  111OSM    H8T11466   2.522   2.580  10.115  0.0458  0.1312  0.8705
  111OSM    C9S11467   2.686   2.614   9.988 -0.0984 -0.4664  0.0040
  111OSM    H9S11468   2.605   2.668   9.934 -0.7129  0.1472  1.4903
  111OSM    H9T11469   2.706   2.508   9.961  0.9706  0.2667 -2.2904
  111OSM   C10S11470   2.814   2.697   9.980  0.2383 -0.6870 -0.0838
  111OSM   H10S11471   2.894   2.657  10.046 -0.1141  0.1077  0.8417
  111OSM   H10T11472   2.796   2.799  10.020  1.4635 -0.4192 -0.1843
  111OSM   C11S11473   2.860   2.708   9.835  0.3365  0.7415 -0.6765
  111OSM   H11S11474   2.767   2.714   9.775  0.0207 -0.6050 -0.3497
  111OSM   H11T11475   2.913   2.615   9.806  0.1142 -0.4273  2.2558
  111OSM   C12S11476   2.943   2.829   9.802  0.1734 -0.7997  0.0290
  111OSM   H12S11477   3.048   2.814   9.836  0.2264  0.1856  0.3374
  111OSM   H12T11478   2.890   2.908   9.859 -0.7201 -0.6581 -0.9762
  111OSM   C13S11479   2.947   2.875   9.648 -0.6778  0.1047 -0.1123
  111OSM   H13S11480   3.034   2.944   9.639 -1.0177  0.7144  1.0022
  111OSM   H13T11481   2.855   2.929   9.619 -1.0867 -0.1078  0.7533
  111OSM   C14S11482   2.952   2.762   9.547 -0.0304  0.1238  0.2374
  111OSM   H14S11483   2.865   2.693   9.550 -1.1977  1.5025 -0.6681
  111OSM   H14T11484   3.041   2.705   9.581 -1.2417 -1.7278  0.4497
  111OSM   C15S11485   2.976   2.804   9.401 -0.9644 -1.1681 -0.1650
  111OSM   H15S11486   3.082   2.836   9.389 -0.7656 -1.6794  0.2101
  111OSM   H15T11487   2.908   2.889   9.380  1.8098  1.2289 -0.1040
  111OSM   C16S11488   2.954   2.684   9.309  0.3335  0.4505 -0.1726
  111OSM   H16S11489   2.857   2.638   9.338  1.1710 -1.5398 -0.3712
  111OSM   H16T11490   3.034   2.610   9.331 -0.8971 -0.6276  0.8575
  111OSM   C17S11491   2.956   2.715   9.157 -0.3559 -0.0438  0.2181
  111OSM   H17S11492   2.899   2.807   9.132  0.9735  0.3990 -1.3428
  111OSM   H17T11493   2.890   2.639   9.109  1.6738 -1.6522 -0.1715
  111OSM   C18S11494   3.093   2.725   9.096 -0.0991 -0.1866 -0.3381
  111OSM   H18S11495   3.154   2.798   9.155  1.3731 -1.4568 -0.2071
  111OSM   H18T11496   3.086   2.755   8.989  0.4067 -2.3909 -1.0443
  111OSM   H18U11497   3.146   2.627   9.094  0.0436 -0.1294  0.3547
  111OSM    C1F11498   2.910   2.034  10.316 -0.8292 -0.1312 -0.5639
  111OSM     OF11499   2.819   1.988  10.379  0.1975  0.2586  0.4125
  111OSM    C2F11500   2.975   1.963  10.204  0.0366 -0.3630 -0.5529
  111OSM    H2F11501   3.006   1.865  10.246  2.3629  1.2490  1.8062
  111OSM    H2G11502   3.076   1.999  10.174 -0.1109 -0.7681 -1.5725
  111OSM    C3F11503   2.874   1.943  10.087  0.6915  0.6788  0.5905
  111OSM    H3F11504   2.842   2.044  10.054  2.2525  1.4165  1.2395
  111OSM    H3G11505   2.786   1.879  10.110  0.9359  0.1607  0.1116
  111OSM    C4F11506   2.938   1.889   9.959 -0.0351 -0.6804 -0.5361
  111OSM    H4F11507   2.987   1.791   9.979 -0.9699 -0.6339  2.4006
  111OSM    H4G11508   3.019   1.958   9.927 -2.5565  1.7647 -2.0268
  111OSM    C5F11509   2.828   1.882   9.846  0.5713  0.3052  0.1895
  111OSM    H5F11510   2.787   1.985   9.835 -1.0854 -0.2577  0.7263
  111OSM    H5G11511   2.739   1.822   9.874 -0.5113  2.5306  1.8815
  111OSM    C6F11512   2.896   1.823   9.716 -0.4449 -0.5198  0.3012
  111OSM    H6F11513   2.955   1.734   9.747 -0.2970 -0.9843 -1.2214
  111OSM    H6G11514   2.956   1.909   9.680 -1.7336  0.6929  0.9751
  111OSM    C7F11515   2.793   1.798   9.604 -0.2326  0.1443  0.1603
  111OSM    H7F11516   2.761   1.904   9.593  4.1543  1.6242 -0.5075
  111OSM    H7G11517   2.706   1.735   9.629  0.5296 -0.3312  1.7129
  111OSM    C8F11518   2.875   1.752   9.478 -0.1755 -0.4226  0.4280
  111OSM    H8F11519   2.907   1.649   9.501 -0.4752 -0.6987 -0.3574
  111OSM    H8G11520   2.962   1.822   9.476 -2.1797  2.2377  0.3459
  111OSM    C9F11521   2.780   1.781   9.360  0.2192  0.2486 -0.1350
  111OSM    H9F11522   2.689   1.839   9.380 -1.4640 -1.8455 -1.3183
  111OSM   C10F11523   2.804   1.774   9.227 -0.6673 -0.2237 -1.0388
  111OSM   H10F11524   2.719   1.806   9.165  0.6363  1.2291 -2.1556
  111OSM   C11F11525   2.926   1.745   9.147 -0.2044 -0.3473  0.2864
  111OSM   H11F11526   2.916   1.652   9.088 -0.4802 -0.3886  0.3969
  111OSM   H11G11527   3.013   1.727   9.214  1.7048  0.7123 -1.7987
  111OSM   C12F11528   2.982   1.850   9.045  0.3012  0.2319  0.1441
  111OSM   H12F11529   3.075   1.816   8.995 -0.3884 -0.6003 -0.6085
  111OSM   H12G11530   3.002   1.944   9.100  3.0784 -0.7686  0.9860
  111OSM   C13F11531   2.879   1.878   8.938  0.3920  0.1479 -0.5983
  111OSM   H13F11532   2.824   1.966   8.978  1.4744  0.4980  0.1369
  111OSM   H13G11533   2.808   1.792   8.938  0.2278  0.2507  1.0308
  111OSM   C14F11534   2.913   1.910   8.791  0.2822  0.4313 -0.1441
  111OSM   H14F11535   2.985   1.834   8.753  2.2191  1.2685  1.6274
  111OSM   H14G11536   2.957   2.012   8.789  1.1663  0.0574 -0.4778
  111OSM   C15F11537   2.787   1.902   8.704 -0.2677 -1.1373  1.0322
  111OSM   H15F11538   2.707   1.946   8.767 -0.6679 -1.2321  0.5932
  111OSM   H15G11539   2.779   1.793   8.684  0.0554 -0.5635 -3.2570
  111OSM   C16F11540   2.794   1.976   8.567 -0.0246  0.1341  0.7041
  111OSM   H16F11541   2.879   1.925   8.516 -0.5961  0.9392 -1.1152
  111OSM   H16G11542   2.825   2.083   8.566 -0.3922  0.4335 -4.4135
  111OSM   C17F11543   2.671   1.966   8.468  0.3243 -0.5533 -0.0593
  111OSM   H17F11544   2.645   1.858   8.461  0.2988 -0.5411 -0.1460
  111OSM   H17G11545   2.699   2.015   8.373  0.3482 -3.2596 -1.5654
  111OSM   C18F11546   2.539   2.031   8.524  0.1713 -0.2220  0.3899
  111OSM   H18F11547   2.577   2.119   8.580 -1.3105  2.0550 -1.9468
  111OSM   H18G11548   2.478   1.963   8.588 -1.4939  1.1142  0.3129
  111OSM   H18H11549   2.468   2.071   8.448 -1.1664 -2.0091  0.6333
  112OSM      N11550   4.323   6.320  10.429 -0.0147 -0.3938  0.9502
  112OSM    C1511551   4.455   6.339  10.478  0.2136 -0.1319 -0.5788
  112OSM   H15A11552   4.488   6.442  10.480 -0.3282  0.0522  1.4284
  112OSM   H15B11553   4.523   6.269  10.433 -0.2876 -1.7161  1.0118
  112OSM   H15C11554   4.464   6.315  10.583 -0.3947  1.5263 -0.1136
  112OSM    C1411555   4.221   6.388  10.511 -0.0580 -0.0194  0.0648
  112OSM   H14A11556   4.129   6.395  10.454 -0.2259  2.4789  0.5075
  112OSM   H14B11557   4.258   6.489  10.520 -3.5332  1.2626  2.2334
  112OSM   H14C11558   4.197   6.352  10.610 -1.2476  0.5153 -0.0045
  112OSM    C1311559   4.296   6.370  10.292  0.4067 -0.5076 -0.4102
  112OSM   H13A11560   4.361   6.327  10.217  2.3129  1.0225  0.2801
  112OSM   H13B11561   4.322   6.475  10.285  1.0599 -0.5232  1.3369
  112OSM   H13C11562   4.190   6.360  10.277  0.0491  1.1216  0.7159
  112OSM    C1211563   4.295   6.173  10.447 -0.0815 -0.2416  0.5149
  112OSM   H12A11564   4.196   6.154  10.408 -0.0809 -1.7882  1.1940
  112OSM   H12B11565   4.288   6.134  10.547 -1.3100 -0.9557  0.1662
  112OSM    C1111566   4.394   6.076  10.378  1.3424 -0.3481  0.1344
  112OSM   H11A11567   4.426   6.129  10.286  0.7508 -1.4210 -0.7211
  112OSM   H11B11568   4.345   5.983  10.341 -0.2045  0.5559 -0.1469
  112OSM      P11569   4.513   5.972  10.580  0.0501 -0.2227 -0.6676
  112OSM    O1311570   4.459   6.066  10.689 -0.3447 -0.2687  0.4409
  112OSM    O1411571   4.430   5.849  10.562 -0.2472 -0.4584 -0.3112
  112OSM    O1111572   4.662   5.926  10.600 -0.1254 -0.2979  0.7631
  112OSM    O1211573   4.513   6.059  10.447 -0.5430  0.3099  0.0034
  112OSM    C1S11574   4.784   6.002  10.576  0.2974  0.0711  0.2276
  112OSM    H1S11575   4.846   5.996  10.668 -1.4400  1.3413  1.5425
  112OSM    H1T11576   4.764   6.107  10.548  0.2908 -0.6055 -2.5494
  112OSM     NF11577   4.821   5.977  10.332 -0.2535  0.0252  0.1418
  112OSM    HNF11578   4.769   5.907  10.284  0.9839 -0.7350 -0.1331
  112OSM    C2S11579   4.871   5.947  10.461 -0.0428 -0.7660 -0.1653
  112OSM    H2S11580   4.970   5.998  10.461 -0.6116  0.3751  0.2654
  112OSM    C3S11581   4.910   5.799  10.491  0.1991  0.3491  0.1615
  112OSM    H3S11582   4.821   5.733  10.486  1.4736 -1.3819 -2.7794
  112OSM     O311583   4.973   5.779  10.617  0.3410  0.2114 -0.1481
  112OSM    HO311584   4.968   5.864  10.660 -3.0285  0.1735 -0.1516
  112OSM    C4S11585   4.998   5.746  10.382 -0.7745 -0.0457  0.3388
  112OSM    H4S11586   5.082   5.808  10.348 -0.4133 -0.3996  0.5849
  112OSM    C5S11587   4.984   5.625  10.325  0.2123  0.2025  0.3808
  112OSM    H5S11588   4.897   5.562  10.347  1.2118 -1.5960 -0.5538
  112OSM    C6S11589   5.075   5.571  10.215  0.1385  0.0838 -0.1778
  112OSM    H6S11590   5.143   5.503  10.270 -1.8056  0.3224  2.7958
  112OSM    H6T11591   5.144   5.651  10.182 -1.4075  0.5823 -2.4582
  112OSM    C7S11592   4.996   5.529  10.096  0.1451  0.4753  0.3356
  112OSM    H7S11593   4.917   5.607  10.087 -1.2881 -0.9416  0.2486
  112OSM    H7T11594   4.934   5.438  10.111  1.7976 -0.6025  0.8476
  112OSM    C8S11595   5.088   5.519   9.973 -1.3692 -0.6207  0.3317
  112OSM    H8S11596   5.181   5.459   9.989  1.1363  2.0857 -2.6935
  112OSM    H8T11597   5.125   5.619   9.944  1.0434 -1.5259  0.0322
  112OSM    C9S11598   5.012   5.466   9.850 -0.9830  0.4943  0.1651
  112OSM    H9S11599   4.904   5.493   9.849 -1.5544 -1.5954  1.0257
  112OSM    H9T11600   5.014   5.355   9.860 -0.5755  0.5864  1.2254
  112OSM   C10S11601   5.086   5.488   9.708  0.0361  0.1344 -0.6269
  112OSM   H10S11602   5.181   5.431   9.714 -0.8099 -1.1976  0.9523
  112OSM   H10T11603   5.089   5.598   9.690 -0.2277  0.4293  0.9659
  112OSM   C11S11604   4.991   5.432   9.597  0.2680 -0.2878  0.1581
  112OSM   H11S11605   4.892   5.480   9.581  0.0976  0.1313  2.1497
  112OSM   H11T11606   4.984   5.321   9.603  0.7212 -0.3472 -0.3295
  112OSM   C12S11607   5.057   5.466   9.457  0.3600 -0.7540 -0.9120
  112OSM   H12S11608   5.153   5.411   9.455  2.0959  1.8037  2.2034
  112OSM   H12T11609   5.087   5.573   9.455  0.1966 -0.6452  0.8115
  112OSM   C13S11610   4.965   5.443   9.334  0.1318 -0.8212  0.3641
  112OSM   H13S11611   4.898   5.531   9.330  0.0030 -0.8991  0.7607
  112OSM   H13T11612   4.908   5.352   9.361  0.8454 -0.8238  2.0341
  112OSM   C14S11613   5.050   5.407   9.211  0.0723 -0.0765  0.2343
  112OSM   H14S11614   5.122   5.325   9.233  0.2257 -0.5840 -1.9236
  112OSM   H14T11615   5.114   5.495   9.191 -2.0055  2.5706  3.9540
  112OSM   C15S11616   4.964   5.359   9.088  0.1983  0.2490 -0.5297
  112OSM   H15S11617   4.886   5.436   9.065 -0.0270  0.0934 -0.2898
  112OSM   H15T11618   4.920   5.259   9.111  2.5372 -0.2852  2.2126
  112OSM   C16S11619   5.050   5.349   8.959  0.1342 -0.3368  0.5723
  112OSM   H16S11620   5.135   5.278   8.970  2.2743  2.0000  0.0423
  112OSM   H16T11621   5.093   5.451   8.945 -1.7119  0.4443  0.2844
  112OSM   C17S11622   4.973   5.324   8.825 -0.2053  0.8619 -0.3779
  112OSM   H17S11623   4.915   5.232   8.847 -0.7008  0.6938 -2.1628
  112OSM   H17T11624   5.040   5.305   8.738  0.8329  2.5106  0.0117
  112OSM   C18S11625   4.873   5.428   8.780 -0.5469  0.4585 -0.5177
  112OSM   H18S11626   4.915   5.530   8.767 -1.0341  0.7373  0.0198
  112OSM   H18T11627   4.798   5.442   8.861  0.3156  1.9272  0.0630
  112OSM   H18U11628   4.821   5.405   8.685 -3.1384 -1.3501  1.1871
  112OSM    C1F11629   4.808   6.107  10.288  0.3682  0.2382 -0.5620
  112OSM     OF11630   4.870   6.188  10.350  0.1353  0.3020  0.2176
  112OSM    C2F11631   4.710   6.141  10.185  0.2313  1.1724 -0.1120
  112OSM    H2F11632   4.611   6.124  10.232  0.4730  1.2380  0.4324
  112OSM    H2G11633   4.714   6.058  10.111 -2.1125  1.6192 -0.8121
  112OSM    C3F11634   4.713   6.277  10.134  0.7395 -0.4485 -0.5681
  112OSM    H3F11635   4.811   6.292  10.086  0.2019 -0.0482 -1.5762
  112OSM    H3G11636   4.685   6.350  10.213  1.3462 -1.5484  0.7201
  112OSM    C4F11637   4.603   6.306  10.023 -0.3622  0.2503 -0.3566
  112OSM    H4F11638   4.502   6.276  10.059  0.1755 -1.3027 -0.0396
  112OSM    H4G11639   4.615   6.240   9.934  0.5419 -1.9925  1.3321
  112OSM    C5F11640   4.594   6.446   9.980  0.7092  0.0231  0.0716
  112OSM    H5F11641   4.678   6.481   9.916  0.2796 -1.2081 -1.2200
  112OSM    H5G11642   4.590   6.509  10.071 -1.4072  1.8643 -1.1913
  112OSM    C6F11643   4.455   6.480   9.930  0.0329 -0.3019  0.7268
  112OSM    H6F11644   4.440   6.590   9.941 -0.0587 -0.4886  2.8183
  112OSM    H6G11645   4.367   6.432   9.976  1.6064 -3.6132  0.5382
  112OSM    C7F11646   4.453   6.444   9.786  0.3866  0.4067  0.2976
  112OSM    H7F11647   4.451   6.333   9.772  0.3296  0.5459 -0.9321
  112OSM    H7G11648   4.554   6.459   9.742  0.9158 -0.2911  1.2336
  112OSM    C8F11649   4.338   6.512   9.713  0.4080  0.4565  0.2972
  112OSM    H8F11650   4.251   6.499   9.781  0.5301 -0.9312  0.2215
  112OSM    H8G11651   4.312   6.447   9.626  0.5076 -0.8361  1.2035
  112OSM    C9F11652   4.351   6.655   9.680 -0.6272 -0.4603  0.3288
  112OSM    H9F11653   4.374   6.723   9.764 -1.0379  0.6037 -0.4061
  112OSM   C10F11654   4.338   6.712   9.556  0.5284 -0.6365  0.1218
  112OSM   H10F11655   4.339   6.822   9.552  3.7390 -0.6000 -0.8507
  112OSM   C11F11656   4.315   6.639   9.422 -0.3775  0.2910 -0.2761
  112OSM   H11F11657   4.304   6.528   9.430  0.7224  0.1795 -0.1647
  112OSM   H11G11658   4.406   6.652   9.359  1.1230 -0.0680  1.6934
  112OSM   C12F11659   4.185   6.688   9.353 -0.6842  0.1956 -0.4803
  112OSM   H12F11660   4.106   6.668   9.429  1.0784 -1.3451  1.0378
  112OSM   H12G11661   4.174   6.630   9.259 -1.7490 -0.0681 -0.2016
  112OSM   C13F11662   4.180   6.831   9.324 -0.2683  0.1994 -0.1416
  112OSM   H13F11663   4.269   6.849   9.260 -0.3297  0.0500 -0.2688
  112OSM   H13G11664   4.185   6.895   9.414  0.5568  0.3928 -0.3183
  112OSM   C14F11665   4.062   6.886   9.247  0.7814 -0.6773  0.0072
  112OSM   H14F11666   3.982   6.919   9.317  0.0178  0.6195 -1.4188
  112OSM   H14G11667   4.026   6.800   9.186 -0.8269  0.3577 -0.5612
  112OSM   C15F11668   4.096   6.993   9.143 -0.2820 -0.6019 -0.1006
  112OSM   H15F11669   4.164   6.945   9.069  1.1344  1.9334 -0.5592
  112OSM   H15G11670   4.151   7.081   9.184  0.7453 -0.6875 -1.2460
  112OSM   C16F11671   3.981   7.034   9.052 -0.3102 -0.1988  0.3939
  112OSM   H16F11672   3.904   7.087   9.112 -1.3507 -1.2345  0.0107
  112OSM   H16G11673   3.946   6.947   8.993 -0.4134 -0.3424  0.6646
  112OSM   C17F11674   4.027   7.123   8.939  0.2788 -0.3567 -0.7532
  112OSM   H17F11675   3.931   7.131   8.883  0.2631 -0.3699 -0.7279
  112OSM   H17G11676   4.107   7.079   8.875  0.4428  0.7778 -1.3432
  112OSM   C18F11677   4.070   7.264   8.977 -0.6660 -0.1020 -0.1944
  112OSM   H18F11678   4.152   7.253   9.051  1.0907 -0.0670 -2.0738
  112OSM   H18G11679   3.990   7.324   9.026 -1.2071 -1.0794  0.1449
  112OSM   H18H11680   4.117   7.318   8.892 -0.4444  1.3860  0.8407
  113OSM      N11681   5.630   4.271  11.149  0.5781 -0.5093 -0.3180
  113OSM    C1511682   5.775   4.256  11.188 -0.0714 -0.1739 -0.2297
  113OSM   H15A11683   5.797   4.359  11.215  0.9285 -0.9175  2.0293
  113OSM   H15B11684   5.841   4.223  11.109  0.1715 -0.3630  0.0525
  113OSM   H15C11685   5.787   4.195  11.276  2.2726 -0.6855 -0.8409
  113OSM    C1411686   5.579   4.138  11.112 -0.4005 -0.5948 -0.2523
  113OSM   H14A11687   5.477   4.141  11.078 -0.6565 -0.2208  0.5395
  113OSM   H14B11688   5.573   4.076  11.200 -0.9262 -1.8341 -1.1268
  113OSM   H14C11689   5.647   4.087  11.045 -0.4226 -1.9670  0.7326
  113OSM    C1311690   5.552   4.322  11.266  0.2097 -0.1597 -0.5405
  113OSM   H13A11691   5.445   4.318  11.256  0.2149  0.5322 -0.9702
  113OSM   H13B11692   5.564   4.429  11.279  0.2083 -0.0664 -1.2865
  113OSM   H13C11693   5.566   4.264  11.356 -2.0387  1.7332  1.1802
  113OSM    C1211694   5.629   4.365  11.032  0.3812 -0.5884 -0.5301
  113OSM   H12A11695   5.535   4.354  10.979 -0.5017 -0.6452  1.0102
  113OSM   H12B11696   5.707   4.325  10.968  0.0597 -0.6672 -0.8815
  113OSM    C1111697   5.648   4.512  11.040 -0.3748 -0.0837 -0.8704
  113OSM   H11A11698   5.570   4.552  11.108  1.5335  2.8001 -0.1565
  113OSM   H11B11699   5.632   4.562  10.942 -1.5136 -0.2561 -0.7784
  113OSM      P11700   5.797   4.710  11.133 -0.3034  0.3681  0.2302
  113OSM    O1311701   5.723   4.733  11.255  0.3334  0.1565 -0.0523
  113OSM    O1411702   5.944   4.739  11.136  0.5568 -0.3761  0.3194
  113OSM    O1111703   5.722   4.798  11.019  1.2649  0.0834 -0.4476
  113OSM    O1211704   5.774   4.551  11.094  0.1417  0.0362 -0.1231
  113OSM    C1S11705   5.757   4.787  10.882  0.4663 -0.3080  0.5912
  113OSM    H1S11706   5.733   4.686  10.844  0.9505  0.5623 -2.2536
  113OSM    H1T11707   5.864   4.811  10.866 -0.1678  0.4802 -3.4019
  113OSM     NF11708   5.706   4.850  10.648 -0.3339  0.5039  0.0875
  113OSM    HNF11709   5.763   4.905  10.587 -2.1267  1.0671 -1.1834
  113OSM    C2S11710   5.673   4.877  10.792  0.1252 -0.6415  0.4765
  113OSM    H2S11711   5.569   4.842  10.812 -0.6122 -0.4690 -2.5957
  113OSM    C3S11712   5.687   5.024  10.836 -0.4855 -0.2660 -0.0136
  113OSM    H3S11713   5.792   5.052  10.815 -0.9259  0.7584 -0.9809
  113OSM     O311714   5.666   5.052  10.977 -0.4033  0.6059 -0.4502
  113OSM    HO311715   5.703   4.975  11.021 -2.5856 -0.0655  0.3438
  113OSM    C4S11716   5.593   5.118  10.765  0.6558  0.1779 -0.0940
  113OSM    H4S11717   5.493   5.125  10.812 -0.0323  1.7643 -1.6983
  113OSM    C5S11718   5.634   5.190  10.659 -0.0512  0.2139  0.1829
  113OSM    H5S11719   5.736   5.172  10.620 -0.2976 -0.2678 -0.2515
  113OSM    C6S11720   5.567   5.291  10.572  1.2062 -0.3512  0.0020
  113OSM    H6S11721   5.617   5.389  10.561  1.6151 -0.3676  1.5848
  113OSM    H6T11722   5.475   5.327  10.622  1.5663  2.5895 -1.2654
  113OSM    C7S11723   5.507   5.236  10.443  0.2168 -0.2308 -0.7057
  113OSM    H7S11724   5.449   5.315  10.392  0.6924 -0.5474 -1.7685
  113OSM    H7T11725   5.445   5.144  10.451  1.7181 -1.4479 -2.3202
  113OSM    C8S11726   5.618   5.193  10.345 -0.4338 -0.4874 -0.5485
  113OSM    H8S11727   5.688   5.124  10.396 -0.2078 -0.6010 -1.0042
  113OSM    H8T11728   5.677   5.286  10.332  1.8644 -1.5773  1.3947
  113OSM    C9S11729   5.566   5.134  10.210 -0.0468  0.0351  0.4945
  113OSM    H9S11730   5.547   5.025  10.222 -0.4921 -0.1264 -1.3303
  113OSM    H9T11731   5.654   5.140  10.142  1.2486  1.1128  2.1746
  113OSM   C10S11732   5.446   5.201  10.141 -0.4854  0.1514 -0.2355
  113OSM   H10S11733   5.460   5.310  10.125 -0.4176  0.3739  1.1978
  113OSM   H10T11734   5.375   5.187  10.226  0.4241  0.9834  0.6901
  113OSM   C11S11735   5.389   5.143  10.013 -0.2963 -0.8910 -0.1023
  113OSM   H11S11736   5.290   5.189   9.996 -0.3728 -1.4218 -1.2371
  113OSM   H11T11737   5.380   5.032  10.025 -0.2890 -0.8464  0.3300
  113OSM   C12S11738   5.472   5.183   9.883 -0.0356  0.4776 -0.5877
  113OSM   H12S11739   5.574   5.138   9.892  0.1448  0.9664 -0.1571
  113OSM   H12T11740   5.485   5.292   9.893  0.1319  0.4324 -0.2805
  113OSM   C13S11741   5.416   5.158   9.746  0.1115 -0.2041 -0.4245
  113OSM   H13S11742   5.310   5.191   9.753  0.3391  0.2929  0.8656
  113OSM   H13T11743   5.418   5.049   9.724  0.8912 -0.2020 -0.3651
  113OSM   C14S11744   5.484   5.235   9.626 -0.1641 -0.3839  0.2082
  113OSM   H14S11745   5.593   5.211   9.624  0.0778  0.6497  0.2850
  113OSM   H14T11746   5.470   5.343   9.650 -0.0471 -0.2713 -0.2240
  113OSM   C15S11747   5.421   5.190   9.497 -0.3058  0.3335 -0.2642
  113OSM   H15S11748   5.310   5.190   9.491 -0.2513  1.1242 -1.9203
  113OSM   H15T11749   5.437   5.081   9.484 -0.3007  0.4686 -1.5247
  113OSM   C16S11750   5.469   5.255   9.370 -0.2163  0.2202 -0.7910
  113OSM   H16S11751   5.577   5.234   9.355  0.9866  2.0357  3.7161
  113OSM   H16T11752   5.452   5.363   9.388  0.0441  0.4459 -1.8205
  113OSM   C17S11753   5.386   5.201   9.252 -0.3294  0.5438  0.4649
  113OSM   H17S11754   5.412   5.270   9.170  1.1696 -0.6962 -0.1433
  113OSM   H17T11755   5.278   5.206   9.279 -0.3868  2.4791 -0.0166
  113OSM   C18S11756   5.419   5.055   9.206  0.1866 -0.3978 -0.5085
  113OSM   H18S11757   5.381   4.980   9.279 -2.4719  2.1184  0.9235
  113OSM   H18T11758   5.527   5.046   9.182  0.1766  0.2015 -0.8111
  113OSM   H18U11759   5.369   5.036   9.109 -0.2852 -1.8844 -0.0001
  113OSM    C1F11760   5.672   4.733  10.589 -0.0408  0.2005  0.1902
  113OSM     OF11761   5.597   4.654  10.649  0.0571  0.4292 -0.3616
  113OSM    C2F11762   5.718   4.699  10.452  0.4014  0.3802  0.1193
  113OSM    H2F11763   5.634   4.644  10.404  1.7801 -0.5538 -1.3238
  113OSM    H2G11764   5.803   4.628  10.441  0.7512  1.0311 -1.7011
  113OSM    C3F11765   5.750   4.821  10.367 -0.7987  0.1641  0.5668
  113OSM    H3F11766   5.848   4.864  10.399  0.7969 -1.5955 -1.6037
  113OSM    H3G11767   5.680   4.907  10.373 -1.0721 -0.0812  0.9453
  113OSM    C4F11768   5.774   4.776  10.219  0.7716 -0.6563  0.5710
  113OSM    H4F11769   5.674   4.761  10.173  0.3330  0.5505  1.0607
  113OSM    H4G11770   5.818   4.674  10.221 -0.7311 -1.3159  1.3500
  113OSM    C5F11771   5.882   4.859  10.151  0.1355 -0.4072 -0.1367
  113OSM    H5F11772   5.980   4.843  10.200  1.1558  0.6488 -1.7478
  113OSM    H5G11773   5.849   4.965  10.158  0.7962 -0.3104  2.5912
  113OSM    C6F11774   5.909   4.818  10.001  0.5340  0.1434 -0.5603
  113OSM    H6F11775   5.934   4.710  10.006  1.5082  0.3935  2.9043
  113OSM    H6G11776   5.989   4.885   9.964 -2.0449  2.5098 -2.2481
  113OSM    C7F11777   5.791   4.847   9.911  0.0409  0.7568 -0.3942
  113OSM    H7F11778   5.759   4.953   9.918  1.5817  1.2408 -0.2620
  113OSM    H7G11779   5.703   4.787   9.943 -1.6263  2.9108 -0.7248
  113OSM    C8F11780   5.835   4.821   9.764 -0.2575 -0.2453 -0.3509
  113OSM    H8F11781   5.872   4.716   9.764  0.7302  0.0987 -0.6196
  113OSM    H8G11782   5.920   4.882   9.728  0.5257  0.2379  2.1185
  113OSM    C9F11783   5.708   4.824   9.684  0.5208 -0.2656  0.0778
  113OSM    H9F11784   5.627   4.756   9.714  0.1002 -0.0347 -0.4978
  113OSM   C10F11785   5.685   4.901   9.572  0.6963 -0.7163  0.2011
  113OSM   H10F11786   5.587   4.881   9.526 -0.7918 -0.0302  2.8706
  113OSM   C11F11787   5.773   5.009   9.510 -0.2790 -0.4238  0.2851
  113OSM   H11F11788   5.852   5.040   9.582  1.7148  0.7533 -2.2283
  113OSM   H11G11789   5.716   5.099   9.478  2.4622  0.4389 -2.8398
  113OSM   C12F11790   5.851   4.957   9.386 -0.9529  0.3927 -0.3057
  113OSM   H12F11791   5.890   4.854   9.406 -0.2556  0.2732 -2.1267
  113OSM   H12G11792   5.931   5.032   9.374 -1.3804  0.9423  0.2515
  113OSM   C13F11793   5.759   4.956   9.262  0.1354 -0.2065  0.0878
  113OSM   H13F11794   5.726   5.062   9.251  0.7271 -0.1042 -0.8154
  113OSM   H13G11795   5.674   4.890   9.286  0.7278 -0.8052  0.5826
  113OSM   C14F11796   5.824   4.919   9.130 -0.4721 -0.0917 -0.0576
  113OSM   H14F11797   5.840   4.809   9.125 -0.9628 -0.1561 -0.2695
  113OSM   H14G11798   5.923   4.970   9.126 -0.2264 -0.4134  1.3735
  113OSM   C15F11799   5.741   4.956   9.016  0.0075 -0.1736 -0.3295
  113OSM   H15F11800   5.693   5.057   9.017  1.2593  0.4375 -0.1324
  113OSM   H15G11801   5.659   4.881   9.010 -0.0587 -0.3187  1.8218
  113OSM   C16F11802   5.823   4.952   8.886 -0.1862  0.2047 -0.7924
  113OSM   H16F11803   5.860   4.848   8.882 -2.6413 -0.6996 -1.3857
  113OSM   H16G11804   5.910   5.020   8.903 -1.3857  1.2127  1.8236
  113OSM   C17F11805   5.746   4.986   8.762  0.4138  0.3226 -0.7344
  113OSM   H17F11806   5.708   5.090   8.768  0.2956  0.3368 -1.6513
  113OSM   H17G11807   5.658   4.918   8.752  0.3701  0.2067  0.2845
  113OSM   C18F11808   5.826   4.964   8.635  0.7088  0.6774  0.5493
  113OSM   H18F11809   5.903   5.042   8.618  0.7435  0.7628  1.0642
  113OSM   H18G11810   5.762   4.980   8.546  2.4919  0.8499 -0.7732
  113OSM   H18H11811   5.866   4.860   8.627 -0.7001 -0.2536  3.8294
  114OSM      N11812   4.264   3.718  11.106 -0.3674  0.0004  0.2857
  114OSM    C1511813   4.293   3.607  11.207 -0.5013  0.2067 -0.3311
  114OSM   H15A11814   4.221   3.527  11.205  0.3781 -0.5864 -1.5296
  114OSM   H15B11815   4.292   3.648  11.307 -0.5671 -0.2796 -0.1335
  114OSM   H15C11816   4.392   3.567  11.190  0.2924  2.4066 -1.2641
  114OSM    C1411817   4.224   3.644  10.980 -0.4485  0.2997  0.7866
  114OSM   H14A11818   4.209   3.705  10.893  2.0742 -1.5535 -1.0932
  114OSM   H14B11819   4.143   3.579  11.009  0.5625 -2.2463 -1.6585
  114OSM   H14C11820   4.304   3.578  10.950 -0.6225  0.3568  0.1958
  114OSM    C1311821   4.155   3.802  11.153  0.5037  0.0417  0.5419
  114OSM   H13A11822   4.073   3.735  11.174  0.0979  0.2610 -0.2988
  114OSM   H13B11823   4.119   3.865  11.073  0.1370 -0.3575  0.3826
  114OSM   H13C11824   4.185   3.861  11.238  0.2877  1.2886 -0.2174
  114OSM    C1211825   4.390   3.805  11.091  0.3001 -0.2671 -0.6040
  114OSM   H12A11826   4.426   3.825  11.191  0.1324 -2.3752 -0.0788
  114OSM   H12B11827   4.359   3.895  11.040  0.2216  0.2957  0.4006
  114OSM    C1111828   4.512   3.762  11.005  0.6746  0.4650  0.0739
  114OSM   H11A11829   4.570   3.856  11.002  2.7519 -0.7415  0.6579
  114OSM   H11B11830   4.488   3.763  10.897  2.0746  0.8048 -0.2430
  114OSM      P11831   4.581   3.511  10.963  0.1494 -0.1669 -0.3336
  114OSM    O1311832   4.717   3.446  10.975  0.4722 -0.8853  0.0026
  114OSM    O1411833   4.468   3.424  11.005  0.7283  0.5921  0.4914
  114OSM    O1111834   4.560   3.566  10.821 -0.0644  0.1765  0.1009
  114OSM    O1211835   4.591   3.644  11.050  0.6778  0.5365  0.0302
  114OSM    C1S11836   4.665   3.614  10.737 -0.8978  0.6897 -0.4045
  114OSM    H1S11837   4.763   3.563  10.755 -2.0483 -0.4509  4.0770
  114OSM    H1T11838   4.684   3.722  10.751  1.3482  0.1882  1.0041
  114OSM     NF11839   4.749   3.629  10.503 -0.8324 -0.1181 -0.5034
  114OSM    HNF11840   4.764   3.716  10.457 -0.9559 -0.0777 -0.4690
  114OSM    C2S11841   4.633   3.593  10.584 -0.2831  0.5719 -0.1179
  114OSM    H2S11842   4.623   3.484  10.567 -0.1025  0.5514 -0.1021
  114OSM    C3S11843   4.499   3.674  10.555  0.8198 -0.3727  0.5958
  114OSM    H3S11844   4.523   3.777  10.590  1.7331 -1.1433  2.4205
  114OSM     O311845   4.391   3.646  10.638  0.2484  0.3369  0.3675
  114OSM    HO311846   4.419   3.584  10.706 -0.7277 -3.5081 -2.4068
  114OSM    C4S11847   4.469   3.684  10.406 -0.9609 -0.2009  0.3836
  114OSM    H4S11848   4.547   3.738  10.350  2.5332 -2.3990  2.7561
  114OSM    C5S11849   4.369   3.611  10.351  0.8153  0.5103  0.5127
  114OSM    H5S11850   4.304   3.556  10.421 -0.7374 -0.7869 -1.8442
  114OSM    C6S11851   4.348   3.579  10.208  0.7861 -0.0250  0.0606
  114OSM    H6S11852   4.263   3.633  10.162  0.8821 -1.4730 -1.9706
  114OSM    H6T11853   4.309   3.476  10.194  2.8196 -0.7941 -0.2947
  114OSM    C7S11854   4.471   3.584  10.117 -0.1237 -0.3509 -0.5401
  114OSM    H7S11855   4.559   3.536  10.165  0.6532 -0.9990 -2.4968
  114OSM    H7T11856   4.498   3.690  10.097 -2.9441  0.3899 -0.8884
  114OSM    C8S11857   4.450   3.500   9.986 -0.2206 -0.0060  0.1195
  114OSM    H8S11858   4.396   3.572   9.922  0.4725  0.7768  0.3861
  114OSM    H8T11859   4.391   3.406   9.996 -1.6934  1.0199  1.6291
  114OSM    C9S11860   4.588   3.467   9.907  0.4838 -0.0815 -0.0059
  114OSM    H9S11861   4.638   3.386   9.965  1.7934 -1.0078 -2.2828
  114OSM    H9T11862   4.648   3.561   9.906  0.4184 -0.0409 -1.0136
  114OSM   C10S11863   4.563   3.430   9.758 -0.4181 -0.0282 -0.0761
  114OSM   H10S11864   4.657   3.461   9.707 -0.4709  2.7902  1.3547
  114OSM   H10T11865   4.487   3.504   9.726  1.0078  1.4891 -0.0667
  114OSM   C11S11866   4.518   3.283   9.730  0.2069 -0.4508 -0.6894
  114OSM   H11S11867   4.417   3.272   9.775 -0.0918 -0.9085 -1.4412
  114OSM   H11T11868   4.590   3.216   9.782  0.0285 -0.5893 -0.6194
  114OSM   C12S11869   4.502   3.249   9.582 -0.1685  0.5376  0.0533
  114OSM   H12S11870   4.606   3.253   9.542 -0.3404  3.9614 -0.2988
  114OSM   H12T11871   4.448   3.331   9.531 -0.7411  0.2129  0.1368
  114OSM   C13S11872   4.445   3.108   9.548 -0.4973 -0.8351  0.1314
  114OSM   H13S11873   4.344   3.098   9.591  0.4881  0.5694  3.0209
  114OSM   H13T11874   4.511   3.027   9.586 -1.5265 -1.1452  1.3006
  114OSM   C14S11875   4.428   3.089   9.395  0.5607 -1.1416 -0.8814
  114OSM   H14S11876   4.527   3.119   9.354  1.2009  2.3710  2.6272
  114OSM   H14T11877   4.361   3.163   9.346  2.4188  1.3780  0.1154
  114OSM   C15S11878   4.390   2.950   9.355 -0.3675 -0.1365 -0.2813
  114OSM   H15S11879   4.301   2.915   9.411 -1.3022  1.4535 -0.7136
  114OSM   H15T11880   4.471   2.879   9.381  0.3662  0.5525 -0.6203
  114OSM   C16S11881   4.356   2.937   9.201  0.5249  0.0519  0.2834
  114OSM   H16S11882   4.271   3.007   9.185  0.6921 -0.1896 -1.9804
  114OSM   H16T11883   4.310   2.837   9.184 -1.5542  0.8677  0.8124
  114OSM   C17S11884   4.472   2.958   9.099  0.2827 -0.4260 -0.1596
  114OSM   H17S11885   4.544   2.874   9.111  0.3363  0.0270  4.2994
  114OSM   H17T11886   4.514   3.057   9.128 -1.0115 -0.1426  0.8071
  114OSM   C18S11887   4.416   2.964   8.953 -0.3704  0.6647 -0.2053
  114OSM   H18S11888   4.498   2.991   8.884 -0.5794 -0.7428 -1.0409
  114OSM   H18T11889   4.338   3.043   8.943  0.9946  2.2272  0.9696
  114OSM   H18U11890   4.392   2.861   8.920  1.0467  0.3926 -0.4642
  114OSM    C1F11891   4.859   3.556  10.511 -0.4542  0.5426  0.5782
  114OSM     OF11892   4.850   3.441  10.553 -0.1624  0.6766 -0.3466
  114OSM    C2F11893   5.000   3.616  10.472  0.5499  0.2965 -0.7937
  114OSM    H2F11894   5.077   3.569  10.537  0.9717  1.4947 -0.4104
  114OSM    H2G11895   5.006   3.724  10.496  0.0054  0.0594  0.5022
  114OSM    C3F11896   5.041   3.587  10.321  0.6984 -0.4481 -0.3271
  114OSM    H3F11897   5.026   3.478  10.311 -1.2431 -0.0164 -3.7227
  114OSM    H3G11898   5.150   3.607  10.316  0.6440 -0.0436 -0.0230
  114OSM    C4F11899   4.961   3.659  10.213  0.5771 -0.4676 -0.1428
  114OSM    H4F11900   4.965   3.766  10.245  0.4355 -1.3958  3.3391
  114OSM    H4G11901   4.856   3.627  10.224  0.8520 -0.7853  2.0185
  114OSM    C5F11902   5.014   3.631  10.075  0.5211 -0.4740  0.1971
  114OSM    H5F11903   5.004   3.522  10.056  1.8541 -0.2985 -1.9165
  114OSM    H5G11904   5.122   3.655  10.089  0.5369 -0.0810 -0.5452
  114OSM    C6F11905   4.959   3.708   9.954  0.2793  0.3075  0.6006
  114OSM    H6F11906   4.952   3.814   9.984 -1.7566  0.1420  0.8205
  114OSM    H6G11907   4.858   3.678   9.919 -0.1080  1.2353  0.8921
  114OSM    C7F11908   5.049   3.699   9.832  0.0117  0.0632 -1.2541
  114OSM    H7F11909   5.153   3.689   9.869 -0.6040 -0.2997  0.4750
  114OSM    H7G11910   5.069   3.780   9.758  3.1478 -1.0407 -1.7602
  114OSM    C8F11911   5.021   3.580   9.744  0.2270  0.0341 -0.3869
  114OSM    H8F11912   4.995   3.498   9.814  1.3315  0.6458  0.8037
  114OSM    H8G11913   5.113   3.560   9.685 -0.3135  0.5055 -1.4025
  114OSM    C9F11914   4.899   3.615   9.664 -0.0644  0.0605 -0.0258
  114OSM    H9F11915   4.802   3.609   9.714  1.0527  0.1214  2.2760
  114OSM   C10F11916   4.896   3.644   9.532 -0.5244 -0.9501  0.2385
  114OSM   H10F11917   4.797   3.664   9.489 -0.4318 -0.0278  0.4280
  114OSM   C11F11918   5.011   3.650   9.431  0.2719  0.4572  0.1599
  114OSM   H11F11919   5.091   3.584   9.471  0.4744  0.6076  0.0044
  114OSM   H11G11920   5.052   3.753   9.431 -1.4293  1.1985 -1.8388
  114OSM   C12F11921   4.996   3.601   9.286  0.9957 -0.5216  0.0199
  114OSM   H12F11922   4.909   3.643   9.229  0.7725 -0.1481  0.6243
  114OSM   H12G11923   4.989   3.491   9.281  2.1140 -0.5620 -1.4485
  114OSM   C13F11924   5.117   3.645   9.205 -0.1795 -0.2097  0.2785
  114OSM   H13F11925   5.207   3.654   9.270 -0.4270  3.3900  0.3556
  114OSM   H13G11926   5.089   3.750   9.179  0.3778  0.5336  2.4330
  114OSM   C14F11927   5.139   3.564   9.082 -0.5162  0.3323  0.6409
  114OSM   H14F11928   5.063   3.594   9.007 -1.1306 -0.7952  0.7867
  114OSM   H14G11929   5.132   3.454   9.097  1.5955 -0.0423 -0.6040
  114OSM   C15F11930   5.280   3.574   9.029  0.3808 -1.0028  0.3387
  114OSM   H15F11931   5.314   3.680   9.019  2.3753 -1.4982  1.3504
  114OSM   H15G11932   5.273   3.529   8.928  0.3279 -2.0405  0.7939
  114OSM   C16F11933   5.384   3.494   9.108 -0.3841 -0.1465 -0.7453
  114OSM   H16F11934   5.352   3.389   9.128  0.5823 -0.8070 -2.4947
  114OSM   H16G11935   5.385   3.537   9.211  0.6462  0.1191 -0.8582
  114OSM   C17F11936   5.529   3.487   9.052  0.2399  1.1431  0.1391
  114OSM   H17F11937   5.532   3.482   8.942 -0.0113  2.1374  0.0751
  114OSM   H17G11938   5.577   3.400   9.102  2.1021  2.7120  1.2662
  114OSM   C18F11939   5.605   3.616   9.074 -0.0551  0.3853  0.3577
  114OSM   H18F11940   5.557   3.697   9.015  1.6089 -0.4231 -2.2905
  114OSM   H18G11941   5.714   3.620   9.051  0.3038 -0.1082  1.8565
  114OSM   H18H11942   5.587   3.654   9.176  1.7735 -0.2313  0.9542
  115OSM      N11943   5.183   0.397   6.527  0.3269 -0.2614 -0.2948
  115OSM    C1511944   5.235   0.497   6.422 -0.6150 -0.3518  0.1223
  115OSM   H15A11945   5.183   0.592   6.432  0.3178  0.0175  1.7651
  115OSM   H15B11946   5.238   0.457   6.322  0.1720  0.0514 -0.0186
  115OSM   H15C11947   5.341   0.508   6.436 -0.7734  3.0457 -0.3824
  115OSM    C1411948   5.205   0.461   6.658 -0.2425 -0.7291 -0.1958
  115OSM   H14A11949   5.311   0.476   6.667 -0.4689  2.5652 -1.6092
  115OSM   H14B11950   5.173   0.404   6.744 -2.2183  0.9813  0.3138
  115OSM   H14C11951   5.150   0.555   6.661 -0.6035 -0.9620  0.8879
  115OSM    C1311952   5.033   0.379   6.513 -0.7977 -0.0166 -0.2190
  115OSM   H13A11953   4.984   0.474   6.497 -2.5012 -0.8226  0.0404
  115OSM   H13B11954   4.985   0.333   6.598 -2.7219 -0.4290 -1.4648
  115OSM   H13C11955   5.018   0.319   6.424 -2.9303 -0.0772  0.1300
  115OSM    C1211956   5.238   0.267   6.525  0.6635  0.7695 -0.3065
  115OSM   H12A11957   5.220   0.217   6.431 -2.0337 -0.9088  0.9900
  115OSM   H12B11958   5.179   0.204   6.590 -0.5213  1.2782 -0.8694
  115OSM    C1111959   5.392   0.257   6.552  0.2459 -0.4515 -0.0460
  115OSM   H11A11960   5.426   0.151   6.558  3.6235  0.6082  1.5007
  115OSM   H11B11961   5.422   0.306   6.647 -0.4089  1.4567 -0.7789
  115OSM      P11962   5.504   0.248   6.319  0.3366 -0.0815 -0.5512
  115OSM    O1311963   5.397   0.151   6.277 -0.4352  0.5243 -0.2016
  115OSM    O1411964   5.539   0.350   6.216 -0.0633  0.4470  1.0078
  115OSM    O1111965   5.635   0.173   6.365 -0.0766  0.3504  0.1241
  115OSM    O1211966   5.458   0.322   6.445  0.5052 -0.3090  0.3015
  115OSM    C1S11967   5.758   0.245   6.404 -0.0799 -0.1942  0.0521
  115OSM    H1S11968   5.765   0.343   6.352 -0.6354 -0.6223 -0.8682
  115OSM    H1T11969   5.849   0.184   6.384  0.0236 -0.3464  0.9537
  115OSM     NF11970   5.885   0.353   6.589  0.5555 -0.0560  0.1016
  115OSM    HNF11971   5.966   0.318   6.633  2.0086  1.3575 -1.2869
  115OSM    C2S11972   5.773   0.267   6.557 -0.0266  0.0783  0.6371
  115OSM    H2S11973   5.679   0.307   6.602  0.2318  0.7253  0.6235
  115OSM    C3S11974   5.790   0.129   6.616 -0.4075  0.1684 -0.7319
  115OSM    H3S11975   5.884   0.098   6.565 -0.6988 -0.2670 -1.0110
  115OSM     O311976   5.697   0.024   6.581  0.1018 -0.2569 -0.0597
  115OSM    HO311977   5.679   0.041   6.488 -3.8388 -2.4731  0.0614
  115OSM    C4S11978   5.821   0.132   6.770 -0.8165 -0.2309  0.0923
  115OSM    H4S11979   5.929   0.116   6.782 -0.5270 -0.0311 -1.9008
  115OSM    C5S11980   5.744   0.137   6.884 -0.6107  0.4181 -0.0891
  115OSM    H5S11981   5.635   0.126   6.879 -0.8655  1.4749  1.9361
  115OSM    C6S11982   5.785   0.128   7.031 -0.7906 -1.0809 -0.3617
  115OSM    H6S11983   5.760   0.033   7.084 -2.2499 -1.0074 -0.8759
  115OSM    H6T11984   5.740   0.210   7.091 -0.7151 -2.0021  0.9924
  115OSM    C7S11985   5.938   0.140   7.058  0.2811  0.2489  0.5467
  115OSM    H7S11986   5.984   0.231   7.013  0.0618  0.7882  1.3866
  115OSM    H7T11987   5.984   0.046   7.020  0.2949  1.1613 -1.9393
  115OSM    C8S11988   5.974   0.140   7.208  0.5087  0.5381  0.1794
  115OSM    H8S11989   5.878   0.125   7.261  0.8107  1.1954  0.9416
  115OSM    H8T11990   6.011   0.236   7.250 -0.8306  0.6537  1.1605
  115OSM    C9S11991   6.067   0.026   7.246 -0.4582 -0.6036 -0.7102
  115OSM    H9S11992   6.162   0.040   7.191  0.0267 -0.8516  0.0491
  115OSM    H9T11993   6.032  -0.072   7.208  1.1033 -1.7111  0.5330
  115OSM   C10S11994   6.095   0.025   7.398  0.1681  0.0815  0.0040
  115OSM   H10S11995   5.995   0.007   7.442  0.1693  0.9426  0.3793
  115OSM   H10T11996   6.122   0.128   7.430  1.0847  0.2359 -1.1865
  115OSM   C11S11997   6.195  -0.079   7.451 -0.0915 -0.4121 -0.3371
  115OSM   H11S11998   6.302  -0.054   7.438  0.2548 -1.6134  0.0914
  115OSM   H11T11999   6.165  -0.168   7.392 -2.3759 -0.4507  0.7724
  115OSM   C12S12000   6.181  -0.119   7.603  0.1780 -0.1257 -0.4421
  115OSM   H12S12001   6.081  -0.136   7.648  1.4842 -2.9163  1.7266
  115OSM   H12T12002   6.235  -0.040   7.659 -1.3232  0.9030 -0.4019
  115OSM   C13S12003   6.255  -0.251   7.639 -0.2045 -0.2677  0.0182
  115OSM   H13S12004   6.359  -0.214   7.625 -0.0593 -0.5822  0.2594
  115OSM   H13T12005   6.232  -0.323   7.557 -1.0927  0.7364 -0.6386
  115OSM   C14S12006   6.234  -0.325   7.778  0.2949  0.1755  0.5770
  115OSM   H14S12007   6.268  -0.431   7.781  0.3094  0.1981  2.1892
  115OSM   H14T12008   6.126  -0.342   7.797 -0.0804  0.5501 -1.1292
  115OSM   C15S12009   6.295  -0.258   7.899 -0.5159 -0.1798  0.8551
  115OSM   H15S12010   6.239  -0.163   7.910 -1.7490 -0.8020  0.2530
  115OSM   H15T12011   6.401  -0.238   7.873 -0.3306 -2.3990 -0.4154
  115OSM   C16S12012   6.282  -0.343   8.027 -0.5464  0.6235 -0.6907
  115OSM   H16S12013   6.330  -0.441   8.008 -0.0413  1.0459 -1.6515
  115OSM   H16T12014   6.173  -0.356   8.049 -0.1927  2.1147  2.5756
  115OSM   C17S12015   6.332  -0.284   8.164  0.3632  0.6133  0.0537
  115OSM   H17S12016   6.442  -0.286   8.174  0.2660  0.1056  1.0888
  115OSM   H17T12017   6.301  -0.342   8.253 -1.2854 -1.5133 -1.7499
  115OSM   C18S12018   6.287  -0.142   8.180  0.4707  0.0108 -0.2650
  115OSM   H18S12019   6.176  -0.149   8.182  0.2225  2.8527  1.4465
  115OSM   H18T12020   6.325  -0.073   8.102  1.0716  0.6760  0.6013
  115OSM   H18U12021   6.324  -0.113   8.281 -0.9463 -0.4857  0.4187
  115OSM    C1F12022   5.890   0.482   6.551 -0.1910  1.0110 -0.6162
  115OSM     OF12023   5.782   0.530   6.525 -0.3391 -0.2006  0.4556
  115OSM    C2F12024   6.020   0.551   6.554  0.3339 -0.5868  0.1110
  115OSM    H2F12025   6.029   0.598   6.453 -2.3200  0.3103  0.2227
  115OSM    H2G12026   6.103   0.476   6.554 -0.7457 -1.9455 -2.8706
  115OSM    C3F12027   6.016   0.679   6.650  0.1037  0.6255 -0.2241
  115OSM    H3F12028   5.923   0.737   6.633 -1.2584  0.1015  4.2086
  115OSM    H3G12029   6.098   0.749   6.627  0.6243  0.2033  0.3094
  115OSM    C4F12030   6.029   0.647   6.804  0.2548 -0.9810 -0.7747
  115OSM    H4F12031   5.957   0.564   6.819 -0.9530  0.2891  0.8033
  115OSM    H4G12032   5.989   0.734   6.859 -2.1043 -1.9262 -0.8728
  115OSM    C5F12033   6.170   0.638   6.869  0.2182 -0.3252  0.4244
  115OSM    H5F12034   6.233   0.723   6.836  0.1724  0.2168  1.6747
  115OSM    H5G12035   6.240   0.559   6.834  1.6267  1.6003 -1.2802
  115OSM    C6F12036   6.162   0.628   7.026  0.2734  0.3603 -0.3802
  115OSM    H6F12037   6.116   0.723   7.061  0.5429 -0.4942  2.5274
  115OSM    H6G12038   6.262   0.632   7.072 -0.9443  1.3323  2.4036
  115OSM    C7F12039   6.064   0.521   7.094 -0.4712 -0.0298  0.3295
  115OSM    H7F12040   6.119   0.424   7.093 -1.5253 -0.6973  2.1383
  115OSM    H7G12041   5.968   0.504   7.041 -0.8863 -1.1321  1.3890
  115OSM    C8F12042   6.033   0.559   7.238 -0.3879  0.4985  0.1082
  115OSM    H8F12043   5.983   0.467   7.274 -1.1018 -1.0583 -4.2368
  115OSM    H8G12044   5.966   0.648   7.228  1.5732  2.2629  1.6905
  115OSM    C9F12045   6.150   0.602   7.322  0.0103  0.1113 -0.2539
  115OSM    H9F12046   6.228   0.525   7.330 -2.0924 -1.9488  4.2598
  115OSM   C10F12047   6.171   0.721   7.383  0.0400  0.1305  0.2882
  115OSM   H10F12048   6.265   0.736   7.438 -0.5584 -0.3451  1.4520
  115OSM   C11F12049   6.076   0.840   7.369  0.2867 -0.0577  0.2404
  115OSM   H11F12050   6.008   0.831   7.282  0.1226 -1.5495  0.4980
  115OSM   H11G12051   6.138   0.931   7.353 -2.0743  1.3825 -1.3700
  115OSM   C12F12052   5.969   0.836   7.484  0.2932  0.0355 -0.3009
  115OSM   H12F12053   5.927   0.734   7.492 -0.0322  0.1521 -0.5214
  115OSM   H12G12054   5.880   0.897   7.459  0.4438  0.6066  0.5411
  115OSM   C13F12055   6.028   0.884   7.626  0.9478  1.0655 -0.2819
  115OSM   H13F12056   6.065   0.989   7.625  0.0602  1.3955 -0.0217
  115OSM   H13G12057   6.111   0.816   7.654  2.0249  3.4327  2.8505
  115OSM   C14F12058   5.923   0.890   7.734  0.2277 -0.1134  0.2365
  115OSM   H14F12059   5.883   0.788   7.750  1.5425 -0.3899  2.2440
  115OSM   H14G12060   5.838   0.954   7.703  0.7306  0.8721  0.8204
  115OSM   C15F12061   5.984   0.938   7.867  0.3204 -0.5786 -0.2511
  115OSM   H15F12062   6.059   1.018   7.849  0.0780 -0.4475 -0.7129
  115OSM   H15G12063   6.044   0.853   7.905  1.6821  0.8573  0.9507
  115OSM   C16F12064   5.890   0.975   7.981 -0.2801  0.0204  0.8081
  115OSM   H16F12065   5.827   0.887   8.003  0.0327  0.1930  2.5732
  115OSM   H16G12066   5.826   1.059   7.947  0.4750  0.5153  0.5705
  115OSM   C17F12067   5.966   0.999   8.120  0.3010  0.3204  0.5210
  115OSM   H17F12068   6.012   1.100   8.109  2.1712 -0.5959 -0.4880
  115OSM   H17G12069   6.046   0.925   8.139 -1.3715 -1.5593  0.5962
  115OSM   C18F12070   5.864   0.984   8.229 -0.8163  0.5706  0.2692
  115OSM   H18F12071   5.770   1.038   8.205 -0.9333 -0.4826 -1.7637
  115OSM   H18G12072   5.907   1.008   8.329 -0.5885 -0.2038  0.3567
  115OSM   H18H12073   5.824   0.881   8.239 -2.6484  1.1931 -0.1338
  116OSM      N12074   1.961   5.636   5.979  0.1806 -0.1263 -0.3763
  116OSM    C1512075   1.927   5.496   5.975  0.1821 -0.2741 -0.0128
  116OSM   H15A12076   2.018   5.441   5.958  0.1484  0.1002 -1.5414
  116OSM   H15B12077   1.862   5.467   5.894 -0.4645  0.2368  0.3181
  116OSM   H15C12078   1.885   5.456   6.066 -0.6778  0.8107  0.0885
  116OSM    C1412079   2.039   5.672   5.860 -1.1833 -0.0081 -0.4104
  116OSM   H14A12080   2.141   5.648   5.887 -2.0448 -2.7124  0.8056
  116OSM   H14B12081   2.052   5.775   5.830  2.1667 -0.4516 -0.8945
  116OSM   H14C12082   2.013   5.611   5.775  1.7030 -1.7487 -0.1844
  116OSM    C1312083   1.832   5.715   5.967 -0.3522  0.0807  0.0889
  116OSM   H13A12084   1.776   5.721   6.059 -1.3987  0.1895 -0.5357
  116OSM   H13B12085   1.769   5.690   5.883 -1.4919  1.4309  0.4849
  116OSM   H13C12086   1.851   5.821   5.955 -1.4165  0.3758  0.8715
  116OSM    C1212087   2.041   5.664   6.109 -0.7174  0.2919  0.0896
  116OSM   H12A12088   2.064   5.769   6.119 -3.2947  1.0354 -0.9381
  116OSM   H12B12089   2.137   5.617   6.099  0.3644  2.5132 -0.6104
  116OSM    C1112090   1.966   5.611   6.236 -0.0519 -0.2658  0.9039
  116OSM   H11A12091   1.863   5.654   6.239 -0.9073 -2.1947  0.8887
  116OSM   H11B12092   2.015   5.653   6.327  1.9632 -0.6087  0.0227
  116OSM      P12093   2.073   5.374   6.286 -0.0517 -0.1369 -0.1885
  116OSM    O1312094   2.057   5.249   6.212  0.0606  0.2890  0.0947
  116OSM    O1412095   2.196   5.451   6.266  0.1963 -0.3442 -0.0036
  116OSM    O1112096   2.053   5.347   6.438  0.4123 -0.5103 -0.1382
  116OSM    O1212097   1.949   5.466   6.252 -0.6513  0.2118  0.2382
  116OSM    C1S12098   2.151   5.258   6.498  0.1535  0.1269 -0.4243
  116OSM    H1S12099   2.254   5.294   6.475 -0.2387  1.7021  0.0944
  116OSM    H1T12100   2.134   5.155   6.463  0.9469 -0.0678 -0.2701
  116OSM     NF12101   2.291   5.249   6.713  0.1822 -0.3774  0.3801
  116OSM    HNF12102   2.306   5.156   6.745  1.0773 -0.8270 -1.1967
  116OSM    C2S12103   2.156   5.281   6.661 -0.6424  0.4824  0.4248
  116OSM    H2S12104   2.144   5.391   6.669 -1.3472  0.5540 -1.2976
  116OSM    C3S12105   2.035   5.200   6.725  0.1853  0.2877  0.2504
  116OSM    H3S12106   2.055   5.091   6.720  0.4716  0.3821 -0.7712
  116OSM     O312107   1.914   5.220   6.651 -0.5492 -0.1609 -0.1506
  116OSM    HO312108   1.945   5.257   6.568  0.8751  0.8934  0.7791
  116OSM    C4S12109   2.016   5.233   6.869 -0.1954  0.1169  0.0597
  116OSM    H4S12110   1.930   5.301   6.879  1.1926  1.8938  0.4679
  116OSM    C5S12111   2.072   5.177   6.978 -0.3947  0.3153 -0.0386
  116OSM    H5S12112   2.151   5.100   6.979 -0.7544 -0.1652  2.9689
  116OSM    C6S12113   2.038   5.217   7.115  0.1499 -0.1339 -0.8770
  116OSM    H6S12114   1.936   5.259   7.125 -1.0066 -3.0605  0.9306
  116OSM    H6T12115   2.112   5.296   7.141  0.1059 -0.3172 -0.1888
  116OSM    C7S12116   2.050   5.104   7.219  0.0909  0.1764  0.1636
  116OSM    H7S12117   2.156   5.071   7.214 -0.3554 -1.3654  0.3960
  116OSM    H7T12118   1.993   5.016   7.181 -0.4929  0.2585  0.8319
  116OSM    C8S12119   2.013   5.148   7.358  0.0331  0.8087 -0.3390
  116OSM    H8S12120   1.911   5.191   7.363  0.2671  1.2558  2.7737
  116OSM    H8T12121   2.091   5.218   7.393 -0.1199 -0.2167  2.3322
  116OSM    C9S12122   2.000   5.020   7.437  0.1163  0.7322 -0.4675
  116OSM    H9S12123   2.101   4.975   7.447 -0.1228 -0.3383 -2.4482
  116OSM    H9T12124   1.926   4.951   7.392 -0.0815  0.8816 -0.3768
  116OSM   C10S12125   1.944   5.052   7.573  0.1200  0.4252 -0.8407
  116OSM   H10S12126   1.835   5.075   7.574  0.3249  1.4219 -0.6167
  116OSM   H10T12127   1.983   5.137   7.633  1.1735 -1.5004  1.3983
  116OSM   C11S12128   1.966   4.935   7.669 -0.0907 -0.0153  0.0970
  116OSM   H11S12129   2.074   4.924   7.690  0.3559 -2.7620 -3.0240
  116OSM   H11T12130   1.938   4.840   7.619  0.0648 -1.4860  2.6282
  116OSM   C12S12131   1.891   4.940   7.807  0.8520  0.2135 -0.7430
  116OSM   H12S12132   1.783   4.937   7.785  0.6068 -1.6207  0.4833
  116OSM   H12T12133   1.922   5.038   7.849 -0.7495  1.1209 -1.5829
  116OSM   C13S12134   1.919   4.832   7.904  0.4013  0.2465 -0.4027
  116OSM   H13S12135   1.921   4.738   7.846  0.1285 -0.6164  0.9297
  116OSM   H13T12136   1.823   4.819   7.960 -0.5942  2.7151 -1.3626
  116OSM   C14S12137   2.040   4.843   8.000 -0.3088  0.2993  0.8679
  116OSM   H14S12138   2.125   4.876   7.937 -2.0957  0.1499 -1.8015
  116OSM   H14T12139   2.082   4.758   8.057  0.5796  0.1302 -0.0176
  116OSM   C15S12140   2.009   4.954   8.105 -0.8542  0.2272  0.1240
  116OSM   H15S12141   1.925   4.916   8.167 -0.3309 -2.6910 -0.7686
  116OSM   H15T12142   1.990   5.052   8.057  0.0288  0.2451 -0.2145
  116OSM   C16S12143   2.133   4.966   8.192  0.1369  0.9306  0.0578
  116OSM   H16S12144   2.212   5.013   8.130 -0.7071  1.1646 -0.8632
  116OSM   H16T12145   2.169   4.868   8.231  3.9280  1.7503 -1.0117
  116OSM   C17S12146   2.108   5.045   8.319  0.5758 -0.6229  0.5269
  116OSM   H17S12147   2.046   4.985   8.389 -0.5915  0.7635  0.7243
  116OSM   H17T12148   2.037   5.130   8.306  0.2141 -0.8224  1.1348
  116OSM   C18S12149   2.225   5.087   8.394 -0.9527 -0.2378 -0.4570
  116OSM   H18S12150   2.294   5.008   8.431 -0.8127  0.6169  1.1927
  116OSM   H18T12151   2.183   5.131   8.487  0.7807  2.0290 -0.6571
  116OSM   H18U12152   2.287   5.162   8.341 -1.8664  0.4693 -0.5475
  116OSM    C1F12153   2.404   5.318   6.688  0.4558  0.2904 -0.2634
  116OSM     OF12154   2.391   5.415   6.624 -0.2894 -0.4103  0.4678
  116OSM    C2F12155   2.535   5.275   6.749  0.2607  0.6963  0.2192
  116OSM    H2F12156   2.588   5.365   6.788 -0.5747  1.6298 -0.7673
  116OSM    H2G12157   2.597   5.227   6.670  0.7546 -0.2520  1.1485
  116OSM    C3F12158   2.543   5.189   6.881 -0.0494 -0.0038  0.2943
  116OSM    H3F12159   2.648   5.185   6.917  0.2803  0.2217 -0.6054
  116OSM    H3G12160   2.509   5.085   6.863  0.9874 -0.1434 -0.9928
  116OSM    C4F12161   2.481   5.263   7.000 -0.3543  0.0349  0.1736
  116OSM    H4F12162   2.370   5.268   6.990 -0.5104  3.4261  1.9211
  116OSM    H4G12163   2.514   5.369   7.004 -0.2184 -0.0343  1.0808
  116OSM    C5F12164   2.512   5.194   7.135 -0.2019 -0.1088  0.3629
  116OSM    H5F12165   2.616   5.155   7.142 -0.5015 -0.7854  1.1511
  116OSM    H5G12166   2.439   5.112   7.151  0.6671 -0.9554  0.1128
  116OSM    C6F12167   2.504   5.287   7.258  0.0429 -0.2026  0.1666
  116OSM    H6F12168   2.401   5.329   7.258  0.2821  0.4062 -1.1656
  116OSM    H6G12169   2.578   5.369   7.252 -0.1849 -0.0322 -0.3344
  116OSM    C7F12170   2.532   5.196   7.381  0.1474 -0.4294  0.4395
  116OSM    H7F12171   2.639   5.178   7.402  0.5457 -1.1396 -1.8992
  116OSM    H7G12172   2.482   5.097   7.374  3.5610 -2.2018 -0.9418
  116OSM    C8F12173   2.470   5.266   7.502 -0.2506  0.7613  0.1401
  116OSM    H8F12174   2.361   5.265   7.479 -0.4278 -1.2897  0.8287
  116OSM    H8G12175   2.495   5.373   7.516  0.5151  0.5628  0.3544
  116OSM    C9F12176   2.509   5.196   7.633 -0.6870 -0.5773  0.1629
  116OSM    H9F12177   2.617   5.200   7.656 -1.1713  3.1513  2.6929
  116OSM   C10F12178   2.426   5.151   7.726  0.3940 -0.3597 -1.0141
  116OSM   H10F12179   2.466   5.114   7.822  0.6969  2.0162 -0.1263
  116OSM   C11F12180   2.278   5.156   7.728  0.0830 -0.7975 -0.3611
  116OSM   H11F12181   2.232   5.089   7.803 -1.0674  0.2541 -0.0836
  116OSM   H11G12182   2.237   5.132   7.627 -0.6999 -0.1852 -0.2041
  116OSM   C12F12183   2.221   5.291   7.775  0.6062  0.2644 -0.1932
  116OSM   H12F12184   2.113   5.293   7.750  0.2884 -2.4191  0.6580
  116OSM   H12G12185   2.268   5.376   7.720 -0.8501  1.0652 -0.2408
  116OSM   C13F12186   2.224   5.317   7.931 -1.0196  0.7243  0.5041
  116OSM   H13F12187   2.327   5.291   7.961 -1.0191  0.8451  0.6113
  116OSM   H13G12188   2.154   5.245   7.980  1.7267 -1.0522  2.0506
  116OSM   C14F12189   2.190   5.465   7.953 -0.0491  0.0343 -0.2695
  116OSM   H14F12190   2.100   5.492   7.895 -0.4753 -1.5390 -0.3866
  116OSM   H14G12191   2.271   5.523   7.903 -1.0672  1.2424 -0.5353
  116OSM   C15F12192   2.199   5.495   8.105 -0.0859  0.2247 -0.6697
  116OSM   H15F12193   2.211   5.605   8.106 -0.5060  0.2715 -0.6732
  116OSM   H15G12194   2.281   5.445   8.161  0.0973 -0.5488 -1.6009
  116OSM   C16F12195   2.068   5.457   8.172 -0.2972 -0.6114  0.8230
  116OSM   H16F12196   2.054   5.347   8.169  1.0498 -0.7867 -0.2004
  116OSM   H16G12197   1.985   5.498   8.111  0.7912  1.5578  0.7199
  116OSM   C17F12198   2.049   5.511   8.311  0.2062  0.8506 -0.2589
  116OSM   H17F12199   1.939   5.507   8.324  0.2088 -0.3107 -0.4957
  116OSM   H17G12200   2.086   5.615   8.321 -0.0649  0.7806  2.0447
  116OSM   C18F12201   2.118   5.432   8.421  0.4199  0.3685  0.1996
  116OSM   H18F12202   2.105   5.481   8.519 -3.1039  0.8099 -0.3501
  116OSM   H18G12203   2.224   5.422   8.389  0.5262  2.2710 -0.1637
  116OSM   H18H12204   2.074   5.331   8.436 -0.3906  0.9481  1.9080
  117OSM      N12205   4.515   0.098   6.438  0.2706 -0.5603 -0.2159
  117OSM    C1512206   4.445   0.141   6.567  0.3368 -0.3480 -0.7660
  117OSM   H15A12207   4.400   0.237   6.548 -0.0294 -0.5452 -0.9080
  117OSM   H15B12208   4.513   0.154   6.650  0.1265  0.6632 -0.7427
  117OSM   H15C12209   4.359   0.081   6.594 -0.0915 -0.1628 -1.7118
  117OSM    C1412210   4.403   0.099   6.343 -1.2252  0.1148  0.7982
  117OSM   H14A12211   4.357   0.196   6.354 -0.5697  0.1615  4.4640
  117OSM   H14B12212   4.336   0.017   6.367  0.6326 -1.2099  1.7375
  117OSM   H14C12213   4.436   0.097   6.241  0.2972 -0.0434  1.2705
  117OSM    C1312214   4.603   0.212   6.398 -0.6115 -0.3064  0.2903
  117OSM   H13A12215   4.684   0.213   6.470  1.1841 -0.6453 -1.6303
  117OSM   H13B12216   4.542   0.300   6.390 -1.6550 -1.0903 -0.6238
  117OSM   H13C12217   4.654   0.192   6.305 -1.1768 -0.4787  0.0124
  117OSM    C1212218   4.588  -0.036   6.449  0.0819  0.6976 -0.3894
  117OSM   H12A12219   4.622  -0.078   6.356 -0.7805  0.1799 -0.4787
  117OSM   H12B12220   4.511  -0.100   6.490  0.2621  1.4586  1.2331
  117OSM    C1112221   4.714  -0.039   6.546  0.6182 -0.1230 -0.3102
  117OSM   H11A12222   4.743  -0.146   6.548 -1.4073 -0.6834  1.5939
  117OSM   H11B12223   4.698  -0.007   6.651 -0.8473 -1.5371 -0.0637
  117OSM      P12224   4.914  -0.008   6.379 -0.1386 -0.0632 -0.2985
  117OSM    O1312225   4.823  -0.044   6.273 -0.8720 -0.2831  0.6712
  117OSM    O1412226   5.027   0.080   6.351  0.3206 -0.4071 -0.3211
  117OSM    O1112227   4.968  -0.145   6.436  0.0469  0.4549  0.2847
  117OSM    O1212228   4.831   0.042   6.501  0.4230  0.6518  0.2415
  117OSM    C1S12229   5.071  -0.138   6.539 -0.3564  0.6561  0.2002
  117OSM    H1S12230   5.134  -0.047   6.537  1.4668 -0.5353 -1.8706
  117OSM    H1T12231   5.140  -0.219   6.506  0.5214  1.2452  0.5653
  117OSM     NF12232   5.107  -0.144   6.791  0.3183  0.1870  0.1055
  117OSM    HNF12233   5.127  -0.218   6.855 -0.6363 -1.8031 -1.7625
  117OSM    C2S12234   5.015  -0.175   6.681  0.3627  0.0646  0.5113
  117OSM    H2S12235   4.927  -0.108   6.700 -0.6669 -0.4372 -2.0801
  117OSM    C3S12236   4.965  -0.323   6.674  0.1421  0.5096 -0.4255
  117OSM    H3S12237   5.058  -0.377   6.647 -0.7244 -0.5571 -1.4157
  117OSM     O312238   4.873  -0.355   6.570 -0.4356 -1.1135  0.3234
  117OSM    HO312239   4.881  -0.278   6.513  0.2908 -2.0354 -0.8859
  117OSM    C4S12240   4.898  -0.370   6.803 -1.3994 -0.0393 -0.5816
  117OSM    H4S12241   4.969  -0.425   6.868 -0.2562  0.1378 -1.6298
  117OSM    C5S12242   4.773  -0.373   6.847 -0.6349  1.7650  0.2603
  117OSM    H5S12243   4.697  -0.344   6.774  0.6606 -0.3596 -2.0680
  117OSM    C6S12244   4.715  -0.428   6.979 -0.9399 -0.1183  0.0219
  117OSM    H6S12245   4.650  -0.516   6.960  1.7095 -2.1193 -0.5224
  117OSM    H6T12246   4.669  -0.341   7.030 -0.2192  2.6190 -3.6294
  117OSM    C7S12247   4.822  -0.478   7.084  0.0003 -0.5452 -1.4208
  117OSM    H7S12248   4.889  -0.394   7.113 -0.2620 -1.0972  0.9265
  117OSM    H7T12249   4.884  -0.564   7.049 -0.1654 -1.0648 -0.4588
  117OSM    C8S12250   4.751  -0.520   7.213 -0.7107  0.2728 -0.4850
  117OSM    H8S12251   4.657  -0.577   7.194 -1.5105  0.9967  1.1006
  117OSM    H8T12252   4.723  -0.424   7.261 -0.7753  0.3382 -0.6501
  117OSM    C9S12253   4.848  -0.589   7.308 -0.0950  0.0569  0.1650
  117OSM    H9S12254   4.928  -0.516   7.332 -1.1147  0.7613  1.6012
  117OSM    H9T12255   4.901  -0.678   7.267 -2.0691 -0.8532 -0.5401
  117OSM   C10S12256   4.767  -0.622   7.438  0.2894  0.9520 -0.4153
  117OSM   H10S12257   4.677  -0.672   7.396  0.2236  0.9825 -0.3103
  117OSM   H10T12258   4.740  -0.534   7.500 -1.9093 -0.1851  0.3656
  117OSM   C11S12259   4.839  -0.733   7.518 -0.0932 -0.6676 -0.4078
  117OSM   H11S12260   4.941  -0.695   7.541  0.6942 -2.2023 -1.1986
  117OSM   H11T12261   4.842  -0.811   7.440  0.9498 -1.0916  0.0426
  117OSM   C12S12262   4.763  -0.790   7.643  0.2574 -0.4533 -0.9077
  117OSM   H12S12263   4.652  -0.785   7.641  0.2202  0.0356  0.9237
  117OSM   H12T12264   4.793  -0.716   7.720  2.4534  2.4480 -4.2602
  117OSM   C13S12265   4.812  -0.929   7.686  0.6132  1.1739 -0.0999
  117OSM   H13S12266   4.923  -0.926   7.689  0.6465  0.2366  0.0102
  117OSM   H13T12267   4.785  -1.002   7.606  0.6050 -1.7372  2.3820
  117OSM   C14S12268   4.773  -0.974   7.829 -0.9182  0.4209  0.5151
  117OSM   H14S12269   4.811  -1.077   7.844 -0.3216  0.6622  0.6792
  117OSM   H14T12270   4.662  -0.979   7.825 -0.8654 -1.4476  0.5277
  117OSM   C15S12271   4.804  -0.880   7.945 -0.0658 -0.0986  0.4561
  117OSM   H15S12272   4.751  -0.915   8.036 -0.2853  0.4280  0.5336
  117OSM   H15T12273   4.763  -0.782   7.912  0.7020 -0.0412 -0.4009
  117OSM   C16S12274   4.952  -0.862   7.980 -0.5433  0.4972  0.4085
  117OSM   H16S12275   5.020  -0.846   7.894  2.5662 -1.9734  2.2389
  117OSM   H16T12276   4.990  -0.958   8.020  1.9162 -0.2561 -3.2159
  117OSM   C17S12277   4.976  -0.742   8.069 -0.4735 -0.3052  0.3397
  117OSM   H17S12278   4.921  -0.655   8.028 -0.9173 -1.2644 -1.1751
  117OSM   H17T12279   5.082  -0.710   8.080 -0.2398 -1.0345  0.2822
  117OSM   C18S12280   4.923  -0.764   8.209 -0.2307  1.0396 -0.0080
  117OSM   H18S12281   4.819  -0.801   8.219  0.1972 -0.7257 -1.5705
  117OSM   H18T12282   4.944  -0.669   8.263 -1.3292  1.2458  0.0787
  117OSM   H18U12283   4.991  -0.836   8.260  1.2696  2.5888  0.2725
  117OSM    C1F12284   5.157  -0.021   6.813  0.3038  0.3028 -0.4989
  117OSM     OF12285   5.118   0.080   6.751 -0.2532 -0.2190  0.3571
  117OSM    C2F12286   5.264  -0.020   6.913  0.3169  0.9919  0.0578
  117OSM    H2F12287   5.368  -0.046   6.882  1.5184  1.1546  3.4709
  117OSM    H2G12288   5.247  -0.095   6.993  0.3822  0.2324 -0.6284
  117OSM    C3F12289   5.269   0.120   6.979 -0.2043 -0.5670  0.4571
  117OSM    H3F12290   5.165   0.133   7.018  0.0778 -0.0620  1.0622
  117OSM    H3G12291   5.293   0.197   6.903  2.7428 -0.8956  0.9512
  117OSM    C4F12292   5.366   0.125   7.099 -0.5203  0.2830 -0.0411
  117OSM    H4F12293   5.412   0.224   7.123 -0.4080  0.2740 -0.2211
  117OSM    H4G12294   5.447   0.057   7.068 -0.5340  1.4695 -2.9930
  117OSM    C5F12295   5.295   0.086   7.234  0.4719 -0.6107 -0.2439
  117OSM    H5F12296   5.241  -0.011   7.225  2.2222 -1.6797  0.4171
  117OSM    H5G12297   5.227   0.166   7.271  0.9260 -0.4283  0.2025
  117OSM    C6F12298   5.410   0.078   7.330  0.3276 -0.1062  0.0696
  117OSM    H6F12299   5.490   0.155   7.323  0.9591 -0.7860 -0.2814
  117OSM    H6G12300   5.464  -0.012   7.293 -2.0569 -0.3854 -3.1672
  117OSM    C7F12301   5.368   0.053   7.477 -0.0893  0.2159 -0.5100
  117OSM    H7F12302   5.329  -0.047   7.503 -0.0888  0.9419  2.8149
  117OSM    H7G12303   5.281   0.117   7.501 -1.2604 -1.2776 -0.6854
  117OSM    C8F12304   5.486   0.086   7.572 -0.6369  0.2024 -0.5873
  117OSM    H8F12305   5.441   0.114   7.669 -0.7542  2.7566 -1.2884
  117OSM    H8G12306   5.534   0.178   7.532  2.4941 -2.0352 -2.4038
  117OSM    C9F12307   5.599  -0.017   7.592 -0.1014  0.1188 -0.3482
  117OSM    H9F12308   5.562  -0.119   7.607  1.4744 -0.2802  1.1228
  117OSM   C10F12309   5.732   0.001   7.603  0.0438 -0.6496  0.2748
  117OSM   H10F12310   5.798  -0.087   7.598 -0.1973 -0.7797 -0.8936
  117OSM   C11F12311   5.786   0.137   7.610 -0.1257 -0.0629  0.7599
  117OSM   H11F12312   5.706   0.212   7.628 -0.8805 -0.3559 -1.1168
  117OSM   H11G12313   5.816   0.173   7.509 -3.4305  0.9554  0.0109
  117OSM   C12F12314   5.908   0.172   7.696  0.2496  0.2133 -0.7008
  117OSM   H12F12315   5.924   0.281   7.686 -0.0677  0.4065  0.7003
  117OSM   H12G12316   6.001   0.127   7.655  0.1598  0.6066 -1.3446
  117OSM   C13F12317   5.904   0.145   7.843 -0.1889  1.4665  1.1919
  117OSM   H13F12318   5.910   0.034   7.842  2.1538  1.5338 -0.8964
  117OSM   H13G12319   5.811   0.193   7.877 -0.2699  3.8395 -1.9945
  117OSM   C14F12320   6.021   0.192   7.925 -0.2583 -1.0672 -0.2343
  117OSM   H14F12321   6.009   0.302   7.918  0.5533 -0.9396  0.2073
  117OSM   H14G12322   6.119   0.162   7.883 -0.6627 -0.6122 -1.5710
  117OSM   C15F12323   5.993   0.161   8.072 -0.3044 -0.1076  0.1922
  117OSM   H15F12324   5.991   0.053   8.095 -3.3029  0.5095  3.6567
  117OSM   H15G12325   5.887   0.189   8.088 -1.5082 -1.4566 -4.0429
  117OSM   C16F12326   6.097   0.220   8.169  0.6989  0.1828 -0.0660
  117OSM   H16F12327   6.085   0.330   8.176 -0.5489 -0.0380  2.7990
  117OSM   H16G12328   6.204   0.199   8.147  0.7264  0.2749 -0.0212
  117OSM   C17F12329   6.076   0.162   8.314  0.0338  0.0932 -0.4563
  117OSM   H17F12330   5.974   0.202   8.335  0.2113 -0.8440  2.7250
  117OSM   H17G12331   6.080   0.051   8.315  0.1121  0.0968 -0.3342
  117OSM   C18F12332   6.181   0.222   8.411  0.4346 -0.2042  0.4008
  117OSM   H18F12333   6.275   0.164   8.400  0.5214 -0.3105  1.5213
  117OSM   H18G12334   6.154   0.216   8.519  0.1492  0.3368  0.3625
  117OSM   H18H12335   6.197   0.328   8.384 -0.8729  0.1192  0.8046
  118OSM      N12336   2.400   1.301   5.948  0.1727  0.2975  0.1047
  118OSM    C1512337   2.274   1.219   5.914  0.0183 -0.0172 -0.1856
  118OSM   H15A12338   2.199   1.251   5.985 -0.4869  1.0165 -1.1614
  118OSM   H15B12339   2.295   1.117   5.944 -0.4171  0.5790  2.4552
  118OSM   H15C12340   2.257   1.223   5.808  2.4513 -0.0901 -0.6371
  118OSM    C1412341   2.514   1.270   5.860 -0.4003  0.1784  0.0670
  118OSM   H14A12342   2.515   1.163   5.849  2.1823  0.2374 -1.1743
  118OSM   H14B12343   2.606   1.299   5.909  0.5286 -3.0871  0.5336
  118OSM   H14C12344   2.514   1.324   5.767 -0.0766  0.7702  0.4019
  118OSM    C1312345   2.365   1.443   5.916  0.0996 -0.4173 -0.4063
  118OSM   H13A12346   2.318   1.492   6.000  0.9109 -1.0572  0.4415
  118OSM   H13B12347   2.298   1.451   5.832 -1.5490 -0.1059  0.8976
  118OSM   H13C12348   2.455   1.501   5.898  0.0056  0.2735  1.1700
  118OSM    C1212349   2.436   1.291   6.099 -0.1739 -0.1168 -0.3556
  118OSM   H12A12350   2.351   1.326   6.156  0.5847  1.9251 -0.4063
  118OSM   H12B12351   2.514   1.362   6.116  2.6261 -2.7309 -1.3390
  118OSM    C1112352   2.479   1.155   6.169  0.2080 -0.1506 -0.2501
  118OSM   H11A12353   2.526   1.182   6.265  1.0728  0.2918 -0.7825
  118OSM   H11B12354   2.562   1.123   6.102  0.5711 -1.1761  0.6694
  118OSM      P12355   2.357   0.920   6.137 -0.3011  0.4317  0.4581
  118OSM    O1312356   2.250   0.849   6.219 -0.6346 -0.4876  0.1049
  118OSM    O1412357   2.334   0.920   5.993  0.4709  0.4145  0.2928
  118OSM    O1112358   2.501   0.862   6.177  0.2481 -0.0650 -0.3176
  118OSM    O1212359   2.360   1.068   6.175  0.1537  0.3216 -0.8325
  118OSM    C1S12360   2.531   0.877   6.323 -0.2171  0.1329  0.5625
  118OSM    H1S12361   2.475   0.954   6.381  1.5148  0.8244  1.3939
  118OSM    H1T12362   2.638   0.909   6.329 -0.0929  0.2465 -1.6008
  118OSM     NF12363   2.579   0.778   6.537  0.0569  0.1752 -1.2447
  118OSM    HNF12364   2.679   0.771   6.532  0.3976  2.8865 -0.2087
  118OSM    C2S12365   2.517   0.746   6.406  0.1740  0.4573  0.1037
  118OSM    H2S12366   2.411   0.718   6.425  0.2275 -0.0425 -0.3246
  118OSM    C3S12367   2.591   0.634   6.320  0.3236  0.1737 -0.4439
  118OSM    H3S12368   2.681   0.675   6.269  0.9355 -1.9774 -1.2039
  118OSM     O312369   2.502   0.577   6.221  0.2460 -0.4651  0.1651
  118OSM    HO312370   2.424   0.632   6.216  1.9633  2.1464  0.0058
  118OSM    C4S12371   2.629   0.515   6.412  0.1562  0.2086 -0.5105
  118OSM    H4S12372   2.547   0.443   6.431  0.7110 -0.3905 -0.3562
  118OSM    C5S12373   2.751   0.500   6.477  0.0344 -0.3805  0.5284
  118OSM    H5S12374   2.826   0.581   6.483  1.4699 -1.7440  2.1005
  118OSM    C6S12375   2.779   0.383   6.571 -0.3097  0.1455  0.5495
  118OSM    H6S12376   2.854   0.311   6.532  0.5176  0.7428  1.0331
  118OSM    H6T12377   2.684   0.325   6.580  0.7729 -2.7475 -3.5291
  118OSM    C7S12378   2.817   0.434   6.716  0.0990 -0.2323  0.0270
  118OSM    H7S12379   2.754   0.519   6.749 -0.5184 -1.0421  0.9996
  118OSM    H7T12380   2.923   0.465   6.707 -0.0846  0.4817  0.3140
  118OSM    C8S12381   2.803   0.318   6.818  0.6209 -0.3906 -0.3078
  118OSM    H8S12382   2.862   0.229   6.788 -0.3505 -0.7874 -1.0890
  118OSM    H8T12383   2.698   0.281   6.815 -0.5241  2.4062  1.2410
  118OSM    C9S12384   2.823   0.365   6.963 -0.1544  0.1070 -0.0783
  118OSM    H9S12385   2.778   0.466   6.970 -0.1235  0.0358  2.2481
  118OSM    H9T12386   2.932   0.377   6.980 -0.4612  2.1132  0.6618
  118OSM   C10S12387   2.753   0.269   7.065 -0.2432 -0.7939  0.2922
  118OSM   H10S12388   2.798   0.171   7.038 -1.0235 -0.4126 -2.7948
  118OSM   H10T12389   2.644   0.273   7.044 -0.2303 -2.6294 -0.2403
  118OSM   C11S12390   2.778   0.321   7.204 -0.2544  0.1077 -0.3915
  118OSM   H11S12391   2.727   0.419   7.215 -1.1685 -0.4567  0.6484
  118OSM   H11T12392   2.887   0.333   7.220 -0.8815  4.1483  2.5005
  118OSM   C12S12393   2.725   0.227   7.309 -0.5031  0.9221 -0.4317
  118OSM   H12S12394   2.748   0.123   7.279 -3.1321  0.3598 -0.7753
  118OSM   H12T12395   2.616   0.241   7.324 -0.2506 -0.2337  3.4275
  118OSM   C13S12396   2.795   0.269   7.441  0.6111  0.2393 -0.4964
  118OSM   H13S12397   2.754   0.368   7.473 -0.6338 -0.4841  0.2547
  118OSM   H13T12398   2.905   0.272   7.428  0.4797 -0.0788 -1.7592
  118OSM   C14S12399   2.767   0.169   7.554 -0.3385 -0.2006 -0.2697
  118OSM   H14S12400   2.840   0.086   7.564  1.7692  1.5066 -0.9637
  118OSM   H14T12401   2.670   0.116   7.541  0.8119 -2.4541 -0.1504
  118OSM   C15S12402   2.771   0.240   7.693 -0.2639  0.0374  0.1405
  118OSM   H15S12403   2.710   0.332   7.701 -0.8674  0.0504 -3.0265
  118OSM   H15T12404   2.876   0.268   7.713 -0.9365  1.7239  1.5148
  118OSM   C16S12405   2.755   0.161   7.830  0.8065  1.1677  0.6377
  118OSM   H16S12406   2.822   0.073   7.818  0.1259  0.7881 -0.5089
  118OSM   H16T12407   2.650   0.127   7.834  0.7129  1.4653  0.7635
  118OSM   C17S12408   2.802   0.248   7.949 -0.1335 -0.1500  0.1805
  118OSM   H17S12409   2.762   0.348   7.923 -0.3756 -0.0299  0.9945
  118OSM   H17T12410   2.913   0.256   7.954 -0.1480 -0.0225  0.3109
  118OSM   C18S12411   2.758   0.194   8.088  0.2863 -0.1202 -0.3384
  118OSM   H18S12412   2.817   0.108   8.127 -0.5102  0.2389  1.7771
  118OSM   H18T12413   2.654   0.157   8.074 -0.7088  2.1910  0.3532
  118OSM   H18U12414   2.761   0.271   8.169  0.1021 -2.0038  1.5333
  118OSM    C1F12415   2.514   0.833   6.644 -0.3728 -0.3015 -0.5833
  118OSM     OF12416   2.399   0.870   6.635  0.4644  0.5436  0.3923
  118OSM    C2F12417   2.593   0.849   6.768 -0.0040  0.0969 -0.1875
  118OSM    H2F12418   2.622   0.954   6.785 -1.9998  0.6597 -0.0726
  118OSM    H2G12419   2.687   0.790   6.761 -0.0566  0.0082 -0.1551
  118OSM    C3F12420   2.514   0.804   6.899  0.3183 -0.0235 -0.3278
  118OSM    H3F12421   2.488   0.700   6.871 -0.7562 -0.4041  1.9206
  118OSM    H3G12422   2.421   0.863   6.914 -0.5185 -1.0937 -1.0990
  118OSM    C4F12423   2.610   0.803   7.017  0.0154  1.0961 -1.0008
  118OSM    H4F12424   2.660   0.900   7.041  0.1971  0.1041  3.3910
  118OSM    H4G12425   2.688   0.730   6.986 -0.3019 -0.9654  2.5395
  118OSM    C5F12426   2.546   0.753   7.142  0.1773  0.7675 -0.2547
  118OSM    H5F12427   2.513   0.648   7.129 -2.3050  0.7837  4.0041
  118OSM    H5G12428   2.461   0.819   7.168  1.2612  1.8228  0.7034
  118OSM    C6F12429   2.639   0.745   7.266  0.3030 -0.1869  0.4519
  118OSM    H6F12430   2.642   0.847   7.309  0.1407  1.1604 -2.5117
  118OSM    H6G12431   2.741   0.712   7.235  0.2357  0.4029 -0.4415
  118OSM    C7F12432   2.584   0.652   7.378  0.2583 -0.3280  0.1697
  118OSM    H7F12433   2.551   0.556   7.334 -2.1398  0.8144 -0.6707
  118OSM    H7G12434   2.496   0.698   7.426 -1.0777  0.6770 -2.9900
  118OSM    C8F12435   2.695   0.631   7.479 -0.0083  0.1687 -0.0152
  118OSM    H8F12436   2.780   0.581   7.428 -0.9240 -0.5878 -0.8492
  118OSM    H8G12437   2.648   0.561   7.552 -1.3588  1.4592  0.4180
  118OSM    C9F12438   2.750   0.758   7.549 -0.3881  0.3195 -0.3092
  118OSM    H9F12439   2.809   0.830   7.489  0.6074  1.3030  1.7423
  118OSM   C10F12440   2.739   0.781   7.680 -0.0512 -0.4307 -0.2499
  118OSM   H10F12441   2.775   0.874   7.725 -1.4571 -0.8703  1.9416
  118OSM   C11F12442   2.665   0.694   7.777 -0.5051  0.4539  0.0405
  118OSM   H11F12443   2.736   0.611   7.796 -1.2407 -0.3434 -0.6248
  118OSM   H11G12444   2.572   0.653   7.731 -0.9154  0.9241  0.4316
  118OSM   C12F12445   2.632   0.759   7.909  0.7154  0.8570 -0.4352
  118OSM   H12F12446   2.727   0.783   7.962  0.7806  1.7972 -0.9536
  118OSM   H12G12447   2.574   0.687   7.971 -0.5785  2.6069  0.4896
  118OSM   C13F12448   2.542   0.885   7.901 -0.2945  0.4739 -0.4988
  118OSM   H13F12449   2.455   0.853   7.839 -1.7591  1.6575  0.8451
  118OSM   H13G12450   2.597   0.959   7.839 -1.3877  2.1546  0.4601
  118OSM   C14F12451   2.502   0.931   8.038 -0.9495  0.9310  0.5742
  118OSM   H14F12452   2.582   0.995   8.080  0.7112 -0.3653 -0.4777
  118OSM   H14G12453   2.493   0.846   8.109 -0.5345 -0.5843 -1.1196
  118OSM   C15F12454   2.384   1.018   8.035  0.2777  0.2348  0.5716
  118OSM   H15F12455   2.306   0.971   7.973  1.1872  1.8411 -1.9485
  118OSM   H15G12456   2.410   1.108   7.976  0.5868  0.0385  0.4040
  118OSM   C16F12457   2.334   1.059   8.172  0.0445  0.5008  0.2620
  118OSM   H16F12458   2.425   1.090   8.229  1.9947 -0.3110 -2.2033
  118OSM   H16G12459   2.286   0.972   8.221 -0.8504 -0.3441 -1.9753
  118OSM   C17F12460   2.221   1.166   8.148 -0.6880 -0.0737 -0.6269
  118OSM   H17F12461   2.134   1.126   8.092  0.1425 -0.2057 -1.8702
  118OSM   H17G12462   2.252   1.267   8.112 -0.6415  0.2828  0.3880
  118OSM   C18F12463   2.165   1.196   8.285  0.6752  0.1111  0.2765
  118OSM   H18F12464   2.075   1.257   8.263  1.5137  0.6500 -1.9219
  118OSM   H18G12465   2.234   1.264   8.339  0.5222  2.7481 -2.5464
  118OSM   H18H12466   2.126   1.110   8.343  0.1722  1.2477  1.6782
  119OSM      N12467   1.317   1.065   5.844  0.0320 -0.6044  0.2155
  119OSM    C1512468   1.284   0.935   5.782  1.0447 -0.2416  0.2467
  119OSM   H15A12469   1.372   0.874   5.767  0.8859 -1.1325  2.4895
  119OSM   H15B12470   1.233   0.947   5.688  1.4505 -0.7861 -0.0448
  119OSM   H15C12471   1.219   0.877   5.846  0.2181 -1.7137 -1.8184
  119OSM    C1412472   1.413   1.140   5.763  0.6390 -0.0914  0.2798
  119OSM   H14A12473   1.508   1.089   5.769 -0.8847 -2.9441  4.6471
  119OSM   H14B12474   1.423   1.244   5.791  3.6671  0.6850 -2.8885
  119OSM   H14C12475   1.380   1.146   5.660  2.0081 -1.6865 -0.2949
  119OSM    C1312476   1.190   1.149   5.856 -0.2485 -0.1314  0.0328
  119OSM   H13A12477   1.208   1.236   5.917  1.3409 -0.6540  0.3470
  119OSM   H13B12478   1.112   1.090   5.903  0.5843 -0.1893  1.4257
  119OSM   H13C12479   1.161   1.182   5.758  2.8019 -2.0422 -1.6674
  119OSM    C1212480   1.376   1.043   5.984  0.0601 -0.5800 -0.1329
  119OSM   H12A12481   1.440   0.957   5.976 -1.4778 -1.9132  1.1944
  119OSM   H12B12482   1.293   1.009   6.044  1.5687 -1.2357  1.6803
  119OSM    C1112483   1.441   1.170   6.044 -0.7015 -1.1810 -0.6495
  119OSM   H11A12484   1.451   1.149   6.152  0.4188 -0.3604 -0.5760
  119OSM   H11B12485   1.372   1.257   6.037  0.4469 -0.3783 -3.0568
  119OSM      P12486   1.698   1.128   6.011 -0.3569  0.4087 -0.2132
  119OSM    O1312487   1.701   1.014   5.923  0.1829  0.1720  0.2584
  119OSM    O1412488   1.813   1.223   5.993  0.5757  0.2423  0.1920
  119OSM    O1112489   1.690   1.080   6.169 -0.0502  0.1434  0.1342
  119OSM    O1212490   1.567   1.214   5.995 -0.2717  0.0351  0.5288
  119OSM    C1S12491   1.786   1.134   6.256  0.5793  0.0631 -0.0783
  119OSM    H1S12492   1.837   1.226   6.219 -2.3415  0.8485 -2.5329
  119OSM    H1T12493   1.863   1.058   6.283  0.6723  0.2679  0.2531
  119OSM     NF12494   1.820   1.241   6.474  0.4397 -0.0146 -0.2035
  119OSM    HNF12495   1.879   1.181   6.527  1.4230 -0.0312 -1.2646
  119OSM    C2S12496   1.723   1.175   6.391  0.2308 -0.0397 -0.0100
  119OSM    H2S12497   1.639   1.242   6.364 -1.8846 -2.6654 -0.4695
  119OSM    C3S12498   1.674   1.041   6.457  0.1161 -0.7173  0.1621
  119OSM    H3S12499   1.761   0.975   6.476  1.2733  1.2856  2.2248
  119OSM     O312500   1.580   0.968   6.380 -0.4658  0.1222 -0.3183
  119OSM    HO312501   1.588   1.015   6.297 -0.7222  1.4514  0.3859
  119OSM    C4S12502   1.617   1.066   6.594  0.0672 -0.6081  0.2875
  119OSM    H4S12503   1.519   1.114   6.608  0.2480 -0.9574  3.6379
  119OSM    C5S12504   1.666   1.006   6.705  0.0693 -0.6687  0.2288
  119OSM    H5S12505   1.748   0.934   6.698 -0.6483 -1.5156  0.3445
  119OSM    C6S12506   1.603   1.010   6.845  0.7103 -0.3054  0.7212
  119OSM    H6S12507   1.516   1.078   6.853  0.6773 -0.3448  0.6984
  119OSM    H6T12508   1.674   1.033   6.927 -0.0522  1.0307  1.0280
  119OSM    C7S12509   1.543   0.865   6.873  0.1441 -0.6472 -0.7983
  119OSM    H7S12510   1.616   0.782   6.867  0.1954 -0.6091 -0.6893
  119OSM    H7T12511   1.463   0.846   6.798 -1.4089  0.8278  0.4052
  119OSM    C8S12512   1.469   0.869   7.005  0.5731  0.1387  0.3878
  119OSM    H8S12513   1.377   0.806   7.003  0.5365  0.2090 -0.1764
  119OSM    H8T12514   1.429   0.968   7.033  0.4390  0.8347 -2.0701
  119OSM    C9S12515   1.557   0.811   7.123 -0.3018  0.2644 -0.0062
  119OSM    H9S12516   1.653   0.867   7.123  1.3351 -2.3079 -1.0270
  119OSM    H9T12517   1.596   0.708   7.103 -1.4583  0.4305 -3.9959
  119OSM   C10S12518   1.466   0.804   7.256 -0.2467 -0.1300 -0.9274
  119OSM   H10S12519   1.378   0.738   7.248 -0.7483  0.1283  1.7478
  119OSM   H10T12520   1.433   0.908   7.275  1.5551 -0.0738  2.8707
  119OSM   C11S12521   1.537   0.769   7.388  0.9597 -0.6869 -0.1598
  119OSM   H11S12522   1.621   0.834   7.420  0.2406 -0.5365  1.5322
  119OSM   H11T12523   1.586   0.672   7.367  2.3138  0.1112 -0.8069
  119OSM   C12S12524   1.441   0.764   7.506 -0.9416  0.3404 -0.4049
  119OSM   H12S12525   1.349   0.707   7.481  0.4077 -2.6737  0.9178
  119OSM   H12T12526   1.418   0.868   7.536  0.6477 -0.0226  2.5189
  119OSM   C13S12527   1.505   0.699   7.624  0.1970  0.5050  0.0388
  119OSM   H13S12528   1.595   0.759   7.649  0.0271 -0.1521  2.4506
  119OSM   H13T12529   1.529   0.595   7.595  2.4633  1.3940 -1.5467
  119OSM   C14S12530   1.406   0.705   7.746  0.2328  0.5117 -0.1770
  119OSM   H14S12531   1.309   0.660   7.715  0.6987  1.0928 -2.7453
  119OSM   H14T12532   1.396   0.811   7.776  1.4518  0.5445  0.1888
  119OSM   C15S12533   1.468   0.635   7.868  0.2312  0.0260 -0.4340
  119OSM   H15S12534   1.559   0.685   7.908  0.4820 -2.1828  2.0795
  119OSM   H15T12535   1.486   0.533   7.830 -1.0789 -0.1144 -0.7443
  119OSM   C16S12536   1.367   0.619   7.984 -0.9499 -0.3410  0.0481
  119OSM   H16S12537   1.266   0.589   7.947 -1.3025  0.1196  0.6188
  119OSM   H16T12538   1.371   0.715   8.039  2.7842 -0.5037  0.3212
  119OSM   C17S12539   1.408   0.510   8.088 -0.3945  0.2846 -0.2484
  119OSM   H17S12540   1.396   0.412   8.037  0.5379  0.4098 -0.7354
  119OSM   H17T12541   1.335   0.513   8.172 -0.7405 -1.2078 -0.4712
  119OSM   C18S12542   1.550   0.524   8.141 -0.4112  0.6813 -0.1625
  119OSM   H18S12543   1.570   0.623   8.187  0.7217  1.4614 -2.1924
  119OSM   H18T12544   1.624   0.520   8.058 -0.2900  0.7157 -0.0569
  119OSM   H18U12545   1.569   0.446   8.218 -2.0206 -1.3153 -1.6755
  119OSM    C1F12546   1.852   1.372   6.458 -0.0978 -0.2378  0.3756
  119OSM     OF12547   1.807   1.454   6.380  0.4678 -0.1243  0.5863
  119OSM    C2F12548   1.950   1.429   6.570  0.2157  0.0560 -0.3266
  119OSM    H2F12549   2.052   1.436   6.526  0.1422  0.1884 -0.4796
  119OSM    H2G12550   1.945   1.364   6.660  2.0518 -0.5425 -0.6190
  119OSM    C3F12551   1.923   1.577   6.616 -0.3062 -0.0625 -0.1604
  119OSM    H3F12552   1.825   1.577   6.667  0.7709  2.3063  2.1731
  119OSM    H3G12553   1.903   1.644   6.530 -0.8983 -0.9758 -0.7515
  119OSM    C4F12554   2.025   1.635   6.700 -0.3553  0.2672 -0.5166
  119OSM    H4F12555   1.996   1.731   6.748  1.0001  0.4061  0.0713
  119OSM    H4G12556   2.110   1.671   6.639  1.0459  0.9061  1.7149
  119OSM    C5F12557   2.065   1.545   6.819 -0.0744  0.2250 -0.3894
  119OSM    H5F12558   2.104   1.447   6.783  0.7546  0.1106  0.7530
  119OSM    H5G12559   1.969   1.530   6.873 -0.3005 -0.1064 -0.8770
  119OSM    C6F12560   2.155   1.599   6.930 -0.0740 -0.3623  0.3728
  119OSM    H6F12561   2.236   1.663   6.890  0.9428 -2.5758 -1.3473
  119OSM    H6G12562   2.189   1.506   6.980 -0.7983 -3.3563 -4.1281
  119OSM    C7F12563   2.077   1.671   7.038  0.2720 -0.7111 -0.4988
  119OSM    H7F12564   2.031   1.760   6.989 -1.2865 -1.4945 -0.5231
  119OSM    H7G12565   2.133   1.719   7.121 -3.3754  3.2942  0.0157
  119OSM    C8F12566   1.972   1.605   7.135 -0.1943 -0.0389  0.5936
  119OSM    H8F12567   1.888   1.571   7.072  1.4875 -0.1408 -1.7178
  119OSM    H8G12568   1.922   1.685   7.193  0.1641 -0.4355  1.4907
  119OSM    C9F12569   2.014   1.494   7.221  0.3811  0.6433 -0.2878
  119OSM    H9F12570   2.050   1.405   7.168  0.3768  1.5228 -1.8353
  119OSM   C10F12571   2.007   1.493   7.357  0.0285  0.0734  0.1974
  119OSM   H10F12572   2.033   1.399   7.407 -2.2845  0.2295  1.8077
  119OSM   C11F12573   1.943   1.605   7.438 -0.2425  0.6783  0.1850
  119OSM   H11F12574   1.932   1.706   7.395 -1.1616  1.1563  1.4643
  119OSM   H11G12575   1.998   1.626   7.533  1.6671  3.9629 -1.4604
  119OSM   C12F12576   1.805   1.564   7.478 -0.4785 -0.9482  1.3115
  119OSM   H12F12577   1.750   1.530   7.388 -0.7241 -2.0420  1.8527
  119OSM   H12G12578   1.750   1.657   7.504 -2.7170 -1.6295 -0.6494
  119OSM   C13F12579   1.800   1.444   7.577 -1.4233  0.5809  0.9432
  119OSM   H13F12580   1.886   1.374   7.563 -1.4027  0.7430  0.1707
  119OSM   H13G12581   1.710   1.381   7.563  0.7135 -3.1996  2.7345
  119OSM   C14F12582   1.793   1.491   7.723 -0.5424 -0.0349  0.4195
  119OSM   H14F12583   1.703   1.557   7.732  1.1148  2.1327  2.6496
  119OSM   H14G12584   1.871   1.567   7.748 -1.3233  1.2330 -0.8576
  119OSM   C15F12585   1.790   1.381   7.821  0.4610 -0.1432  0.0996
  119OSM   H15F12586   1.885   1.330   7.797 -0.0648 -0.6441 -0.9984
  119OSM   H15G12587   1.701   1.316   7.809  1.6368 -1.7029 -0.3898
  119OSM   C16F12588   1.769   1.435   7.967 -0.0558 -0.6723 -0.5976
  119OSM   H16F12589   1.677   1.497   7.958  1.7507  2.0125 -1.7562
  119OSM   H16G12590   1.852   1.506   7.987 -0.7514  0.8224 -2.6301
  119OSM   C17F12591   1.768   1.333   8.081  0.0959  0.5975  0.2532
  119OSM   H17F12592   1.869   1.287   8.073  0.5151  1.3201  1.2089
  119OSM   H17G12593   1.693   1.253   8.064  0.5045  0.2435  0.0824
  119OSM   C18F12594   1.755   1.393   8.224  0.9135  0.6282 -0.7440
  119OSM   H18F12595   1.776   1.318   8.303 -0.2088 -0.0182 -1.0370
  119OSM   H18G12596   1.663   1.448   8.253  0.3004 -0.6096 -0.2807
  119OSM   H18H12597   1.840   1.465   8.232  0.4652  1.3506 -2.2092
  120OSM      N12598   1.283   5.170   5.911 -0.0112  0.6982  0.1386
  120OSM    C1512599   1.432   5.149   5.898  0.1042  0.1195  0.1515
  120OSM   H15A12600   1.461   5.048   5.874  0.4283  0.4997 -1.1519
  120OSM   H15B12601   1.490   5.179   5.983  0.4942  1.2268 -0.4842
  120OSM   H15C12602   1.475   5.197   5.811  0.6260 -2.5697 -1.1584
  120OSM    C1412603   1.246   5.307   5.931 -0.0858 -0.5838 -0.3011
  120OSM   H14A12604   1.141   5.326   5.917  0.4550  1.3103 -2.3727
  120OSM   H14B12605   1.308   5.370   5.870 -2.2897 -0.1460 -2.2414
  120OSM   H14C12606   1.262   5.338   6.033 -0.9950 -0.7731 -0.0928
  120OSM    C1312607   1.231   5.117   5.775 -0.5120 -0.0496  0.0118
  120OSM   H13A12608   1.124   5.107   5.787 -0.4053 -0.5298  0.5879
  120OSM   H13B12609   1.272   5.020   5.754  0.5559  0.6644 -1.3774
  120OSM   H13C12610   1.252   5.193   5.701  0.3254  0.0671  0.3563
  120OSM    C1212611   1.231   5.085   6.026  0.0309 -0.1725 -0.6544
  120OSM   H12A12612   1.267   4.984   6.008  4.1186  0.6076  1.8336
  120OSM   H12B12613   1.123   5.078   6.019 -0.2109 -0.3613  2.0261
  120OSM    C1112614   1.281   5.124   6.169 -0.0220 -0.3304 -0.0996
  120OSM   H11A12615   1.392   5.136   6.170 -0.1542  2.1106 -2.4784
  120OSM   H11B12616   1.258   5.043   6.241 -2.6181 -0.0898 -0.5789
  120OSM      P12617   1.079   5.254   6.263  0.2621 -0.0313 -0.5906
  120OSM    O1312618   1.007   5.360   6.184 -0.0391 -0.3867 -0.0523
  120OSM    O1412619   1.015   5.128   6.263 -0.5034  0.5942 -0.4112
  120OSM    O1112620   1.092   5.309   6.412  0.6273 -0.2495  0.6193
  120OSM    O1212621   1.226   5.247   6.219 -0.7390 -0.0666  0.2733
  120OSM    C1S12622   1.214   5.363   6.463 -0.7170 -0.0525  0.3672
  120OSM    H1S12623   1.241   5.456   6.409  2.3226 -2.1307 -2.0493
  120OSM    H1T12624   1.294   5.289   6.442 -0.2206  0.7748 -0.7742
  120OSM     NF12625   1.324   5.447   6.668  0.0323 -0.1273 -0.7898
  120OSM    HNF12626   1.388   5.385   6.712 -1.6300 -0.7555  0.8292
  120OSM    C2S12627   1.201   5.392   6.618  0.3132 -0.4814  0.3884
  120OSM    H2S12628   1.109   5.453   6.630 -2.0707 -3.4848 -1.2699
  120OSM    C3S12629   1.171   5.259   6.692 -0.6866 -0.1243 -0.4170
  120OSM    H3S12630   1.257   5.191   6.671  0.6221  0.8223  1.5625
  120OSM     O312631   1.057   5.186   6.655  0.6086 -0.3096  0.0745
  120OSM    HO312632   1.030   5.233   6.576 -0.4005  0.8322  1.0791
  120OSM    C4S12633   1.170   5.273   6.840  0.2995  0.3314 -0.6866
  120OSM    H4S12634   1.074   5.309   6.880  0.7558  1.5718 -0.6509
  120OSM    C5S12635   1.264   5.230   6.925 -0.3786  0.3588  0.5422
  120OSM    H5S12636   1.358   5.184   6.889  0.9443  2.8783  0.5688
  120OSM    C6S12637   1.243   5.236   7.077  0.3693 -0.0582 -0.2095
  120OSM    H6S12638   1.265   5.136   7.121  3.3089 -0.3610 -2.1503
  120OSM    H6T12639   1.136   5.258   7.100  0.3960 -0.9536  0.9033
  120OSM    C7S12640   1.337   5.347   7.123  0.2269 -0.1615 -0.1107
  120OSM    H7S12641   1.292   5.446   7.100 -0.2017 -0.4587 -0.5847
  120OSM    H7T12642   1.439   5.341   7.079  0.5073 -0.6679  0.5919
  120OSM    C8S12643   1.360   5.341   7.277 -0.0060  0.1899 -0.2329
  120OSM    H8S12644   1.403   5.248   7.320  2.7060  1.4474 -0.0333
  120OSM    H8T12645   1.265   5.359   7.332  0.3781  0.0364  0.4978
  120OSM    C9S12646   1.453   5.457   7.339 -0.0754  0.3571  1.2627
  120OSM    H9S12647   1.432   5.473   7.447  0.0485  4.5838  0.8379
  120OSM    H9T12648   1.433   5.546   7.275 -2.0540 -1.3804 -0.6636
  120OSM   C10S12649   1.595   5.408   7.332 -0.3190 -0.0904 -0.0000
  120OSM   H10S12650   1.619   5.414   7.223 -1.7682  1.0046 -0.2791
  120OSM   H10T12651   1.608   5.301   7.361 -0.2006  0.2268  1.1383
  120OSM   C11S12652   1.690   5.498   7.413 -0.4803 -0.4623  0.3541
  120OSM   H11S12653   1.685   5.604   7.380 -1.2556 -0.2894  0.9839
  120OSM   H11T12654   1.796   5.467   7.408 -0.1390  0.8318 -1.4264
  120OSM   C12S12655   1.666   5.515   7.563  0.0493 -0.4575 -0.3614
  120OSM   H12S12656   1.586   5.583   7.601  0.0975  0.0663 -1.1864
  120OSM   H12T12657   1.763   5.561   7.590  0.1892  0.8746 -2.8571
  120OSM   C13S12658   1.640   5.382   7.629 -0.0750  0.2802  0.5583
  120OSM   H13S12659   1.708   5.309   7.581  0.0468 -0.5618  1.9581
  120OSM   H13T12660   1.536   5.349   7.610 -1.1830  3.4845  0.5592
  120OSM   C14S12661   1.695   5.376   7.776 -1.4102 -0.7450  0.0260
  120OSM   H14S12662   1.647   5.459   7.833  3.0256 -0.1791  3.4492
  120OSM   H14T12663   1.804   5.396   7.767 -2.0184  2.8419 -1.0622
  120OSM   C15S12664   1.661   5.248   7.846 -0.4976  0.0585  0.3295
  120OSM   H15S12665   1.701   5.162   7.787 -0.1506  1.3546 -1.4005
  120OSM   H15T12666   1.553   5.225   7.860  0.1515 -2.2959  2.1446
  120OSM   C16S12667   1.710   5.246   7.995 -0.3959  0.1917  0.8485
  120OSM   H16S12668   1.688   5.349   8.031 -2.0914  1.0835 -2.3089
  120OSM   H16T12669   1.821   5.249   8.006 -0.2652 -0.6708 -0.0769
  120OSM   C17S12670   1.663   5.136   8.087 -0.4127 -0.0988 -0.1804
  120OSM   H17S12671   1.710   5.148   8.186  0.0793  0.1303 -0.4364
  120OSM   H17T12672   1.698   5.040   8.043 -0.3420 -0.0018 -0.3400
  120OSM   C18S12673   1.517   5.128   8.120  0.6410  0.0278  0.2704
  120OSM   H18S12674   1.503   5.038   8.182  0.4819  0.4160  0.8028
  120OSM   H18T12675   1.454   5.110   8.030  0.8982 -0.3501  0.1640
  120OSM   H18U12676   1.487   5.219   8.177 -1.8356  0.3041 -1.3394
  120OSM    C1F12677   1.359   5.571   6.651 -0.0547  0.1096  0.6850
  120OSM     OF12678   1.271   5.653   6.632 -0.2947  0.1524  0.0613
  120OSM    C2F12679   1.502   5.604   6.659 -0.1626 -0.5446  0.3248
  120OSM    H2F12680   1.515   5.682   6.581 -0.2988 -1.2794 -0.4431
  120OSM    H2G12681   1.564   5.518   6.628 -1.4543 -1.2916 -0.2448
  120OSM    C3F12682   1.548   5.649   6.799  0.2541 -1.0159 -0.3741
  120OSM    H3F12683   1.658   5.650   6.811  0.3633 -1.0265 -1.2954
  120OSM    H3G12684   1.515   5.582   6.881  0.0720  0.1024  0.4929
  120OSM    C4F12685   1.491   5.786   6.850  0.1345  0.5705 -0.0033
  120OSM    H4F12686   1.386   5.771   6.881 -0.9267  2.6152 -2.3066
  120OSM    H4G12687   1.468   5.852   6.764 -2.8124 -1.1079 -0.6238
  120OSM    C5F12688   1.583   5.859   6.949  0.1698 -0.1562  0.0543
  120OSM    H5F12689   1.552   5.965   6.948  0.0032 -0.2066 -1.6569
  120OSM    H5G12690   1.684   5.857   6.903 -0.2715 -0.3654 -0.9227
  120OSM    C6F12691   1.596   5.821   7.098 -0.3032 -0.6244  0.8052
  120OSM    H6F12692   1.636   5.718   7.111  0.3055 -0.4900  0.0690
  120OSM    H6G12693   1.494   5.840   7.138  0.2176  4.1253  0.3497
  120OSM    C7F12694   1.694   5.919   7.164 -0.5957  0.2092  0.9206
  120OSM    H7F12695   1.661   6.025   7.156  0.7675  0.5451 -0.6136
  120OSM    H7G12696   1.787   5.911   7.105 -1.0489  2.1449 -0.1382
  120OSM    C8F12697   1.729   5.888   7.309  0.2277 -1.1959  0.3114
  120OSM    H8F12698   1.807   5.964   7.332  0.6983 -1.0045 -1.7353
  120OSM    H8G12699   1.773   5.786   7.323  0.2364 -1.2816 -0.3265
  120OSM    C9F12700   1.609   5.904   7.395 -0.0414  0.7584  0.0994
  120OSM    H9F12701   1.512   5.895   7.345 -1.4734 -1.0080  2.9444
  120OSM   C10F12702   1.605   5.927   7.529  0.3164 -0.2499  0.4594
  120OSM   H10F12703   1.516   5.925   7.594  0.2274 -0.7301  0.3304
  120OSM   C11F12704   1.720   5.937   7.619  0.0936  0.4680  0.4299
  120OSM   H11F12705   1.816   5.965   7.570 -0.9387 -0.0990 -2.0425
  120OSM   H11G12706   1.743   5.832   7.647  0.8733  0.2045 -1.1241
  120OSM   C12F12707   1.697   6.038   7.740 -0.2027  0.1738  0.2993
  120OSM   H12F12708   1.763   6.017   7.827  1.4504  0.2883 -0.8763
  120OSM   H12G12709   1.593   6.031   7.778 -0.3803  0.3622 -0.1492
  120OSM   C13F12710   1.738   6.183   7.701 -0.2026  0.7913  0.1880
  120OSM   H13F12711   1.708   6.258   7.778 -2.2857  0.1511  0.0750
  120OSM   H13G12712   1.672   6.200   7.614 -2.3735 -0.5296  1.4717
  120OSM   C14F12713   1.892   6.203   7.680  0.9126  0.1837  0.3029
  120OSM   H14F12714   1.901   6.308   7.644  1.8154 -0.2794 -0.9399
  120OSM   H14G12715   1.935   6.140   7.599  0.9879 -2.1837  2.0965
  120OSM   C15F12716   1.975   6.175   7.799  0.1394  0.1018 -0.2403
  120OSM   H15F12717   2.077   6.137   7.775  1.2845  1.8123  1.6210
  120OSM   H15G12718   1.926   6.110   7.875 -1.3102  0.4368 -0.8633
  120OSM   C16F12719   2.006   6.307   7.867 -0.2637 -0.1213  0.3031
  120OSM   H16F12720   1.906   6.349   7.891  0.8563  2.0907  1.4118
  120OSM   H16G12721   2.063   6.369   7.794  0.3819 -1.0192  0.0188
  120OSM   C17F12722   2.070   6.287   8.009  0.8129 -0.4619 -0.0525
  120OSM   H17F12723   2.010   6.212   8.065  0.2587  1.6361  2.3612
  120OSM   H17G12724   2.057   6.385   8.059 -1.4133 -2.6834  4.2968
  120OSM   C18F12725   2.221   6.254   8.009 -0.2212  0.8604 -0.2933
  120OSM   H18F12726   2.271   6.257   8.108  1.4401  1.6359 -1.1183
  120OSM   H18G12727   2.271   6.325   7.941 -0.1672  0.9534 -0.1576
  120OSM   H18H12728   2.236   6.151   7.969 -4.8625 -0.5517  0.8590
  121OSM      N12729   0.435   6.049   5.979  0.1357  0.4051  0.6469
  121OSM    C1512730   0.434   5.969   5.848  0.2776 -0.6555 -0.2846
  121OSM   H15A12731   0.363   5.888   5.850 -1.4169  0.7598  1.4764
  121OSM   H15B12732   0.526   5.914   5.844  0.2480 -0.9313  1.7644
  121OSM   H15C12733   0.431   6.026   5.757  1.0890 -1.4921 -0.8483
  121OSM    C1412734   0.534   6.155   5.973 -0.1722  0.1000 -0.0704
  121OSM   H14A12735   0.523   6.215   5.883  1.1629  0.9937  0.3292
  121OSM   H14B12736   0.632   6.114   5.957 -1.4670 -2.7213 -1.5094
  121OSM   H14C12737   0.532   6.219   6.059  2.6282  1.1484 -0.6647
  121OSM    C1312738   0.305   6.126   5.996 -0.2493  0.4134  0.3594
  121OSM   H13A12739   0.223   6.055   6.000  1.2859 -1.4330  0.7461
  121OSM   H13B12740   0.295   6.190   5.910 -0.5514 -3.0443 -2.3986
  121OSM   H13C12741   0.312   6.175   6.092  0.9106 -0.5105  0.7719
  121OSM    C1212742   0.467   5.951   6.081 -0.3598 -0.5830 -0.1499
  121OSM   H12A12743   0.557   5.902   6.049 -0.8469 -1.0638 -0.7933
  121OSM   H12B12744   0.388   5.878   6.093 -0.1064 -1.0681 -1.3334
  121OSM    C1112745   0.496   6.002   6.233 -0.6965 -0.0387  1.3255
  121OSM   H11A12746   0.506   5.909   6.293  1.8279 -0.3128  0.5856
  121OSM   H11B12747   0.405   6.052   6.272 -0.0892  1.2534  1.1382
  121OSM      P12748   0.760   6.029   6.244 -0.3380  0.2754  0.1412
  121OSM    O1312749   0.763   5.904   6.164 -0.0942  0.8709  0.0775
  121OSM    O1412750   0.857   6.135   6.200 -0.5566 -0.2997 -0.1243
  121OSM    O1112751   0.782   5.992   6.391  0.5775 -0.2422  0.1546
  121OSM    O1212752   0.609   6.088   6.246 -0.2243  0.6554 -0.3202
  121OSM    C1S12753   0.848   6.071   6.487  0.0683  0.3348 -0.7407
  121OSM    H1S12754   0.945   6.111   6.449  1.9165 -2.3365  0.8169
  121OSM    H1T12755   0.889   6.011   6.571  1.3823  2.3589  0.1551
  121OSM     NF12756   0.848   6.264   6.639 -0.3733  0.0908 -0.6932
  121OSM    HNF12757   0.816   6.257   6.733  0.2851 -0.2685 -0.4882
  121OSM    C2S12758   0.769   6.195   6.547 -0.5270 -0.0381  0.1433
  121OSM    H2S12759   0.746   6.259   6.459  0.4458 -0.0163 -0.1076
  121OSM    C3S12760   0.632   6.143   6.613 -0.9534 -0.1501  0.7631
  121OSM    H3S12761   0.649   6.052   6.674 -3.3259 -0.5582  0.9180
  121OSM     O312762   0.540   6.086   6.521 -0.1534 -0.1550  0.4293
  121OSM    HO312763   0.573   6.085   6.431 -2.5839  1.2385 -0.5694
  121OSM    C4S12764   0.561   6.249   6.695  0.5055 -0.1275  0.2271
  121OSM    H4S12765   0.550   6.236   6.804  0.9570  1.2797  0.4538
  121OSM    C5S12766   0.496   6.356   6.638 -0.5193 -0.7898  0.4544
  121OSM    H5S12767   0.505   6.356   6.529 -0.7833 -1.3026  0.4297
  121OSM    C6S12768   0.426   6.468   6.702  0.8293  0.5564 -0.7874
  121OSM    H6S12769   0.334   6.485   6.644  0.0350 -1.8485 -0.3400
  121OSM    H6T12770   0.483   6.561   6.681 -2.1533  2.6448 -0.2055
  121OSM    C7S12771   0.401   6.452   6.854  0.9221  0.4616 -0.3193
  121OSM    H7S12772   0.498   6.444   6.906  1.1423 -0.6680 -0.8725
  121OSM    H7T12773   0.332   6.367   6.873 -0.5975  1.7675  0.1947
  121OSM    C8S12774   0.329   6.577   6.906 -0.5667  0.4122  0.7488
  121OSM    H8S12775   0.228   6.581   6.860 -0.0692  0.1413 -0.3955
  121OSM    H8T12776   0.396   6.657   6.870  0.0839 -1.4350 -2.6226
  121OSM    C9S12777   0.301   6.591   7.062 -0.1166  0.0095 -0.0681
  121OSM    H9S12778   0.220   6.517   7.079 -1.9647  2.2613  1.7437
  121OSM    H9T12779   0.259   6.691   7.085  1.4843  0.7204 -0.0783
  121OSM   C10S12780   0.426   6.572   7.144 -0.0345 -0.6964 -0.2755
  121OSM   H10S12781   0.510   6.635   7.108 -0.2697  0.7730  1.5827
  121OSM   H10T12782   0.453   6.464   7.149  2.4526 -0.1368 -0.2711
  121OSM   C11S12783   0.394   6.616   7.289 -0.8999 -1.1922 -0.6010
  121OSM   H11S12784   0.315   6.548   7.329 -2.1975  1.4691  1.6681
  121OSM   H11T12785   0.363   6.722   7.292  1.6916 -0.3846  0.8270
  121OSM   C12S12786   0.521   6.588   7.382 -0.1278 -0.2499 -0.1453
  121OSM   H12S12787   0.616   6.631   7.343 -0.9909  1.5152 -0.3823
  121OSM   H12T12788   0.548   6.480   7.369  1.2358  0.1671 -1.0208
  121OSM   C13S12789   0.502   6.627   7.536 -0.2186 -0.4256 -0.4359
  121OSM   H13S12790   0.464   6.548   7.603 -0.3607 -0.4767 -0.5753
  121OSM   H13T12791   0.438   6.716   7.554  0.3399 -0.0250 -0.3746
  121OSM   C14S12792   0.630   6.688   7.601  0.0994  0.3284  0.4264
  121OSM   H14S12793   0.692   6.749   7.532  1.8058 -1.7200  0.0448
  121OSM   H14T12794   0.688   6.599   7.633  1.3786  0.8273 -0.4660
  121OSM   C15S12795   0.612   6.772   7.726  0.6300 -0.0945  0.2175
  121OSM   H15S12796   0.563   6.707   7.801  0.1491 -2.0398 -1.6955
  121OSM   H15T12797   0.537   6.848   7.695  0.2489 -0.3302  0.5534
  121OSM   C16S12798   0.733   6.843   7.785 -0.2790 -0.4105  0.2516
  121OSM   H16S12799   0.796   6.882   7.702 -1.9131  0.1919 -0.7579
  121OSM   H16T12800   0.792   6.770   7.844 -1.0103 -0.8628  0.4346
  121OSM   C17S12801   0.686   6.951   7.882  0.0789 -0.3007 -0.3825
  121OSM   H17S12802   0.599   7.008   7.842  0.3360  2.5925  2.7357
  121OSM   H17T12803   0.766   7.028   7.886 -0.6858  0.5853 -1.4727
  121OSM   C18S12804   0.654   6.908   8.024  0.3736 -0.4316 -0.4827
  121OSM   H18S12805   0.743   6.876   8.082  0.9226  0.7462 -0.6339
  121OSM   H18T12806   0.589   6.819   8.014  1.7182 -1.6823  1.3409
  121OSM   H18U12807   0.599   6.988   8.078  1.7920  0.3949 -0.1995
  121OSM    C1F12808   0.965   6.322   6.607  0.0292  0.0774 -0.5289
  121OSM     OF12809   0.997   6.365   6.495  0.3025  0.2750  0.6155
  121OSM    C2F12810   1.059   6.349   6.718  0.2059 -0.2728 -0.0002
  121OSM    H2F12811   1.001   6.379   6.807 -1.0904  1.9934 -1.5222
  121OSM    H2G12812   1.134   6.427   6.696  1.1372 -1.2754 -0.5275
  121OSM    C3F12813   1.132   6.223   6.767 -1.1717  0.9746 -0.0308
  121OSM    H3F12814   1.222   6.196   6.708 -1.0035 -0.6373  0.9143
  121OSM    H3G12815   1.063   6.136   6.769 -0.3773  0.2410 -2.1081
  121OSM    C4F12816   1.181   6.236   6.912  0.0589  0.3844  0.1665
  121OSM    H4F12817   1.094   6.243   6.980  0.6549 -0.8979  1.0834
  121OSM    H4G12818   1.240   6.330   6.908  2.3946 -1.0200 -0.2819
  121OSM    C5F12819   1.279   6.125   6.962 -0.0853  0.7065 -0.2083
  121OSM    H5F12820   1.372   6.147   6.906 -0.6224  2.7373 -0.3815
  121OSM    H5G12821   1.240   6.022   6.952  0.8371  0.1780  1.3077
  121OSM    C6F12822   1.301   6.133   7.116 -0.2776 -0.1506  0.2593
  121OSM    H6F12823   1.397   6.082   7.137 -0.3552 -0.4571 -0.1164
  121OSM    H6G12824   1.215   6.088   7.170 -0.4375  2.5306  2.4711
  121OSM    C7F12825   1.312   6.273   7.179  0.1168 -0.0624 -0.3050
  121OSM    H7F12826   1.234   6.344   7.145 -1.8470 -1.4518  1.0096
  121OSM    H7G12827   1.407   6.322   7.150  0.5891  1.3466  3.1624
  121OSM    C8F12828   1.281   6.285   7.330  0.5874 -0.0888 -0.5590
  121OSM    H8F12829   1.180   6.248   7.360  0.3349  0.4289 -0.7538
  121OSM    H8G12830   1.288   6.391   7.365  0.6266 -0.4292  0.4934
  121OSM    C9F12831   1.381   6.212   7.406  0.5526  0.6640 -0.4316
  121OSM    H9F12832   1.452   6.149   7.351 -0.0523  0.4578 -0.9862
  121OSM   C10F12833   1.387   6.205   7.538 -0.3473 -0.0766  0.2936
  121OSM   H10F12834   1.479   6.160   7.577 -0.1066 -0.9876 -1.2411
  121OSM   C11F12835   1.292   6.272   7.643  0.2741  0.6622  1.2243
  121OSM   H11F12836   1.208   6.306   7.578  0.5933 -2.1125 -0.8759
  121OSM   H11G12837   1.341   6.358   7.693  0.6123  1.0678  0.2201
  121OSM   C12F12838   1.225   6.176   7.746  0.1106  0.4320  0.0221
  121OSM   H12F12839   1.180   6.087   7.697  1.8101 -1.5120  1.8123
  121OSM   H12G12840   1.141   6.235   7.790 -1.0855 -0.0132 -1.5746
  121OSM   C13F12841   1.319   6.126   7.866 -0.2269 -0.0402  0.1066
  121OSM   H13F12842   1.390   6.042   7.853 -0.7240 -0.2814 -1.1769
  121OSM   H13G12843   1.244   6.104   7.946 -2.4676  1.6471 -1.4005
  121OSM   C14F12844   1.404   6.239   7.926 -0.3321  0.2833  0.0328
  121OSM   H14F12845   1.347   6.331   7.953  1.1651  1.1274  0.3926
  121OSM   H14G12846   1.485   6.254   7.852 -1.8100  1.6881 -1.3855
  121OSM   C15F12847   1.446   6.183   8.066  0.6455 -0.0215 -0.1441
  121OSM   H15F12848   1.522   6.102   8.056  1.0177  0.2574  0.3706
  121OSM   H15G12849   1.360   6.139   8.121 -0.4928  1.3011 -0.8164
  121OSM   C16F12850   1.517   6.282   8.150  0.0915  0.1706  0.2642
  121OSM   H16F12851   1.529   6.245   8.254 -0.1471 -1.2037 -0.1844
  121OSM   H16G12852   1.455   6.374   8.152  0.0698  0.2366 -1.5401
  121OSM   C17F12853   1.655   6.320   8.099 -0.3221  0.1241 -0.0511
  121OSM   H17F12854   1.663   6.355   7.994  0.1497  0.1624 -0.0046
  121OSM   H17G12855   1.714   6.226   8.090 -1.3777 -0.6624  0.9198
  121OSM   C18F12856   1.723   6.406   8.199 -0.3634 -0.1241 -0.5778
  121OSM   H18F12857   1.812   6.454   8.152  0.3006 -0.3003  0.4635
  121OSM   H18G12858   1.752   6.353   8.292 -3.0509  1.0438  1.0462
  121OSM   H18H12859   1.655   6.486   8.235  0.2601  0.0154  0.3369
  122OSM      N12860   1.280   1.796   5.791  0.8423  0.6088  0.5434
  122OSM    C1512861   1.378   1.737   5.690  0.1886 -0.5488  0.7457
  122OSM   H15A12862   1.373   1.629   5.684 -1.8938 -0.4519 -0.0277
  122OSM   H15B12863   1.479   1.763   5.717  0.5352 -1.7257  0.6481
  122OSM   H15C12864   1.356   1.781   5.594 -1.3394 -0.9676  0.8803
  122OSM    C1412865   1.298   1.943   5.813 -0.4706  0.2100 -0.0838
  122OSM   H14A12866   1.381   1.971   5.876 -0.6268  0.2245  0.1174
  122OSM   H14B12867   1.210   1.973   5.868  0.6656  0.8442  1.4765
  122OSM   H14C12868   1.306   1.994   5.719 -2.6373  2.6709  0.9504
  122OSM    C1312869   1.137   1.762   5.766 -0.1722 -0.7778  0.2896
  122OSM   H13A12870   1.123   1.660   5.734  3.4196 -1.1196 -0.6948
  122OSM   H13B12871   1.108   1.826   5.684  0.1064  1.1120  1.5984
  122OSM   H13C12872   1.066   1.790   5.843  1.1727  2.5616  0.4976
  122OSM    C1212873   1.319   1.729   5.926  0.0298  0.4923  0.1568
  122OSM   H12A12874   1.421   1.758   5.950  0.4361 -0.1252 -0.7620
  122OSM   H12B12875   1.318   1.626   5.894  0.4858  0.2398  0.9168
  122OSM    C1112876   1.222   1.736   6.047 -0.5969  0.2128 -0.1952
  122OSM   H11A12877   1.187   1.841   6.063  1.6979  0.8352  1.2796
  122OSM   H11B12878   1.289   1.710   6.132  0.2491 -0.5702 -1.0857
  122OSM      P12879   1.122   1.488   6.036  0.2196  0.0716 -0.3416
  122OSM    O1312880   0.985   1.422   6.026  0.7733 -0.1785  0.4436
  122OSM    O1412881   1.222   1.449   5.935 -0.5136 -0.0415 -0.1764
  122OSM    O1112882   1.174   1.444   6.185 -0.5264 -0.2996  0.4260
  122OSM    O1212883   1.113   1.641   6.034  0.1050  0.5527 -0.2281
  122OSM    C1S12884   1.088   1.468   6.296 -0.1852 -0.6209 -0.4770
  122OSM    H1S12885   1.016   1.383   6.293  0.3571 -1.1525  0.8918
  122OSM    H1T12886   1.036   1.566   6.292 -1.1569 -1.0116  1.4975
  122OSM     NF12887   1.053   1.499   6.532 -0.3464 -0.2916 -0.0635
  122OSM    HNF12888   1.034   1.595   6.548 -2.1722 -0.2861 -1.8818
  122OSM    C2S12889   1.161   1.473   6.432  0.7485 -0.0418  0.1057
  122OSM    H2S12890   1.207   1.377   6.462 -0.3895  0.1896  2.9978
  122OSM    C3S12891   1.281   1.580   6.427 -0.7426  0.0615  0.4970
  122OSM    H3S12892   1.234   1.679   6.408 -0.1936  0.1454 -0.4776
  122OSM     O312893   1.369   1.571   6.319  0.6122 -0.0390  0.3950
  122OSM    HO312894   1.319   1.513   6.262  0.4500 -1.7995  2.2404
  122OSM    C4S12895   1.364   1.582   6.548 -0.3016  0.6788 -1.1419
  122OSM    H4S12896   1.340   1.666   6.616 -0.9482  0.9707 -1.7152
  122OSM    C5S12897   1.474   1.512   6.578  0.2245  0.1301  0.5690
  122OSM    H5S12898   1.509   1.442   6.500  0.7923  2.9127 -1.8332
  122OSM    C6S12899   1.547   1.525   6.703 -0.5116 -0.3935 -1.0099
  122OSM    H6S12900   1.481   1.571   6.779 -0.1641 -0.3978 -0.6991
  122OSM    H6T12901   1.640   1.587   6.700  0.7822 -2.2199 -0.3609
  122OSM    C7S12902   1.580   1.383   6.758  0.4867 -0.7322 -0.0717
  122OSM    H7S12903   1.620   1.325   6.672 -0.2823  0.0458 -0.9848
  122OSM    H7T12904   1.488   1.325   6.781 -1.4906  1.7685 -1.1615
  122OSM    C8S12905   1.682   1.380   6.872  0.4791  0.7372 -0.1364
  122OSM    H8S12906   1.772   1.432   6.832  2.3701 -1.8406  0.4735
  122OSM    H8T12907   1.703   1.273   6.892 -0.3052  0.4466 -0.8001
  122OSM    C9S12908   1.639   1.436   7.006  0.7100 -0.9959 -1.2143
  122OSM    H9S12909   1.605   1.542   7.005 -0.0286 -1.1981  0.2069
  122OSM    H9T12910   1.726   1.438   7.075  1.1041  2.4983 -1.6302
  122OSM   C10S12911   1.536   1.360   7.079 -0.4899 -0.6737 -0.1905
  122OSM   H10S12912   1.569   1.254   7.081  1.4010 -0.1266  2.3860
  122OSM   H10T12913   1.438   1.366   7.025  0.5143 -1.3952 -2.2052
  122OSM   C11S12914   1.520   1.393   7.224  0.7458 -0.8033  0.6492
  122OSM   H11S12915   1.500   1.502   7.228  2.2244 -0.4182 -1.2283
  122OSM   H11T12916   1.622   1.388   7.268  0.9463 -0.7765  0.1908
  122OSM   C12S12917   1.425   1.300   7.295 -0.3784  0.0359  0.3428
  122OSM   H12S12918   1.450   1.195   7.269 -1.5786 -0.1806 -0.0262
  122OSM   H12T12919   1.320   1.322   7.265 -0.7720  0.3087  1.8567
  122OSM   C13S12920   1.436   1.314   7.453  0.0087  0.1771  0.0598
  122OSM   H13S12921   1.421   1.424   7.464  1.7204  0.4375  0.2077
  122OSM   H13T12922   1.543   1.288   7.472  0.0278  0.6855  0.6746
  122OSM   C14S12923   1.337   1.232   7.535 -0.0216  0.5404  0.3007
  122OSM   H14S12924   1.318   1.139   7.479  0.2644  0.1568  0.8323
  122OSM   H14T12925   1.244   1.293   7.536 -0.1243  0.4116 -0.7483
  122OSM   C15S12926   1.368   1.217   7.682 -0.2381  1.0503 -0.2343
  122OSM   H15S12927   1.347   1.311   7.737 -1.0000  0.9132 -0.2782
  122OSM   H15T12928   1.477   1.199   7.697 -0.1382  0.9918 -0.9948
  122OSM   C16S12929   1.289   1.101   7.748  0.5054 -0.3455  0.1016
  122OSM   H16S12930   1.322   1.003   7.707 -2.1138 -1.3683  0.2310
  122OSM   H16T12931   1.186   1.107   7.706  0.7359 -1.1062 -0.6029
  122OSM   C17S12932   1.302   1.096   7.896  0.7405 -0.4260  0.0832
  122OSM   H17S12933   1.263   1.189   7.943 -1.1563  0.8490 -3.6180
  122OSM   H17T12934   1.407   1.067   7.921  0.8964 -1.1304 -1.2966
  122OSM   C18S12935   1.202   0.988   7.940  0.3951 -0.4798 -0.8193
  122OSM   H18S12936   1.198   1.002   8.050  1.5576  0.1050 -0.8374
  122OSM   H18T12937   1.240   0.884   7.925  2.9814 -0.1312  2.1708
  122OSM   H18U12938   1.097   1.000   7.907 -0.2153  1.3876  1.4966
  122OSM    C1F12939   0.952   1.413   6.554 -0.0388 -0.0350  0.1197
  122OSM     OF12940   0.960   1.303   6.498  0.6194 -0.0031  0.0871
  122OSM    C2F12941   0.830   1.446   6.641 -0.7471  0.1548 -0.4263
  122OSM    H2F12942   0.796   1.547   6.611  0.0760  1.0320  1.3720
  122OSM    H2G12943   0.869   1.461   6.745  1.6980  2.3271 -1.5429
  122OSM    C3F12944   0.720   1.342   6.630 -0.0607  0.7346  0.6179
  122OSM    H3F12945   0.774   1.250   6.660 -1.0043 -0.4665 -1.2038
  122OSM    H3G12946   0.679   1.329   6.528 -2.3210  2.4013  1.2086
  122OSM    C4F12947   0.601   1.374   6.723  0.3582  0.3979  1.0197
  122OSM    H4F12948   0.525   1.295   6.711 -1.0884  1.7635  0.8784
  122OSM    H4G12949   0.543   1.461   6.685 -0.2313  0.4193  1.9552
  122OSM    C5F12950   0.641   1.411   6.869 -0.9355 -0.1240 -0.2142
  122OSM    H5F12951   0.674   1.517   6.863 -1.4957 -0.0310 -2.2300
  122OSM    H5G12952   0.725   1.350   6.911  0.0286  1.0833 -0.3354
  122OSM    C6F12953   0.524   1.386   6.964 -0.5767 -1.0595 -0.4870
  122OSM    H6F12954   0.500   1.278   6.954 -0.1054 -1.3525  1.1563
  122OSM    H6G12955   0.444   1.452   6.926  1.3536  0.8461 -1.4844
  122OSM    C7F12956   0.574   1.418   7.113 -0.8594  0.4711  0.4329
  122OSM    H7F12957   0.634   1.512   7.116  0.1419 -0.1587  3.2177
  122OSM    H7G12958   0.642   1.340   7.153 -2.6786 -0.2808  2.2564
  122OSM    C8F12959   0.451   1.420   7.207  0.5674  0.1742  0.2880
  122OSM    H8F12960   0.493   1.419   7.310  5.7327 -1.6600 -1.5104
  122OSM    H8G12961   0.398   1.324   7.196 -1.2145  1.2326 -0.7739
  122OSM    C9F12962   0.348   1.533   7.184 -1.0903 -0.0325  0.7034
  122OSM    H9F12963   0.278   1.517   7.100 -0.6486 -0.0383  0.3344
  122OSM   C10F12964   0.353   1.646   7.253  0.6532 -0.2383  0.5871
  122OSM   H10F12965   0.282   1.728   7.240 -3.0967 -3.3796 -0.7407
  122OSM   C11F12966   0.464   1.688   7.352  0.3673  0.3405  0.1605
  122OSM   H11F12967   0.487   1.793   7.323 -1.1005  0.9467  1.0753
  122OSM   H11G12968   0.554   1.624   7.349 -0.1185 -0.3311 -0.6329
  122OSM   C12F12969   0.410   1.709   7.497 -0.1557 -0.1775 -0.2412
  122OSM   H12F12970   0.309   1.755   7.489 -1.1877 -2.3012 -0.2961
  122OSM   H12G12971   0.471   1.793   7.536 -0.4986  0.4975 -1.1304
  122OSM   C13F12972   0.408   1.588   7.590 -0.3701  0.3911  0.3586
  122OSM   H13F12973   0.514   1.559   7.605 -1.0027 -1.3640  1.7976
  122OSM   H13G12974   0.349   1.502   7.554  0.2505 -0.2356  0.8199
  122OSM   C14F12975   0.338   1.620   7.725 -0.1736 -0.1611  0.1369
  122OSM   H14F12976   0.321   1.523   7.776 -2.6930 -0.1570 -0.5608
  122OSM   H14G12977   0.235   1.656   7.703  0.2464  0.2572 -1.2794
  122OSM   C15F12978   0.406   1.722   7.813  0.3938 -0.4259  0.0154
  122OSM   H15F12979   0.408   1.822   7.766 -1.1927 -0.3052  0.1703
  122OSM   H15G12980   0.515   1.701   7.822  0.6656  0.8452 -0.1804
  122OSM   C16F12981   0.353   1.713   7.962 -0.6242 -0.4930 -0.1075
  122OSM   H16F12982   0.393   1.624   8.014 -0.3669 -1.9195 -2.5912
  122OSM   H16G12983   0.248   1.678   7.953 -1.6628  2.6959 -2.9684
  122OSM   C17F12984   0.347   1.849   8.036  0.0034  0.5498 -0.0264
  122OSM   H17F12985   0.313   1.923   7.961  1.1448  0.1550 -0.9704
  122OSM   H17G12986   0.453   1.874   8.058  0.7635 -0.1664 -2.5444
  122OSM   C18F12987   0.259   1.841   8.155 -0.3637 -0.5850  0.2784
  122OSM   H18F12988   0.152   1.830   8.126 -0.8761  1.0505  1.4046
  122OSM   H18G12989   0.270   1.934   8.215  0.9200 -1.0038  0.7140
  122OSM   H18H12990   0.296   1.752   8.211 -2.1466 -1.3278  0.3587
  123OSM      N12991   1.349   3.290   6.554  0.0555 -0.3407  0.2316
  123OSM    C1512992   1.274   3.156   6.547  0.6780 -0.2037  0.2009
  123OSM   H15A12993   1.341   3.077   6.515  0.6006  0.2891 -1.2426
  123OSM   H15B12994   1.192   3.157   6.476  0.8587 -0.1284 -0.0068
  123OSM   H15C12995   1.235   3.126   6.643 -0.6301  0.3279 -0.1476
  123OSM    C1412996   1.467   3.271   6.654  0.4378  0.0883 -0.1131
  123OSM   H14A12997   1.520   3.363   6.668  0.7322  0.0020 -0.6145
  123OSM   H14B12998   1.536   3.198   6.613 -0.3642 -0.1391 -1.1116
  123OSM   H14C12999   1.432   3.238   6.750 -1.5894 -1.4904 -1.2992
  123OSM    C1313000   1.405   3.309   6.418  0.3451 -0.2030  0.2032
  123OSM   H13A13001   1.325   3.310   6.345 -0.6368  2.5907  1.2078
  123OSM   H13B13002   1.482   3.240   6.387  0.0306 -0.4675  0.0021
  123OSM   H13C13003   1.447   3.408   6.418 -1.1399  0.4957 -1.6263
  123OSM    C1213004   1.247   3.395   6.590  0.2702 -0.1952 -0.0926
  123OSM   H12A13005   1.201   3.367   6.684 -0.9337 -1.6735 -1.0722
  123OSM   H12B13006   1.167   3.381   6.519 -1.2762  1.7505  1.1484
  123OSM    C1113007   1.285   3.546   6.586 -0.7187 -0.1869 -0.5505
  123OSM   H11A13008   1.351   3.593   6.510  4.4207 -1.9121  2.3801
  123OSM   H11B13009   1.337   3.558   6.684 -2.0146 -1.2860  0.2993
  123OSM      P13010   1.077   3.692   6.487 -0.1399 -0.6343 -0.6441
  123OSM    O1313011   1.119   3.650   6.358 -0.1873  0.1558 -0.3268
  123OSM    O1413012   0.937   3.672   6.532  0.6606  0.1309  0.2377
  123OSM    O1113013   1.128   3.836   6.516 -0.2800  0.1511  0.7697
  123OSM    O1213014   1.160   3.614   6.599  0.3717 -0.5446  0.2914
  123OSM    C1S13015   1.083   3.933   6.613  0.2117 -0.3627  0.0741
  123OSM    H1S13016   0.980   3.916   6.650 -0.4326  2.7097 -0.0454
  123OSM    H1T13017   1.069   4.030   6.560 -0.7200 -1.0046 -0.9021
  123OSM     NF13018   1.109   4.024   6.838  0.0813  0.1165 -0.2720
  123OSM    HNF13019   1.140   4.117   6.856  1.2716 -0.5603  1.3484
  123OSM    C2S13020   1.171   3.942   6.737  0.2046  0.6092 -0.3687
  123OSM    H2S13021   1.191   3.837   6.766 -0.5414  0.9398  1.4828
  123OSM    C3S13022   1.314   3.997   6.705  0.3458  0.4308 -0.0751
  123OSM    H3S13023   1.310   4.100   6.664 -1.3854  0.4098 -0.0089
  123OSM     O313024   1.373   3.917   6.607 -0.3503  0.4784  0.7451
  123OSM    HO313025   1.304   3.854   6.583 -0.1456  1.2219 -2.2161
  123OSM    C4S13026   1.402   4.005   6.834  0.7613  0.1062 -0.0829
  123OSM    H4S13027   1.435   4.106   6.862 -0.6824  0.6411 -0.2465
  123OSM    C5S13028   1.466   3.902   6.892 -0.0531  0.4076  0.0699
  123OSM    H5S13029   1.458   3.800   6.851  2.4581  0.3077 -0.3158
  123OSM    C6S13030   1.556   3.919   7.008  0.0642 -0.0047 -1.1786
  123OSM    H6S13031   1.654   3.934   6.958 -0.3432  0.6731 -1.7964
  123OSM    H6T13032   1.566   3.830   7.073 -2.6305 -0.6143 -1.4752
  123OSM    C7S13033   1.542   4.034   7.109  0.1902 -0.4778  0.3264
  123OSM    H7S13034   1.557   4.132   7.058 -2.3906  0.1219  0.5289
  123OSM    H7T13035   1.616   4.027   7.191 -1.2138  0.5027  1.7448
  123OSM    C8S13036   1.395   4.039   7.171  0.0419 -0.3862 -0.1559
  123OSM    H8S13037   1.373   3.937   7.210  2.5733 -0.8238  0.3249
  123OSM    H8T13038   1.318   4.048   7.092 -0.3351 -0.4699  0.1981
  123OSM    C9S13039   1.375   4.145   7.278  0.8611 -0.7325 -0.7893
  123OSM    H9S13040   1.363   4.235   7.215 -0.4769 -0.6690 -0.4902
  123OSM    H9T13041   1.455   4.148   7.355  0.0848 -0.7835  0.0402
  123OSM   C10S13042   1.246   4.130   7.365 -0.4208 -0.3756 -0.1001
  123OSM   H10S13043   1.283   4.081   7.458 -0.3944 -0.5429 -0.1990
  123OSM   H10T13044   1.170   4.059   7.324 -1.4511  1.2060 -1.0115
  123OSM   C11S13045   1.177   4.256   7.398 -0.0097 -0.0526  0.4354
  123OSM   H11S13046   1.118   4.281   7.307 -2.0834 -1.9789  1.1405
  123OSM   H11T13047   1.252   4.333   7.425  0.3126 -0.1586 -0.1601
  123OSM   C12S13048   1.074   4.254   7.520 -0.8070  0.8825  0.3396
  123OSM   H12S13049   1.008   4.164   7.516  0.4658 -0.0754  0.4293
  123OSM   H12T13050   1.013   4.347   7.517 -1.3434  0.6295  2.2148
  123OSM   C13S13051   1.147   4.244   7.649 -0.5811 -0.2527  0.4036
  123OSM   H13S13052   1.147   4.350   7.684 -1.5944  0.5788 -1.8599
  123OSM   H13T13053   1.247   4.197   7.639  0.1879  1.2386  0.7555
  123OSM   C14S13054   1.055   4.156   7.736  0.3321 -0.2673  0.4611
  123OSM   H14S13055   1.040   4.054   7.695 -0.8978 -0.6561  1.8095
  123OSM   H14T13056   0.954   4.199   7.747 -0.1912 -1.7293  1.7491
  123OSM   C15S13057   1.124   4.139   7.878  0.3664  0.3894  0.6178
  123OSM   H15S13058   1.233   4.140   7.857  0.0702  2.2972 -1.1179
  123OSM   H15T13059   1.088   4.040   7.916 -1.1439  0.7463  0.1848
  123OSM   C16S13060   1.077   4.250   7.977  0.1476  0.1384  0.3013
  123OSM   H16S13061   0.966   4.244   7.986  0.2386 -0.0601  1.4427
  123OSM   H16T13062   1.106   4.348   7.934  0.5706 -0.7981 -1.6642
  123OSM   C17S13063   1.153   4.246   8.116 -0.4984 -0.2934 -0.4470
  123OSM   H17S13064   1.096   4.327   8.167 -0.2868 -0.8441  0.7019
  123OSM   H17T13065   1.256   4.282   8.097 -1.3047  1.7354 -1.3117
  123OSM   C18S13066   1.131   4.113   8.192 -0.7215 -0.1239 -0.4281
  123OSM   H18S13067   1.155   4.123   8.300  0.3088 -0.5609 -0.6004
  123OSM   H18T13068   1.187   4.022   8.160 -3.5963 -1.9179 -0.7320
  123OSM   H18U13069   1.023   4.091   8.177 -0.6024 -1.5278  0.5624
  123OSM    C1F13070   1.011   3.973   6.906 -0.0037  0.8738 -0.4724
  123OSM     OF13071   0.986   3.851   6.924 -0.3137 -0.2962 -1.0457
  123OSM    C2F13072   0.923   4.080   6.964  0.4731 -0.0576 -0.7832
  123OSM    H2F13073   0.845   4.109   6.890  1.0122  1.2513 -0.8654
  123OSM    H2G13074   0.984   4.169   6.990 -1.8767  1.5796 -0.5353
  123OSM    C3F13075   0.852   4.033   7.099 -0.2069  0.6766 -0.5152
  123OSM    H3F13076   0.932   4.002   7.170 -0.3119  0.6587 -0.4049
  123OSM    H3G13077   0.784   3.947   7.079  0.4868 -0.2313  0.8726
  123OSM    C4F13078   0.789   4.135   7.192  0.2412 -0.1681  0.5666
  123OSM    H4F13079   0.706   4.192   7.145  0.9647  0.2889 -0.1736
  123OSM    H4G13080   0.857   4.215   7.228 -0.6394  0.2736  1.2822
  123OSM    C5F13081   0.733   4.071   7.324 -0.4191  0.5424  0.4930
  123OSM    H5F13082   0.818   4.018   7.373 -1.1994 -0.5454  0.7166
  123OSM    H5G13083   0.658   3.997   7.291 -0.8506  1.3038 -0.2713
  123OSM    C6F13084   0.673   4.171   7.425  0.1344 -0.0144 -0.4824
  123OSM    H6F13085   0.567   4.177   7.391  0.4114 -0.8695 -1.5649
  123OSM    H6G13086   0.711   4.274   7.407  0.8972 -0.3389 -0.7514
  123OSM    C7F13087   0.686   4.137   7.573  0.0996  0.6809 -0.2454
  123OSM    H7F13088   0.789   4.110   7.603  0.2182 -2.0408 -2.6764
  123OSM    H7G13089   0.632   4.039   7.574  0.5993  0.3971 -0.8662
  123OSM    C8F13090   0.606   4.244   7.660 -0.4829 -0.3873  0.7739
  123OSM    H8F13091   0.579   4.199   7.758 -1.8647  0.4161  0.7815
  123OSM    H8G13092   0.515   4.272   7.604  0.4244 -0.4640 -0.7935
  123OSM    C9F13093   0.689   4.366   7.687 -0.0379  0.7598  0.3142
  123OSM    H9F13094   0.716   4.420   7.596  2.8023 -0.3717  0.3585
  123OSM   C10F13095   0.732   4.408   7.805  0.6998  0.4004  0.1633
  123OSM   H10F13096   0.805   4.490   7.812 -0.5105  1.4186  1.5211
  123OSM   C11F13097   0.704   4.344   7.940  0.0084  0.4116 -0.9187
  123OSM   H11F13098   0.747   4.242   7.943  0.7722  0.7408  1.0574
  123OSM   H11G13099   0.593   4.345   7.949  0.1009  2.1492  0.5617
  123OSM   C12F13100   0.757   4.433   8.054  0.0249 -0.2945 -0.5191
  123OSM   H12F13101   0.722   4.538   8.045  0.9334 -0.0680 -1.5305
  123OSM   H12G13102   0.867   4.428   8.061  0.2057  1.5747 -1.4286
  123OSM   C13F13103   0.710   4.383   8.195 -0.4460  0.1894  0.0584
  123OSM   H13F13104   0.760   4.294   8.239 -1.5225 -0.4204  0.0882
  123OSM   H13G13105   0.608   4.343   8.178  0.5308 -1.3483 -2.8485
  123OSM   C14F13106   0.701   4.501   8.291  0.2193  0.8891 -0.9178
  123OSM   H14F13107   0.656   4.589   8.239 -0.7172  0.4670 -0.8460
  123OSM   H14G13108   0.804   4.522   8.327  1.1180 -0.4449 -2.5821
  123OSM   C15F13109   0.630   4.473   8.427  0.1844  0.1273  0.2090
  123OSM   H15F13110   0.673   4.384   8.476 -2.0452 -1.5284 -0.6630
  123OSM   H15G13111   0.522   4.451   8.412  0.2844 -0.5106  0.4028
  123OSM   C16F13112   0.642   4.585   8.533  0.7841 -0.3891 -0.6897
  123OSM   H16F13113   0.570   4.561   8.614  0.4951  0.8328 -0.5624
  123OSM   H16G13114   0.619   4.682   8.484  0.0338 -0.0966  0.2215
  123OSM   C17F13115   0.777   4.602   8.597 -0.7107 -0.2475  0.1834
  123OSM   H17F13116   0.836   4.513   8.569 -1.1031 -0.4679  0.0376
  123OSM   H17G13117   0.776   4.588   8.707 -0.0338  0.9509  0.3576
  123OSM   C18F13118   0.845   4.723   8.548  0.2314 -0.2449  0.0127
  123OSM   H18F13119   0.858   4.721   8.438 -1.5139  0.5756 -0.2478
  123OSM   H18G13120   0.939   4.742   8.604  1.3523  0.4873 -2.0322
  123OSM   H18H13121   0.779   4.812   8.564  0.1505 -0.2288 -0.4055
  124OSM      N13122   0.533   1.971   5.941 -0.0908  0.1774 -0.7587
  124OSM    C1513123   0.572   2.099   5.874 -0.1473 -0.0523 -0.7912
  124OSM   H15A13124   0.615   2.178   5.933 -1.9719 -0.1507  0.7814
  124OSM   H15B13125   0.488   2.136   5.817  1.0953  2.1371 -1.3111
  124OSM   H15C13126   0.639   2.069   5.795  3.6443  0.0104  2.1293
  124OSM    C1413127   0.467   1.872   5.846 -0.9018 -0.6146 -0.3004
  124OSM   H14A13128   0.520   1.843   5.757 -0.1194 -2.6652  0.7555
  124OSM   H14B13129   0.375   1.922   5.818 -0.1998  0.1440 -1.2947
  124OSM   H14C13130   0.444   1.783   5.903 -0.2490 -1.0332 -0.6792
  124OSM    C1313131   0.663   1.911   5.989  0.1182 -0.4405 -0.3013
  124OSM   H13A13132   0.648   1.836   6.065  0.6173  0.1219  0.3599
  124OSM   H13B13133   0.728   1.992   6.021 -0.9905 -0.0799  1.1278
  124OSM   H13C13134   0.708   1.878   5.896  0.2200  2.7544 -1.5516
  124OSM    C1213135   0.442   2.003   6.062 -0.6752  0.3366  0.3711
  124OSM   H12A13136   0.426   1.907   6.108 -1.8213  0.3810  0.0957
  124OSM   H12B13137   0.349   2.032   6.015 -0.1308 -1.2739 -1.9288
  124OSM    C1113138   0.481   2.121   6.152  0.2761 -0.6090  0.2686
  124OSM   H11A13139   0.589   2.103   6.174  0.3476 -0.0060  0.4200
  124OSM   H11B13140   0.430   2.104   6.249  0.1324 -1.4140  0.0579
  124OSM      P13141   0.341   2.337   6.106 -0.3816 -0.1550 -0.3144
  124OSM    O1313142   0.361   2.472   6.051 -0.5293  0.4165 -0.3992
  124OSM    O1413143   0.223   2.261   6.060  0.1583 -0.1479 -0.2009
  124OSM    O1113144   0.330   2.352   6.259 -0.9151  0.6190 -0.3066
  124OSM    O1213145   0.467   2.249   6.090 -0.0255  0.6977 -0.3965
  124OSM    C1S13146   0.440   2.378   6.347 -0.0469 -0.1119  0.0088
  124OSM    H1S13147   0.454   2.487   6.331  1.1407 -0.2927 -0.2741
  124OSM    H1T13148   0.536   2.330   6.318  0.2075 -0.2029  0.9620
  124OSM     NF13149   0.516   2.387   6.576  0.8480  0.4623 -0.3555
  124OSM    HNF13150   0.570   2.304   6.585  2.0787  1.0127 -2.1135
  124OSM    C2S13151   0.404   2.356   6.495  0.8516 -0.0421  0.2223
  124OSM    H2S13152   0.320   2.425   6.517 -0.9264 -1.7120 -1.0079
  124OSM    C3S13153   0.341   2.207   6.506 -1.2762 -0.6686  0.0952
  124OSM    H3S13154   0.429   2.151   6.469  0.6690  2.3513 -0.1992
  124OSM     O313155   0.229   2.185   6.428  0.2432  0.5586 -0.1452
  124OSM    HO313156   0.245   2.248   6.357  1.2207 -0.7553 -1.1273
  124OSM    C4S13157   0.317   2.180   6.655 -0.5775  0.9360  0.0110
  124OSM    H4S13158   0.398   2.122   6.701 -1.7841 -0.1159  0.9168
  124OSM    C5S13159   0.200   2.182   6.729 -0.0969 -0.1798  0.1998
  124OSM    H5S13160   0.110   2.203   6.669  0.3007 -0.8454 -0.6628
  124OSM    C6S13161   0.189   2.145   6.875 -0.6942  0.3501  0.1568
  124OSM    H6S13162   0.109   2.069   6.882 -0.6673  0.1679 -1.3088
  124OSM    H6T13163   0.149   2.234   6.929  1.1257  0.0850  2.0624
  124OSM    C7S13164   0.325   2.102   6.947 -1.2367 -0.7222  0.1450
  124OSM    H7S13165   0.384   2.194   6.965 -0.1104 -1.7211  1.8224
  124OSM    H7T13166   0.396   2.037   6.891 -1.5321  0.4843 -1.7255
  124OSM    C8S13167   0.296   2.046   7.090  0.4935  0.1816 -0.1470
  124OSM    H8S13168   0.377   1.971   7.102 -1.0797 -1.7763 -1.3453
  124OSM    H8T13169   0.215   1.971   7.097  0.8243 -0.2605 -0.9687
  124OSM    C9S13170   0.278   2.151   7.201  0.8305 -0.4675 -0.2117
  124OSM    H9S13171   0.193   2.219   7.182  0.5701 -0.7286  0.0099
  124OSM    H9T13172   0.373   2.208   7.191 -0.0515  1.5230  1.8266
  124OSM   C10S13173   0.269   2.089   7.346 -0.2956  0.3683 -0.6775
  124OSM   H10S13174   0.348   2.011   7.354  1.2387  1.9519  0.3171
  124OSM   H10T13175   0.168   2.048   7.369  0.2295  0.3443  1.8496
  124OSM   C11S13176   0.309   2.190   7.452 -0.0029  0.0175 -0.3594
  124OSM   H11S13177   0.249   2.280   7.425 -0.1950 -0.0247 -0.0786
  124OSM   H11T13178   0.418   2.209   7.443 -0.3083  3.2185  0.9764
  124OSM   C12S13179   0.253   2.152   7.592  0.6131  0.9829  0.4002
  124OSM   H12S13180   0.312   2.060   7.614 -2.2548 -0.7796  1.1871
  124OSM   H12T13181   0.143   2.141   7.586  0.6275 -1.5845  2.6861
  124OSM   C13S13182   0.259   2.259   7.700  0.4938 -0.0639  0.8224
  124OSM   H13S13183   0.191   2.343   7.675  0.3030 -0.4779 -0.0931
  124OSM   H13T13184   0.363   2.295   7.706  1.0280 -1.3419 -0.3862
  124OSM   C14S13185   0.214   2.203   7.837 -0.1713 -0.3468  0.5850
  124OSM   H14S13186   0.272   2.111   7.858  0.9497 -0.3851 -2.2330
  124OSM   H14T13187   0.113   2.162   7.814  1.0988 -2.0669 -2.4916
  124OSM   C15S13188   0.217   2.300   7.953 -0.6645 -0.1844  0.7835
  124OSM   H15S13189   0.175   2.398   7.920 -1.6462 -1.5408 -2.3380
  124OSM   H15T13190   0.326   2.306   7.977 -0.8160  1.0197  1.2753
  124OSM   C16S13191   0.150   2.241   8.074 -0.0050  0.0440  0.4132
  124OSM   H16S13192   0.209   2.160   8.121  1.1064  0.1871 -0.6730
  124OSM   H16T13193   0.056   2.192   8.041 -0.5499  0.2999  1.5322
  124OSM   C17S13194   0.128   2.354   8.168  0.3131  0.7562 -0.1060
  124OSM   H17S13195   0.084   2.438   8.111  0.3540  0.7139 -0.2005
  124OSM   H17T13196   0.222   2.387   8.217 -0.5516  0.3875  1.8937
  124OSM   C18S13197   0.024   2.320   8.276 -0.3369 -0.4737  0.0078
  124OSM   H18S13198   0.069   2.266   8.363 -2.1114 -1.1955  0.5244
  124OSM   H18T13199  -0.049   2.246   8.237 -0.7915 -0.0430  0.0277
  124OSM   H18U13200  -0.025   2.415   8.305  0.8517  0.4466 -0.9279
  124OSM    C1F13201   0.564   2.503   6.601  0.1065 -0.4967 -0.9406
  124OSM     OF13202   0.523   2.612   6.550  0.0845  0.0886 -0.1345
  124OSM    C2F13203   0.690   2.504   6.689  0.4491 -0.2358  0.8253
  124OSM    H2F13204   0.731   2.607   6.692  0.0581 -0.0950  1.4206
  124OSM    H2G13205   0.766   2.445   6.633 -1.1580 -2.4676  0.8250
  124OSM    C3F13206   0.673   2.446   6.829 -0.6044  0.0784 -0.1970
  124OSM    H3F13207   0.667   2.335   6.820 -0.6029 -0.0769  1.4645
  124OSM    H3G13208   0.583   2.491   6.875  0.5282  0.9232  1.2596
  124OSM    C4F13209   0.791   2.483   6.924 -0.0975 -0.4988  0.2802
  124OSM    H4F13210   0.778   2.591   6.943  0.0462 -0.3266 -0.5586
  124OSM    H4G13211   0.895   2.462   6.890  0.1229 -2.4179  1.9746
  124OSM    C5F13212   0.788   2.384   7.042 -0.2494 -0.4615 -0.1448
  124OSM    H5F13213   0.778   2.282   7.000 -0.5101 -1.2561  1.7498
  124OSM    H5G13214   0.700   2.390   7.110  0.4418  1.6123  0.6609
  124OSM    C6F13215   0.922   2.387   7.112 -0.2416  0.1241  0.8716
  124OSM    H6F13216   0.945   2.482   7.164 -2.3608  0.6677  0.8671
  124OSM    H6G13217   1.010   2.359   7.050 -0.1210 -0.5129  1.3158
  124OSM    C7F13218   0.947   2.278   7.225  0.1311 -0.6233  0.8046
  124OSM    H7F13219   0.926   2.187   7.165  0.0320 -0.3228  0.3804
  124OSM    H7G13220   0.864   2.280   7.299 -1.0916  0.9380 -0.5333
  124OSM    C8F13221   1.081   2.290   7.290  0.0298  0.5087  0.1322
  124OSM    H8F13222   1.073   2.258   7.396 -1.6017 -0.7458 -0.3368
  124OSM    H8G13223   1.112   2.397   7.289 -2.3071  1.3025  2.0481
  124OSM    C9F13224   1.191   2.213   7.221 -0.9891 -0.0193  0.3334
  124OSM    H9F13225   1.232   2.254   7.128 -2.7151 -1.6985 -1.2687
  124OSM   C10F13226   1.224   2.088   7.255 -0.4500  0.0304 -0.6623
  124OSM   H10F13227   1.294   2.033   7.191 -1.1570 -0.5785 -0.9372
  124OSM   C11F13228   1.166   1.998   7.357  0.8619 -0.0468 -0.1283
  124OSM   H11F13229   1.095   1.931   7.305 -2.1975  0.2349  3.3072
  124OSM   H11G13230   1.106   2.055   7.432 -0.6690  0.6479 -1.8098
  124OSM   C12F13231   1.271   1.911   7.445  0.1402 -0.3738 -0.1050
  124OSM   H12F13232   1.360   1.971   7.476  1.3991 -0.2456 -3.5882
  124OSM   H12G13233   1.303   1.832   7.373  0.4895 -0.9807  0.6943
  124OSM   C13F13234   1.198   1.845   7.567  0.3413  0.5848  0.0996
  124OSM   H13F13235   1.119   1.775   7.532  1.0777 -0.4156  0.3908
  124OSM   H13G13236   1.136   1.927   7.611 -1.9355 -0.5651 -0.8413
  124OSM   C14F13237   1.300   1.775   7.660 -0.0304  0.1438 -0.0014
  124OSM   H14F13238   1.344   1.867   7.705 -0.4845  2.2429 -3.4407
  124OSM   H14G13239   1.382   1.723   7.604 -0.7988 -1.9769  0.7381
  124OSM   C15F13240   1.233   1.680   7.758  1.0819 -0.3394 -0.7479
  124OSM   H15F13241   1.195   1.595   7.698  3.5793  0.0249 -3.0041
  124OSM   H15G13242   1.152   1.741   7.804  1.1541 -1.1381  0.4823
  124OSM   C16F13243   1.331   1.614   7.854  0.8575 -0.4779  0.4237
  124OSM   H16F13244   1.383   1.695   7.909  1.1405 -0.2022 -0.2390
  124OSM   H16G13245   1.401   1.566   7.782 -1.4282 -1.6757 -1.1296
  124OSM   C17F13246   1.273   1.498   7.938 -0.7073 -0.2361 -0.8278
  124OSM   H17F13247   1.220   1.424   7.875  0.8014 -0.9962 -1.2457
  124OSM   H17G13248   1.209   1.552   8.011  1.5187  1.4732 -0.0333
  124OSM   C18F13249   1.391   1.421   8.011  0.3225 -0.3231  0.6698
  124OSM   H18F13250   1.353   1.361   8.097  0.3875  3.5584  3.6325
  124OSM   H18G13251   1.468   1.489   8.053  0.1442  0.3507 -0.0733
  124OSM   H18H13252   1.435   1.357   7.931  0.1830  0.7925 -0.3312
  125OSM      N13253   2.322   6.233   6.132 -0.8168 -0.9683 -0.0973
  125OSM    C1513254   2.276   6.323   6.245  0.1955 -0.2829  0.4552
  125OSM   H15A13255   2.342   6.324   6.331  0.1328  1.9407  0.5164
  125OSM   H15B13256   2.187   6.283   6.292 -1.1915  1.8870 -0.1926
  125OSM   H15C13257   2.257   6.426   6.218 -1.1685 -1.0053 -1.6486
  125OSM    C1413258   2.228   6.251   6.022  0.1051  0.1957 -0.6459
  125OSM   H14A13259   2.128   6.217   6.046 -0.4572  0.8079 -2.0326
  125OSM   H14B13260   2.257   6.198   5.933  0.0475 -1.4332  0.2659
  125OSM   H14C13261   2.222   6.354   5.991  0.9811  1.2106  2.1804
  125OSM    C1313262   2.455   6.277   6.085  0.0323  0.3512  0.1797
  125OSM   H13A13263   2.494   6.205   6.015  2.1880  0.7775  0.8871
  125OSM   H13B13264   2.534   6.277   6.159  0.1469  0.1951  0.0577
  125OSM   H13C13265   2.460   6.373   6.036 -0.3558  0.4317  0.2879
  125OSM    C1213266   2.341   6.085   6.186  0.3669 -1.2160  0.3768
  125OSM   H12A13267   2.368   6.014   6.109  0.3445 -2.2585  1.2982
  125OSM   H12B13268   2.245   6.058   6.227 -0.5102  0.6197 -0.3590
  125OSM    C1113269   2.441   6.066   6.305 -0.8906  0.4789 -0.6190
  125OSM   H11A13270   2.438   5.955   6.319 -0.2880  0.3931 -1.1382
  125OSM   H11B13271   2.407   6.112   6.399  1.1613 -0.4274  0.6483
  125OSM      P13272   2.694   6.022   6.234 -0.0266  0.0159  0.0935
  125OSM    O1313273   2.649   5.948   6.109  0.5054  0.1030  0.0074
  125OSM    O1413274   2.822   6.092   6.221  0.1022  0.3258 -0.1625
  125OSM    O1113275   2.701   5.929   6.353  0.0298  0.0961  0.0991
  125OSM    O1213276   2.577   6.118   6.273  0.5066  0.2370  0.0815
  125OSM    C1S13277   2.786   5.974   6.463  0.7869  0.1890  0.3440
  125OSM    H1S13278   2.798   6.084   6.465 -0.2277  0.3208 -0.0642
  125OSM    H1T13279   2.886   5.928   6.451  1.0235  1.0341 -1.1256
  125OSM     NF13280   2.803   5.994   6.710 -0.1860 -0.4866 -0.5433
  125OSM    HNF13281   2.848   5.931   6.772 -0.3886 -1.9805 -1.8635
  125OSM    C2S13282   2.722   5.937   6.600 -0.0669  0.5484  0.0234
  125OSM    H2S13283   2.617   5.974   6.600 -0.4866 -0.5971 -0.6813
  125OSM    C3S13284   2.702   5.782   6.618 -0.8621 -0.3575 -0.0573
  125OSM    H3S13285   2.807   5.746   6.627  0.3475  2.0584 -2.8428
  125OSM     O313286   2.643   5.719   6.502 -0.5056  0.5443 -0.5420
  125OSM    HO313287   2.661   5.783   6.434 -0.8272 -1.5642 -2.7352
  125OSM    C4S13288   2.627   5.744   6.746 -0.2522  0.4940 -0.1653
  125OSM    H4S13289   2.696   5.743   6.831 -0.0183 -0.3203 -0.3573
  125OSM    C5S13290   2.494   5.725   6.766  0.6022 -0.2404  0.4463
  125OSM    H5S13291   2.429   5.716   6.678  2.0254 -1.7601 -0.5096
  125OSM    C6S13292   2.440   5.682   6.900  0.3252 -0.8210 -0.4231
  125OSM    H6S13293   2.392   5.584   6.883  0.8701 -0.7895 -2.4713
  125OSM    H6T13294   2.358   5.755   6.922  0.1700 -1.4265  1.0654
  125OSM    C7S13295   2.533   5.699   7.024 -0.2327  0.1521  0.3053
  125OSM    H7S13296   2.584   5.798   7.024  1.3425 -0.6351  0.1047
  125OSM    H7T13297   2.612   5.621   7.018  1.3313  1.7693 -2.2118
  125OSM    C8S13298   2.463   5.672   7.153  0.1434 -0.0178 -0.4910
  125OSM    H8S13299   2.420   5.569   7.157 -0.8193  0.3897  2.4789
  125OSM    H8T13300   2.384   5.750   7.159  1.3697  1.1667  1.0341
  125OSM    C9S13301   2.564   5.690   7.273 -0.0682 -0.0633 -0.2932
  125OSM    H9S13302   2.598   5.796   7.268 -1.7836  0.6813  1.9412
  125OSM    H9T13303   2.652   5.623   7.279 -0.1970 -0.1739  0.4150
  125OSM   C10S13304   2.497   5.663   7.408  0.1670 -0.0023  1.1485
  125OSM   H10S13305   2.451   5.562   7.412 -0.1205  0.1492  1.8046
  125OSM   H10T13306   2.415   5.736   7.423 -0.9384 -0.8457 -0.5033
  125OSM   C11S13307   2.599   5.680   7.515 -0.2084  0.1410  0.2726
  125OSM   H11S13308   2.646   5.779   7.500  0.5099 -0.2829 -0.3186
  125OSM   H11T13309   2.681   5.609   7.492  1.0011  1.8981 -1.1163
  125OSM   C12S13310   2.548   5.660   7.657  0.1546 -0.0326  0.2282
  125OSM   H12S13311   2.544   5.553   7.687  1.3753 -0.4395 -0.9749
  125OSM   H12T13312   2.457   5.723   7.664  0.4572  0.5137 -0.6718
  125OSM   C13S13313   2.637   5.729   7.757 -0.5723  0.0210  0.2537
  125OSM   H13S13314   2.632   5.837   7.730 -0.7888  0.5560  2.2528
  125OSM   H13T13315   2.737   5.691   7.727 -1.1913 -0.8916 -0.7072
  125OSM   C14S13316   2.624   5.715   7.906  0.1226  0.5313 -0.2968
  125OSM   H14S13317   2.704   5.761   7.967  1.5947 -4.6950  2.3427
  125OSM   H14T13318   2.630   5.608   7.935 -1.2166  0.1510 -1.2982
  125OSM   C15S13319   2.495   5.778   7.954  0.8730  0.2704  0.3402
  125OSM   H15S13320   2.399   5.742   7.913  1.7627 -0.1869 -1.4179
  125OSM   H15T13321   2.507   5.883   7.920  1.5942 -0.0342 -0.3619
  125OSM   C16S13322   2.474   5.792   8.108  1.1718  0.0807  0.0395
  125OSM   H16S13323   2.554   5.843   8.166  1.2740  1.4770 -1.2501
  125OSM   H16T13324   2.466   5.688   8.147 -0.9640  0.6108  1.1273
  125OSM   C17S13325   2.351   5.867   8.143  0.5296  0.0324 -0.0828
  125OSM   H17S13326   2.274   5.830   8.072 -0.9089  0.7204  1.0459
  125OSM   H17T13327   2.350   5.978   8.139  2.1320  0.1737  1.7477
  125OSM   C18S13328   2.305   5.830   8.283 -0.4627  0.2011  0.1211
  125OSM   H18S13329   2.371   5.870   8.363 -2.5132  1.3174  1.3323
  125OSM   H18T13330   2.304   5.719   8.286  0.0394  0.2259  2.1439
  125OSM   H18U13331   2.202   5.868   8.301 -0.2355  0.9169 -0.0364
  125OSM    C1F13332   2.804   6.124   6.728  0.7676 -0.1496 -0.1718
  125OSM     OF13333   2.724   6.198   6.668 -0.0337  0.1678 -0.9723
  125OSM    C2F13334   2.903   6.179   6.831  0.5635  0.1274  0.3852
  125OSM    H2F13335   3.000   6.127   6.817  2.2917  3.4157 -0.6708
  125OSM    H2G13336   2.856   6.164   6.931  1.3231  3.0227  1.2670
  125OSM    C3F13337   2.914   6.337   6.817  0.5680  0.2456 -0.3900
  125OSM    H3F13338   2.812   6.378   6.804 -0.4453 -1.8032  0.4928
  125OSM    H3G13339   2.977   6.354   6.727  0.2900  0.3804 -0.5599
  125OSM    C4F13340   2.968   6.410   6.936 -0.3370 -0.8295 -0.9408
  125OSM    H4F13341   2.944   6.515   6.909 -0.1558 -0.8236 -1.0819
  125OSM    H4G13342   3.077   6.390   6.946 -0.1990  0.4414  0.5246
  125OSM    C5F13343   2.920   6.359   7.071  0.1123 -0.2492  0.1522
  125OSM    H5F13344   2.964   6.258   7.080  0.1638 -0.1633  0.9197
  125OSM    H5G13345   2.813   6.334   7.080  0.0665  0.0308  0.4105
  125OSM    C6F13346   2.959   6.451   7.188  0.4457  0.4292 -0.2401
  125OSM    H6F13347   2.910   6.551   7.184 -0.2283  0.3663  3.1447
  125OSM    H6G13348   3.068   6.473   7.186  0.8447 -1.1741  1.2573
  125OSM    C7F13349   2.918   6.393   7.329  0.4535  0.2232 -0.6366
  125OSM    H7F13350   2.982   6.305   7.352  0.4167  0.3463 -0.0286
  125OSM    H7G13351   2.812   6.361   7.317  0.4499  0.1587 -0.4485
  125OSM    C8F13352   2.937   6.492   7.439  0.1397 -0.0698 -0.4094
  125OSM    H8F13353   2.889   6.454   7.532  3.2070 -1.6003  0.6700
  125OSM    H8G13354   2.875   6.583   7.427  2.8971  2.3107  1.9983
  125OSM    C9F13355   3.071   6.537   7.477  0.1281 -0.8420 -0.4617
  125OSM    H9F13356   3.147   6.559   7.400  0.6834  0.4595  0.4360
  125OSM   C10F13357   3.118   6.548   7.606  0.4648 -0.4294  0.4841
  125OSM   H10F13358   3.215   6.596   7.620  0.1612  0.0903  0.8473
  125OSM   C11F13359   3.044   6.528   7.733 -0.1310  0.2086 -0.5223
  125OSM   H11F13360   3.119   6.548   7.813 -1.0638  0.0383  0.4245
  125OSM   H11G13361   3.008   6.423   7.741  1.6468 -0.3595  0.6145
  125OSM   C12F13362   2.926   6.626   7.775  0.3416  0.3385  0.1389
  125OSM   H12F13363   2.833   6.599   7.720  0.3671 -1.2037  0.8172
  125OSM   H12G13364   2.948   6.733   7.750 -1.4558  0.7786  0.2723
  125OSM   C13F13365   2.882   6.605   7.925  0.3184  0.7205 -0.3052
  125OSM   H13F13366   2.860   6.496   7.930  0.8253  0.6215 -0.2273
  125OSM   H13G13367   2.788   6.656   7.956 -0.7413 -2.3096  1.9058
  125OSM   C14F13368   2.993   6.638   8.024  1.2569  0.2023 -0.1183
  125OSM   H14F13369   3.032   6.734   7.985 -1.5074 -0.1059 -4.1446
  125OSM   H14G13370   3.089   6.582   8.016  2.2953  2.1342 -1.8246
  125OSM   C15F13371   2.946   6.646   8.166 -0.5194  0.1250 -1.1333
  125OSM   H15F13372   2.840   6.679   8.167 -1.3554 -2.2442  1.3666
  125OSM   H15G13373   3.019   6.697   8.232 -1.0982 -1.5949  0.9620
  125OSM   C16F13374   2.951   6.503   8.238 -0.1212 -0.2010 -0.2618
  125OSM   H16F13375   3.055   6.472   8.261 -0.2490 -0.6674 -0.3114
  125OSM   H16G13376   2.915   6.429   8.163 -2.5782 -0.0491  0.6764
  125OSM   C17F13377   2.883   6.510   8.374  0.7455 -0.0107 -0.1054
  125OSM   H17F13378   2.832   6.412   8.384  0.2628 -0.1527 -3.0335
  125OSM   H17G13379   2.805   6.589   8.376  0.8568  0.2230 -2.4902
  125OSM   C18F13380   2.981   6.544   8.487  0.4724 -0.7646 -0.0266
  125OSM   H18F13381   3.051   6.458   8.488  2.3894  0.7087  0.8879
  125OSM   H18G13382   2.927   6.565   8.582  0.8416 -0.4802  0.1267
  125OSM   H18H13383   3.044   6.634   8.465 -2.1271  1.2485  0.2868
  126OSM      N13384   1.778   4.563   6.241 -0.0948 -0.2969  0.2662
  126OSM    C1513385   1.790   4.437   6.163  0.1447 -0.5560 -1.0112
  126OSM   H15A13386   1.750   4.353   6.219  0.9178 -0.2397  0.0716
  126OSM   H15B13387   1.891   4.413   6.134 -0.1511 -2.8048 -0.3961
  126OSM   H15C13388   1.730   4.445   6.074  1.8219  0.2776 -2.1285
  126OSM    C1413389   1.856   4.681   6.180 -0.6929  0.0069  0.3180
  126OSM   H14A13390   1.813   4.700   6.082  1.8651 -4.2766 -1.9063
  126OSM   H14B13391   1.956   4.657   6.149 -1.0759  0.3678 -1.3140
  126OSM   H14C13392   1.851   4.762   6.252 -1.4122 -1.0222  1.4709
  126OSM    C1313393   1.637   4.603   6.252 -0.5597  0.6723 -0.6357
  126OSM   H13A13394   1.627   4.696   6.305 -1.5902  0.7121 -0.8876
  126OSM   H13B13395   1.578   4.527   6.302 -0.8466  1.5178  0.3434
  126OSM   H13C13396   1.595   4.611   6.153  0.6261  1.1675 -1.1239
  126OSM    C1213397   1.822   4.550   6.386 -0.1243 -0.0508 -0.2920
  126OSM   H12A13398   1.922   4.510   6.389 -0.8631 -1.9979  1.5090
  126OSM   H12B13399   1.750   4.483   6.432 -0.3133  0.0655 -0.4172
  126OSM    C1113400   1.823   4.673   6.480 -0.3984 -0.4529 -0.7436
  126OSM   H11A13401   1.850   4.637   6.582 -0.9008  2.3509  0.4837
  126OSM   H11B13402   1.719   4.714   6.485  0.1798  0.9338  0.5537
  126OSM      P13403   2.063   4.780   6.470  0.1052  0.1671  0.1468
  126OSM    O1313404   2.110   4.638   6.447 -0.4100 -0.2779 -0.2397
  126OSM    O1413405   2.113   4.878   6.370  0.2877 -0.5311  0.1015
  126OSM    O1113406   2.099   4.845   6.614  0.2409  0.2684 -0.0448
  126OSM    O1213407   1.909   4.786   6.447 -0.1120  0.4877  0.4980
  126OSM    C1S13408   2.077   4.776   6.736  0.0884 -0.4912 -0.1682
  126OSM    H1S13409   2.005   4.693   6.725 -0.3301 -0.2243  0.4852
  126OSM    H1T13410   2.018   4.845   6.800  1.3771  0.1145  0.4266
  126OSM     NF13411   2.176   4.641   6.920  0.2942 -0.4669  0.4197
  126OSM    HNF13412   2.193   4.678   7.011  1.7593 -3.1680  1.3302
  126OSM    C2S13413   2.211   4.726   6.812 -0.2046  0.1193  0.1814
  126OSM    H2S13414   2.273   4.671   6.737  0.2539  1.4288 -0.4349
  126OSM    C3S13415   2.299   4.853   6.851 -0.1769  0.0336 -0.0847
  126OSM    H3S13416   2.249   4.904   6.936  1.3851  1.5241 -0.0017
  126OSM     O313417   2.327   4.954   6.755  0.3845  0.1996 -0.1782
  126OSM    HO313418   2.274   4.922   6.682  0.5565 -2.2936  0.6588
  126OSM    C4S13419   2.427   4.807   6.912  0.0669 -0.1496 -0.3064
  126OSM    H4S13420   2.491   4.766   6.832  0.0900  1.5544 -1.2154
  126OSM    C5S13421   2.469   4.804   7.038 -0.2388  0.1647  0.4601
  126OSM    H5S13422   2.399   4.825   7.120 -0.4907  1.3261 -0.0337
  126OSM    C6S13423   2.602   4.747   7.085 -0.4951 -0.3842 -0.2596
  126OSM    H6S13424   2.693   4.800   7.053 -0.2625 -0.0946  0.8230
  126OSM    H6T13425   2.606   4.649   7.032 -2.0208  0.5776 -2.2765
  126OSM    C7S13426   2.619   4.720   7.236  1.0331 -0.1548  0.5021
  126OSM    H7S13427   2.546   4.641   7.263 -0.5440  1.2998  0.6686
  126OSM    H7T13428   2.588   4.816   7.283  0.8513  1.3909 -2.5552
  126OSM    C8S13429   2.748   4.658   7.284  0.7176 -0.1506 -0.1216
  126OSM    H8S13430   2.841   4.700   7.241  0.3031  0.0931 -0.8048
  126OSM    H8T13431   2.757   4.556   7.240  1.2733 -0.0101 -0.3333
  126OSM    C9S13432   2.763   4.640   7.437 -0.3437 -0.1144 -0.5352
  126OSM    H9S13433   2.873   4.638   7.453 -0.1440  0.6955 -1.6812
  126OSM    H9T13434   2.717   4.546   7.476  1.8339 -1.1023 -0.2312
  126OSM   C10S13435   2.712   4.756   7.521  0.0437  0.4330  0.2678
  126OSM   H10S13436   2.603   4.765   7.499  0.1264  0.3204 -0.1909
  126OSM   H10T13437   2.764   4.848   7.489  0.9534 -0.7289 -1.7994
  126OSM   C11S13438   2.722   4.736   7.674  0.6520  0.0365 -0.1382
  126OSM   H11S13439   2.831   4.720   7.692  0.4124 -1.1554  0.3825
  126OSM   H11T13440   2.666   4.647   7.711  1.1283 -0.7940 -1.3392
  126OSM   C12S13441   2.674   4.858   7.749 -0.3676  0.5603  0.8273
  126OSM   H12S13442   2.581   4.885   7.695  0.6717  1.6615 -0.5095
  126OSM   H12T13443   2.747   4.940   7.728  1.2222 -1.4253 -2.2056
  126OSM   C13S13444   2.659   4.825   7.899 -0.5634 -0.5455 -0.0385
  126OSM   H13S13445   2.747   4.764   7.926 -0.5056 -0.3669  0.1755
  126OSM   H13T13446   2.570   4.759   7.909 -1.8323  1.2573  1.0217
  126OSM   C14S13447   2.637   4.950   7.991  0.3078 -0.4478  0.5141
  126OSM   H14S13448   2.663   4.924   8.096  3.0628 -1.6941 -0.3743
  126OSM   H14T13449   2.530   4.981   7.984  0.4583  0.1817  0.8832
  126OSM   C15S13450   2.733   5.064   7.974  0.4527  0.0660 -0.7373
  126OSM   H15S13451   2.705   5.124   7.885  2.5017 -0.7472 -1.9982
  126OSM   H15T13452   2.841   5.039   7.967  0.3236 -1.0797  0.8440
  126OSM   C16S13453   2.733   5.175   8.087 -0.0698  0.2637 -0.2685
  126OSM   H16S13454   2.800   5.261   8.067 -0.0385  0.1710 -0.5720
  126OSM   H16T13455   2.783   5.137   8.179 -0.1614 -0.5227 -0.5384
  126OSM   C17S13456   2.596   5.229   8.111 -0.4367 -0.4303 -0.1523
  126OSM   H17S13457   2.536   5.141   8.144  0.0762 -0.6581  0.1769
  126OSM   H17T13458   2.545   5.262   8.018  0.0482  0.6993 -0.0337
  126OSM   C18S13459   2.594   5.339   8.224  0.7829 -0.0873  0.3119
  126OSM   H18S13460   2.621   5.290   8.320 -0.6613 -0.1283  0.7211
  126OSM   H18T13461   2.501   5.399   8.235  0.1745 -1.2007  1.5601
  126OSM   H18U13462   2.668   5.413   8.187  0.3755 -0.4915 -1.4088
  126OSM    C1F13463   2.131   4.521   6.896  0.0184 -0.2436  0.4667
  126OSM     OF13464   2.119   4.485   6.780 -0.0886  0.0079 -1.3728
  126OSM    C2F13465   2.105   4.443   7.015 -0.3077 -0.1603 -0.1379
  126OSM    H2F13466   2.033   4.505   7.073 -1.6575 -0.4844 -1.3954
  126OSM    H2G13467   2.196   4.424   7.076 -0.8600  0.1244  0.7916
  126OSM    C3F13468   2.024   4.315   6.975 -0.4030 -0.4542 -0.1119
  126OSM    H3F13469   2.083   4.258   6.900 -0.0487  0.0289 -0.2075
  126OSM    H3G13470   1.922   4.338   6.937 -0.2029 -0.2286 -0.5201
  126OSM    C4F13471   2.002   4.238   7.106 -0.1333 -0.3743  0.0699
  126OSM    H4F13472   1.946   4.304   7.175 -0.1907 -0.1466 -0.1898
  126OSM    H4G13473   2.099   4.221   7.156  0.5309  1.0174 -0.6796
  126OSM    C5F13474   1.922   4.104   7.090  0.2312  0.3226 -0.1245
  126OSM    H5F13475   1.965   4.054   7.000 -1.6680  2.4931 -2.3646
  126OSM    H5G13476   1.817   4.134   7.070  0.4718  1.4803  0.2897
  126OSM    C6F13477   1.918   4.016   7.215 -0.1772  0.0090 -0.0209
  126OSM    H6F13478   2.022   3.983   7.237 -0.8565 -1.2541  1.3734
  126OSM    H6G13479   1.854   3.927   7.198  0.3455 -0.8373  2.1240
  126OSM    C7F13480   1.863   4.072   7.345  0.2591  0.4101  0.0679
  126OSM    H7F13481   1.778   4.130   7.304  0.5151 -0.4084 -1.7015
  126OSM    H7G13482   1.939   4.138   7.393  0.9609 -0.9181  0.8203
  126OSM    C8F13483   1.813   3.965   7.443 -0.0402 -1.0217  0.5777
  126OSM    H8F13484   1.713   3.931   7.407 -1.7365  2.0638  2.0095
  126OSM    H8G13485   1.780   4.020   7.534 -0.2517 -0.5980  0.2482
  126OSM    C9F13486   1.929   3.865   7.476  0.0542  0.7560  0.5459
  126OSM    H9F13487   1.937   3.774   7.414  0.9332 -0.4043  2.2698
  126OSM   C10F13488   2.021   3.878   7.575  0.5151  0.1180 -0.0649
  126OSM   H10F13489   2.090   3.794   7.588  0.7903 -0.0375 -2.2346
  126OSM   C11F13490   2.038   3.996   7.675  0.4555 -0.4006  0.0645
  126OSM   H11F13491   1.973   4.079   7.640  0.3451  0.8895  3.0539
  126OSM   H11G13492   2.144   4.029   7.677  0.0362  0.9778  0.1563
  126OSM   C12F13493   1.979   3.965   7.820  0.0243  0.0592  0.7792
  126OSM   H12F13494   1.873   3.933   7.821 -0.1689  0.6148 -0.1376
  126OSM   H12G13495   1.972   4.066   7.866 -2.0710  1.0081 -1.4165
  126OSM   C13F13496   2.071   3.875   7.906  0.2469 -0.0553 -0.0304
  126OSM   H13F13497   2.176   3.909   7.892  1.5929 -2.7113  2.6383
  126OSM   H13G13498   2.058   3.771   7.869 -0.3523  0.0465 -0.1115
  126OSM   C14F13499   2.035   3.878   8.056  0.3139  0.9108 -1.1108
  126OSM   H14F13500   1.929   3.855   8.077  0.5412  1.8214  1.4198
  126OSM   H14G13501   2.065   3.976   8.101 -0.3859 -0.5001  2.8129
  126OSM   C15F13502   2.112   3.773   8.138 -0.7647 -0.5496  0.4993
  126OSM   H15F13503   2.219   3.779   8.108 -0.3667 -2.8460  1.2435
  126OSM   H15G13504   2.085   3.671   8.103  2.6838 -1.7579  0.9762
  126OSM   C16F13505   2.110   3.789   8.295  0.2993 -0.5438  0.3594
  126OSM   H16F13506   2.011   3.826   8.329 -0.5123 -0.5097 -1.8929
  126OSM   H16G13507   2.172   3.881   8.308 -0.8286  0.1479  1.0258
  126OSM   C17F13508   2.170   3.686   8.381  0.3595  0.3115  0.9237
  126OSM   H17F13509   2.120   3.590   8.360  0.2409  0.6348 -0.3204
  126OSM   H17G13510   2.155   3.712   8.488 -0.2147  3.7295  0.1468
  126OSM   C18F13511   2.326   3.674   8.369 -0.0321  0.9001 -0.3728
  126OSM   H18F13512   2.358   3.678   8.262  0.4391  0.0958 -0.2665
  126OSM   H18G13513   2.359   3.580   8.417  1.2450  0.9657 -1.0771
  126OSM   H18H13514   2.376   3.754   8.428 -1.1438  1.3878 -0.0708
  127OSM      N13515   5.519   4.547   6.340 -1.1090 -0.2137 -0.2130
  127OSM    C1513516   5.568   4.529   6.204  0.2520  0.0727  0.3932
  127OSM   H15A13517   5.560   4.624   6.154 -0.7681 -0.1591  0.0978
  127OSM   H15B13518   5.493   4.466   6.159 -1.4012  0.8142  2.0245
  127OSM   H15C13519   5.666   4.484   6.201  1.2020  2.0478  0.2075
  127OSM    C1413520   5.482   4.421   6.404  0.1170  0.7921 -0.6654
  127OSM   H14A13521   5.396   4.379   6.354  0.7412 -2.3900  0.7018
  127OSM   H14B13522   5.473   4.438   6.510  1.3684  0.2253 -0.4529
  127OSM   H14C13523   5.551   4.339   6.393 -0.0514  0.6327 -0.5531
  127OSM    C1313524   5.637   4.598   6.417 -0.1706  1.1111  0.8709
  127OSM   H13A13525   5.608   4.621   6.518 -0.4922  0.0486  1.0319
  127OSM   H13B13526   5.670   4.692   6.375 -0.0923  0.3356 -0.8904
  127OSM   H13C13527   5.729   4.543   6.424  0.0397  1.3615  0.1634
  127OSM    C1213528   5.404   4.651   6.334 -0.6829  0.6381  0.3069
  127OSM   H12A13529   5.445   4.743   6.296  0.0073  0.5045  0.7155
  127OSM   H12B13530   5.373   4.665   6.437  0.4108 -0.9600  0.8944
  127OSM    C1113531   5.278   4.624   6.255  0.8616  0.1394  0.0585
  127OSM   H11A13532   5.308   4.598   6.151 -2.2759  0.5903 -1.0691
  127OSM   H11B13533   5.224   4.721   6.246 -1.5663 -1.2916 -2.2402
  127OSM      P13534   5.065   4.548   6.387 -0.1855  0.0817  0.4826
  127OSM    O1313535   5.087   4.646   6.495 -0.7348 -0.2910 -0.2312
  127OSM    O1413536   4.961   4.570   6.283 -0.8284 -0.1521 -0.6456
  127OSM    O1113537   5.042   4.405   6.451  0.4833  0.1340 -0.7499
  127OSM    O1213538   5.198   4.520   6.318  0.3346 -0.1609 -0.3949
  127OSM    C1S13539   5.154   4.352   6.526  0.1349  0.1171  0.4117
  127OSM    H1S13540   5.219   4.435   6.559  0.0487  1.3004 -2.1439
  127OSM    H1T13541   5.211   4.283   6.459  0.4499 -0.4074  1.2035
  127OSM     NF13542   5.243   4.252   6.736  0.2228 -0.3239  0.3836
  127OSM    HNF13543   5.281   4.161   6.723 -0.1280 -0.2540 -1.4507
  127OSM    C2S13544   5.118   4.286   6.667 -0.0559  0.2441  0.1387
  127OSM    H2S13545   5.053   4.360   6.717 -0.9310 -1.4490  1.6424
  127OSM    C3S13546   5.028   4.166   6.651  0.3613  0.2687 -0.7382
  127OSM    H3S13547   5.081   4.082   6.602 -2.6921 -2.4499  0.2211
  127OSM     O313548   4.924   4.180   6.550 -0.1600  0.6249  0.1340
  127OSM    HO313549   4.930   4.268   6.512 -0.6622  0.2644 -0.8260
  127OSM    C4S13550   4.977   4.120   6.790  0.2593  0.6081  0.2970
  127OSM    H4S13551   5.053   4.065   6.848 -1.4347 -0.6769  1.3715
  127OSM    C5S13552   4.857   4.146   6.847 -1.0702 -0.4970  0.7131
  127OSM    H5S13553   4.781   4.208   6.796  0.9647  0.7792 -0.9264
  127OSM    C6S13554   4.824   4.107   6.990 -0.1973 -0.3397  0.2927
  127OSM    H6S13555   4.859   4.005   7.012 -1.3613 -1.0144 -0.8086
  127OSM    H6T13556   4.713   4.114   6.997 -0.2450  0.4534 -0.9923
  127OSM    C7S13557   4.869   4.197   7.106  0.4962 -0.4385 -0.4188
  127OSM    H7S13558   4.860   4.303   7.073 -0.6858 -0.8159 -1.3610
  127OSM    H7T13559   4.974   4.170   7.130  0.7074  2.1605  2.2789
  127OSM    C8S13560   4.791   4.192   7.232  0.3403  0.1650 -0.8027
  127OSM    H8S13561   4.822   4.096   7.279  2.0853  0.8444 -0.4827
  127OSM    H8T13562   4.680   4.192   7.226  0.2014 -1.5747  0.6871
  127OSM    C9S13563   4.842   4.306   7.324  0.5236 -0.6832  0.2440
  127OSM    H9S13564   4.798   4.398   7.281  2.2855 -1.2372 -3.1349
  127OSM    H9T13565   4.952   4.313   7.308  0.4308 -1.7049 -1.0404
  127OSM   C10S13566   4.809   4.297   7.475  0.6379  0.0497  0.0972
  127OSM   H10S13567   4.706   4.254   7.480 -0.0938  1.3413 -2.4084
  127OSM   H10T13568   4.808   4.399   7.518  1.3857 -0.5376  1.6255
  127OSM   C11S13569   4.904   4.218   7.562 -0.4623 -0.2432 -0.2847
  127OSM   H11S13570   5.006   4.230   7.520 -1.1406  1.1497 -1.6617
  127OSM   H11T13571   4.883   4.109   7.551  1.0688 -0.7227  1.1231
  127OSM   C12S13572   4.880   4.255   7.713 -0.1050 -0.2177 -0.2988
  127OSM   H12S13573   4.770   4.262   7.727 -0.3632 -1.3392 -1.5252
  127OSM   H12T13574   4.926   4.353   7.736 -2.5646  0.4581  2.3545
  127OSM   C13S13575   4.928   4.148   7.823  1.4507  0.4590  0.5979
  127OSM   H13S13576   5.032   4.138   7.784  0.8815 -0.4629 -0.7569
  127OSM   H13T13577   4.873   4.055   7.797  1.1967  0.4766  1.0566
  127OSM   C14S13578   4.916   4.172   7.973  0.0563 -0.6278 -0.5023
  127OSM   H14S13579   4.949   4.073   8.010 -0.1208 -0.9993 -1.3115
  127OSM   H14T13580   4.821   4.213   8.014  0.5609  2.1043 -1.8149
  127OSM   C15S13581   5.019   4.275   8.019  0.3625  0.6282 -0.1354
  127OSM   H15S13582   5.013   4.360   7.949 -0.1044 -0.0497 -0.9368
  127OSM   H15T13583   5.122   4.233   8.010  0.6575  0.6775  2.2100
  127OSM   C16S13584   5.007   4.328   8.164 -0.4500  0.3733 -1.0466
  127OSM   H16S13585   4.925   4.403   8.156 -2.7513 -2.1485 -3.5226
  127OSM   H16T13586   5.099   4.382   8.194  0.0601 -2.1058  2.3853
  127OSM   C17S13587   4.987   4.225   8.268 -0.7319  0.1181  0.4772
  127OSM   H17S13588   4.928   4.142   8.223  0.8199 -0.8572  0.1895
  127OSM   H17T13589   4.925   4.275   8.345 -1.2097  0.5190 -0.1526
  127OSM   C18S13590   5.115   4.170   8.329 -0.1515  0.4542  0.0936
  127OSM   H18S13591   5.196   4.246   8.336  0.6829 -0.3419 -0.5818
  127OSM   H18T13592   5.150   4.086   8.264 -0.0299  2.0829 -2.0788
  127OSM   H18U13593   5.094   4.125   8.428 -1.4104 -1.6287 -1.0515
  127OSM    C1F13594   5.340   4.341   6.764 -0.1301  0.4825 -0.7435
  127OSM     OF13595   5.325   4.464   6.765  0.5075  0.1796 -0.5689
  127OSM    C2F13596   5.471   4.282   6.789  0.3936  0.1118 -0.0413
  127OSM    H2F13597   5.535   4.266   6.699  0.9637 -1.7684  0.6550
  127OSM    H2G13598   5.453   4.182   6.834  0.8331  1.1892  2.7427
  127OSM    C3F13599   5.542   4.370   6.890  0.2408  0.6228 -0.3391
  127OSM    H3F13600   5.474   4.352   6.976  1.6311 -2.9522  0.1997
  127OSM    H3G13601   5.558   4.474   6.856  2.3613  0.3897 -0.2314
  127OSM    C4F13602   5.683   4.311   6.907  0.4385 -0.0087 -0.1469
  127OSM    H4F13603   5.740   4.316   6.813  0.9307  1.3212  0.1973
  127OSM    H4G13604   5.667   4.202   6.918  1.3804 -0.2154 -0.8090
  127OSM    C5F13605   5.765   4.375   7.019  0.7506 -0.2287  0.0401
  127OSM    H5F13606   5.709   4.385   7.115  2.1116  2.0332  0.6690
  127OSM    H5G13607   5.779   4.481   6.990  2.0818 -0.3189  0.3085
  127OSM    C6F13608   5.903   4.324   7.027  0.1023  0.0059  0.2046
  127OSM    H6F13609   5.963   4.352   6.937  1.7878 -3.2644  0.1646
  127OSM    H6G13610   5.899   4.213   7.029  4.0042 -0.2888  0.1420
  127OSM    C7F13611   5.987   4.362   7.152  0.5302  0.3355 -0.0865
  127OSM    H7F13612   6.024   4.467   7.144  2.1653 -0.1823  0.1273
  127OSM    H7G13613   6.074   4.293   7.157 -1.1335 -1.8395  0.4635
  127OSM    C8F13614   5.913   4.345   7.286  0.2083 -0.1414  0.4634
  127OSM    H8F13615   5.850   4.436   7.285  2.0881  1.3731 -3.6485
  127OSM    H8G13616   5.988   4.354   7.367  2.1172  1.7877 -1.4048
  127OSM    C9F13617   5.854   4.206   7.296  0.2124 -0.3959  0.1307
  127OSM    H9F13618   5.923   4.124   7.272  0.3240  0.1277 -1.5022
  127OSM   C10F13619   5.734   4.174   7.352  0.4002 -0.1885 -0.2729
  127OSM   H10F13620   5.698   4.070   7.356  1.9583 -0.7330  0.3441
  127OSM   C11F13621   5.632   4.275   7.411 -0.2442  0.2388  0.2837
  127OSM   H11F13622   5.538   4.272   7.352  1.0432 -0.8359 -1.8097
  127OSM   H11G13623   5.668   4.379   7.392 -0.9068  0.3645 -0.3160
  127OSM   C12F13624   5.586   4.264   7.559 -0.4480  0.1943  0.5346
  127OSM   H12F13625   5.532   4.170   7.583 -0.7303  0.2798  0.2530
  127OSM   H12G13626   5.514   4.346   7.584 -2.7380 -1.3138 -0.6832
  127OSM   C13F13627   5.699   4.263   7.656 -0.3391  0.0601 -0.3259
  127OSM   H13F13628   5.759   4.356   7.643 -3.4877  2.4983  1.3314
  127OSM   H13G13629   5.776   4.187   7.630 -0.7213 -0.3929 -0.1378
  127OSM   C14F13630   5.665   4.234   7.803 -0.6378  0.1007 -0.2684
  127OSM   H14F13631   5.625   4.131   7.796 -0.1073 -0.0987 -0.3858
  127OSM   H14G13632   5.603   4.317   7.844  0.1789  0.6924 -0.1997
  127OSM   C15F13633   5.781   4.217   7.904 -0.0939 -0.1525  0.4761
  127OSM   H15F13634   5.845   4.308   7.896 -2.0846  1.1911 -1.3905
  127OSM   H15G13635   5.843   4.139   7.855 -1.0246 -2.6930  3.0581
  127OSM   C16F13636   5.747   4.174   8.041  0.1024  0.1836 -0.0589
  127OSM   H16F13637   5.847   4.172   8.089  0.7087 -1.6582 -1.2852
  127OSM   H16G13638   5.700   4.073   8.038  0.5664 -0.1331  1.7633
  127OSM   C17F13639   5.666   4.274   8.126  0.1163  0.4132  0.4558
  127OSM   H17F13640   5.562   4.271   8.088  1.0270 -0.1610 -2.1769
  127OSM   H17G13641   5.707   4.377   8.110  0.4841  0.0916 -0.8218
  127OSM   C18F13642   5.671   4.237   8.276 -0.2184  0.2765  0.1106
  127OSM   H18F13643   5.633   4.134   8.291 -0.5487  0.4014  0.1254
  127OSM   H18G13644   5.620   4.301   8.351 -0.6112 -0.5362  0.5455
  127OSM   H18H13645   5.780   4.236   8.299 -0.1362 -0.1994 -0.2976
  128OSM      N13646   4.116   0.851   6.033  0.5566 -0.4113  0.6384
  128OSM    C1513647   4.142   0.814   5.893  0.8173 -0.6386  0.6821
  128OSM   H15A13648   4.194   0.891   5.839 -0.3258 -1.1793 -1.3240
  128OSM   H15B13649   4.060   0.800   5.824  1.1295  0.9629 -0.0612
  128OSM   H15C13650   4.199   0.723   5.894 -0.2375 -1.3166  0.8546
  128OSM    C1413651   4.250   0.874   6.099  0.3463  0.6654 -0.0791
  128OSM   H14A13652   4.292   0.778   6.125 -0.2706  0.1989 -0.7513
  128OSM   H14B13653   4.226   0.917   6.194 -1.0060 -1.0231  0.3944
  128OSM   H14C13654   4.313   0.946   6.048  2.0915 -1.1102 -0.5739
  128OSM    C1313655   4.049   0.984   6.036 -0.4984 -0.1598  0.1060
  128OSM   H13A13656   4.098   1.054   5.970  2.7474 -0.2168  2.2357
  128OSM   H13B13657   4.064   1.025   6.135 -1.2550  0.3984  0.0037
  128OSM   H13C13658   3.943   0.972   6.017 -0.5221 -1.0908  0.7250
  128OSM    C1213659   4.038   0.745   6.106 -0.5796 -0.0647  0.3183
  128OSM   H12A13660   4.093   0.653   6.097  0.6906  0.6664  0.4373
  128OSM   H12B13661   3.944   0.722   6.058 -0.4014 -0.1183 -0.0088
  128OSM    C1113662   4.016   0.766   6.261 -0.1535  0.5245  0.3757
  128OSM   H11A13663   4.112   0.777   6.315  0.5941 -0.7874 -0.6176
  128OSM   H11B13664   3.980   0.669   6.301  0.5218  1.1301  2.5586
  128OSM      P13665   3.776   0.860   6.274  0.0727 -0.3180 -0.3982
  128OSM    O1313666   3.711   0.996   6.272 -0.3136  0.0979 -0.1147
  128OSM    O1413667   3.740   0.763   6.169 -0.0290 -0.2376  0.3300
  128OSM    O1113668   3.740   0.788   6.408  0.1432  0.0461  0.6759
  128OSM    O1213669   3.927   0.878   6.291 -0.1668  0.5958 -0.3411
  128OSM    C1S13670   3.732   0.848   6.535 -0.4240 -0.0847 -0.4795
  128OSM    H1S13671   3.735   0.958   6.531 -0.2740 -0.1258 -1.6302
  128OSM    H1T13672   3.825   0.814   6.587  1.2792 -1.5564 -4.1662
  128OSM     NF13673   3.603   0.866   6.742  0.1203 -0.1505 -0.1418
  128OSM    HNF13674   3.618   0.806   6.820 -2.9664 -1.5451 -0.4786
  128OSM    C2S13675   3.612   0.796   6.614 -0.1115  0.0922 -0.2741
  128OSM    H2S13676   3.525   0.819   6.549 -0.7497 -1.0811  0.1300
  128OSM    C3S13677   3.614   0.644   6.622  0.0036 -0.1249 -0.1313
  128OSM    H3S13678   3.705   0.609   6.676  0.7181 -0.1387 -1.3245
  128OSM     O313679   3.623   0.580   6.495 -0.0255  0.4957  0.3484
  128OSM    HO313680   3.644   0.648   6.430 -0.5855 -0.1276 -0.5031
  128OSM    C4S13681   3.488   0.613   6.693 -0.3553 -0.2036  0.3698
  128OSM    H4S13682   3.495   0.603   6.802  1.1586 -0.6273  0.2613
  128OSM    C5S13683   3.363   0.602   6.640 -0.0374  0.1050  0.2867
  128OSM    H5S13684   3.361   0.615   6.531  0.3874 -3.9842 -0.3504
  128OSM    C6S13685   3.235   0.592   6.720 -0.6434 -0.0694  0.0863
  128OSM    H6S13686   3.175   0.500   6.702 -0.9191  0.3977 -1.5377
  128OSM    H6T13687   3.180   0.681   6.682  0.9967  0.7734 -0.4166
  128OSM    C7S13688   3.260   0.611   6.875  0.4182 -0.7427 -0.5986
  128OSM    H7S13689   3.304   0.713   6.885 -1.0588 -0.1864  0.6833
  128OSM    H7T13690   3.340   0.543   6.911 -0.8302 -0.6578  2.7558
  128OSM    C8S13691   3.130   0.608   6.964 -0.0441  0.2923  0.1812
  128OSM    H8S13692   3.090   0.505   6.962  1.2255 -0.3631  3.4458
  128OSM    H8T13693   3.054   0.676   6.918  0.2904  1.2453  1.0018
  128OSM    C9S13694   3.160   0.642   7.107  0.0311  0.0152 -0.5218
  128OSM    H9S13695   3.215   0.736   7.131  0.3385 -0.4391  0.6509
  128OSM    H9T13696   3.219   0.555   7.142 -0.6069 -0.7573 -1.3349
  128OSM   C10S13697   3.038   0.635   7.197 -0.2232 -0.2348 -0.3290
  128OSM   H10S13698   2.995   0.533   7.207 -2.8787  0.7345 -0.8927
  128OSM   H10T13699   2.957   0.698   7.153  0.0515 -1.0014 -2.0310
  128OSM   C11S13700   3.068   0.682   7.343 -0.2468 -0.3166  0.9884
  128OSM   H11S13701   2.975   0.722   7.389 -0.3304 -0.5319  1.0089
  128OSM   H11T13702   3.133   0.772   7.349  1.4951 -1.5388  1.3190
  128OSM   C12S13703   3.117   0.564   7.440  0.0810  0.3012 -0.3379
  128OSM   H12S13704   3.221   0.540   7.411  0.5368  1.5746  0.2007
  128OSM   H12T13705   3.048   0.476   7.430 -0.3473  0.3880  1.4765
  128OSM   C13S13706   3.113   0.598   7.582  0.0236 -0.1134  0.0331
  128OSM   H13S13707   3.117   0.708   7.600 -3.0937 -0.2401  2.5403
  128OSM   H13T13708   3.213   0.567   7.618  0.8500  2.0942 -0.2134
  128OSM   C14S13709   3.007   0.518   7.673 -0.3108 -0.3609  0.0107
  128OSM   H14S13710   3.036   0.411   7.663  1.2303  0.1187 -1.0559
  128OSM   H14T13711   2.905   0.533   7.634 -0.8944 -0.3782  1.4512
  128OSM   C15S13712   3.020   0.569   7.819  0.4158 -0.5610  0.2234
  128OSM   H15S13713   2.932   0.542   7.882  0.1962 -0.8666 -0.2140
  128OSM   H15T13714   3.016   0.680   7.820  0.9193 -0.5243 -0.6441
  128OSM   C16S13715   3.144   0.524   7.893 -0.0097 -0.3211 -0.7442
  128OSM   H16S13716   3.236   0.582   7.871  0.6204 -0.4644  1.3224
  128OSM   H16T13717   3.174   0.418   7.879  4.2020  0.3614  1.3364
  128OSM   C17S13718   3.131   0.548   8.047  0.2270  0.0913  0.3621
  128OSM   H17S13719   3.122   0.657   8.066 -0.5727 -0.1044  1.1359
  128OSM   H17T13720   3.234   0.524   8.083  0.6048  1.1424  0.0077
  128OSM   C18S13721   3.025   0.469   8.121 -0.2945 -0.7152  0.1597
  128OSM   H18S13722   3.043   0.479   8.231 -1.3360 -0.7150  0.3451
  128OSM   H18T13723   3.036   0.360   8.102  1.4492 -0.7589  1.1693
  128OSM   H18U13724   2.921   0.506   8.108 -0.0241  0.1208  0.3100
  128OSM    C1F13725   3.579   0.998   6.751  0.1621 -0.2471  0.1181
  128OSM     OF13726   3.551   1.063   6.652 -0.0000  0.0496  0.3432
  128OSM    C2F13727   3.574   1.057   6.891  0.5413  0.2820  0.7030
  128OSM    H2F13728   3.640   0.994   6.955  1.8377  1.7702  0.9057
  128OSM    H2G13729   3.467   1.067   6.918  0.4844  2.6936 -0.1860
  128OSM    C3F13730   3.621   1.202   6.913 -0.0957 -0.5132 -0.3002
  128OSM    H3F13731   3.564   1.251   6.831 -2.3209  0.9884  2.0032
  128OSM    H3G13732   3.731   1.202   6.897  0.1336 -0.6414  1.1507
  128OSM    C4F13733   3.590   1.272   7.048 -0.6823  0.5012 -0.4109
  128OSM    H4F13734   3.483   1.301   7.041 -1.3298 -1.6201 -0.0513
  128OSM    H4G13735   3.651   1.365   7.051  0.2975 -0.1167 -0.7313
  128OSM    C5F13736   3.614   1.175   7.165 -0.0276  0.1599 -0.1783
  128OSM    H5F13737   3.719   1.142   7.147 -0.3669 -2.6019  2.1713
  128OSM    H5G13738   3.561   1.078   7.160  1.5438 -0.7169 -0.4788
  128OSM    C6F13739   3.599   1.252   7.302  0.1747  1.0366  0.0119
  128OSM    H6F13740   3.516   1.321   7.278 -1.0852 -1.0925 -2.2427
  128OSM    H6G13741   3.691   1.313   7.317  0.2151  0.9397  0.1624
  128OSM    C7F13742   3.571   1.172   7.427 -0.0796 -0.1780  0.4107
  128OSM    H7F13743   3.654   1.107   7.463 -0.9209 -1.5498 -0.0660
  128OSM    H7G13744   3.475   1.118   7.415  0.0909 -0.4189  0.1262
  128OSM    C8F13745   3.525   1.256   7.549  0.5230 -0.3566 -0.2812
  128OSM    H8F13746   3.513   1.186   7.634  1.2865  0.9436  0.9402
  128OSM    H8G13747   3.430   1.308   7.524 -0.9220 -2.1575  1.2268
  128OSM    C9F13748   3.625   1.353   7.598 -0.1882 -0.4146 -0.0704
  128OSM    H9F13749   3.728   1.331   7.565  0.1374  2.2550 -1.0239
  128OSM   C10F13750   3.601   1.444   7.697 -0.2944  0.0529  0.2560
  128OSM   H10F13751   3.682   1.508   7.736 -1.0047  2.2362 -1.5989
  128OSM   C11F13752   3.471   1.467   7.779  0.1892  0.4546  0.8474
  128OSM   H11F13753   3.399   1.384   7.761  0.8598  0.5910 -3.9897
  128OSM   H11G13754   3.410   1.547   7.731 -0.3179  0.3174  1.2587
  128OSM   C12F13755   3.488   1.473   7.929  0.2582  0.1020  0.3276
  128OSM   H12F13756   3.539   1.378   7.957  0.2496 -0.2128 -0.6711
  128OSM   H12G13757   3.390   1.480   7.980 -1.5793 -3.0710 -2.3243
  128OSM   C13F13758   3.571   1.589   7.992  1.1045  0.6894  0.3039
  128OSM   H13F13759   3.514   1.682   7.969 -0.4605  0.0004  1.2314
  128OSM   H13G13760   3.670   1.601   7.944  0.8726  0.3433 -0.2760
  128OSM   C14F13761   3.569   1.570   8.141 -0.6839  0.0112 -0.2412
  128OSM   H14F13762   3.619   1.473   8.163 -1.4759 -0.7908 -1.7931
  128OSM   H14G13763   3.464   1.552   8.173 -0.1597  0.7138  2.0433
  128OSM   C15F13764   3.634   1.674   8.231  0.1978  0.1043  0.3442
  128OSM   H15F13765   3.590   1.772   8.205 -0.0446  0.0349  0.4905
  128OSM   H15G13766   3.741   1.683   8.203 -0.3736  0.7160 -1.8818
  128OSM   C16F13767   3.618   1.656   8.382 -0.2267 -0.0579  0.6528
  128OSM   H16F13768   3.622   1.548   8.408  0.7564 -0.1866  0.0299
  128OSM   H16G13769   3.518   1.692   8.415 -0.0520  2.2880 -1.1476
  128OSM   C17F13770   3.729   1.727   8.458  0.1903  0.4275  0.0756
  128OSM   H17F13771   3.718   1.837   8.448  1.0787  0.5683  0.5348
  128OSM   H17G13772   3.831   1.698   8.424  0.2620 -0.2393  0.8395
  128OSM   C18F13773   3.720   1.701   8.608  0.5034 -0.1325 -0.1596
  128OSM   H18F13774   3.725   1.592   8.627  2.4327 -0.1071 -0.3712
  128OSM   H18G13775   3.622   1.729   8.653  0.8151  0.7324  0.0151
  128OSM   H18H13776   3.785   1.764   8.672 -0.6477  1.8063 -0.7982
  129OSM      N13777   3.210   2.093   5.962  1.3922 -0.0923  0.3546
  129OSM    C1513778   3.261   2.200   5.872 -0.0641  0.5479 -0.5323
  129OSM   H15A13779   3.367   2.220   5.876  0.0278  0.0374 -0.3660
  129OSM   H15B13780   3.202   2.289   5.891 -1.5395 -0.7385  1.2937
  129OSM   H15C13781   3.247   2.177   5.768  0.3297  1.2293 -0.7439
  129OSM    C1413782   3.071   2.064   5.917 -0.0305 -0.8799 -0.2835
  129OSM   H14A13783   3.072   2.026   5.816 -0.0963  1.5654 -1.2591
  129OSM   H14B13784   3.023   2.160   5.929  1.5041 -0.1265 -0.0382
  129OSM   H14C13785   3.024   1.989   5.980  1.2891 -0.4822  1.2200
  129OSM    C1313786   3.288   1.966   5.933  0.5799 -0.5194  0.1891
  129OSM   H13A13787   3.240   1.878   5.973 -2.6985  1.4270  0.9168
  129OSM   H13B13788   3.384   1.964   5.983  0.7993  1.1568 -0.1249
  129OSM   H13C13789   3.307   1.945   5.829  0.7069  3.4771 -0.7403
  129OSM    C1213790   3.213   2.131   6.112  0.0135 -0.6419  0.1981
  129OSM   H12A13791   3.149   2.217   6.124  0.3839 -0.3070 -0.1833
  129OSM   H12B13792   3.309   2.165   6.147  1.0191 -3.8028  0.8927
  129OSM    C1113793   3.199   2.022   6.218 -0.2142 -0.0255  0.3318
  129OSM   H11A13794   3.208   2.068   6.318 -2.7441 -1.0330  1.1061
  129OSM   H11B13795   3.282   1.952   6.196 -1.1710 -0.7581 -1.0569
  129OSM      P13796   3.053   1.806   6.205  0.3313  0.1351 -0.0425
  129OSM    O1313797   2.913   1.792   6.167 -0.1913  0.0103  0.1676
  129OSM    O1413798   3.156   1.750   6.123 -0.2222 -0.1241 -0.3674
  129OSM    O1113799   3.069   1.752   6.350 -0.1248  0.2639 -0.0130
  129OSM    O1213800   3.071   1.960   6.218 -0.1667 -0.2995  0.8300
  129OSM    C1S13801   3.017   1.820   6.462  0.2903  0.6399  0.2260
  129OSM    H1S13802   2.907   1.808   6.469  0.4956 -1.1306  1.1863
  129OSM    H1T13803   3.028   1.929   6.449  1.9589  0.5147  0.3691
  129OSM     NF13804   3.054   1.881   6.689  0.0466  0.0105 -0.0539
  129OSM    HNF13805   3.133   1.927   6.729  0.9192 -1.4329 -0.0714
  129OSM    C2S13806   3.080   1.771   6.592  0.5790  0.5286 -0.7536
  129OSM    H2S13807   3.021   1.684   6.627  0.0654  1.7196  1.5891
  129OSM    C3S13808   3.229   1.735   6.569 -0.5329  0.4168 -0.8009
  129OSM    H3S13809   3.274   1.829   6.531 -0.5392  0.5544 -0.4714
  129OSM     O313810   3.260   1.629   6.474 -0.3544  0.0854  0.2392
  129OSM    HO313811   3.185   1.648   6.417 -0.6669 -1.8124 -0.0637
  129OSM    C4S13812   3.280   1.696   6.706  0.1434  0.6668  0.4210
  129OSM    H4S13813   3.336   1.779   6.753 -1.0443  0.5431  2.1342
  129OSM    C5S13814   3.277   1.578   6.767  0.3718 -0.1751  0.5848
  129OSM    H5S13815   3.228   1.493   6.718 -1.7624  2.7598 -2.8132
  129OSM    C6S13816   3.331   1.555   6.908 -0.0585  0.4950 -0.0270
  129OSM    H6S13817   3.410   1.478   6.916  1.0327  1.5135 -0.6492
  129OSM    H6T13818   3.244   1.527   6.970 -0.4723  2.3312  0.2917
  129OSM    C7S13819   3.392   1.683   6.981 -0.2059  0.2473 -0.5855
  129OSM    H7S13820   3.321   1.767   6.967 -0.7393 -0.4102 -2.0156
  129OSM    H7T13821   3.489   1.705   6.931  0.7817  0.3292  1.2805
  129OSM    C8S13822   3.431   1.653   7.127 -0.3509 -0.4745  0.3134
  129OSM    H8S13823   3.504   1.570   7.141  0.9882  0.4769 -0.7405
  129OSM    H8T13824   3.347   1.635   7.197 -0.6241  1.9450  0.6958
  129OSM    C9S13825   3.521   1.761   7.190 -0.0477 -0.3170  0.5957
  129OSM    H9S13826   3.471   1.861   7.193  2.1373  0.9100 -0.8498
  129OSM    H9T13827   3.613   1.771   7.128  0.8336 -1.1769  1.7091
  129OSM   C10S13828   3.564   1.725   7.338  0.1674  0.4464 -0.2482
  129OSM   H10S13829   3.630   1.636   7.332  2.9873  2.4901 -2.2288
  129OSM   H10T13830   3.472   1.696   7.393 -0.4092  1.4979 -0.6362
  129OSM   C11S13831   3.637   1.835   7.412 -0.0227  0.4260 -0.6444
  129OSM   H11S13832   3.568   1.921   7.426  1.1478  1.1599  0.9565
  129OSM   H11T13833   3.717   1.853   7.338 -0.3897  0.0434 -1.1409
  129OSM   C12S13834   3.673   1.789   7.554 -1.2749 -1.2161 -0.1700
  129OSM   H12S13835   3.748   1.709   7.538 -0.3835 -0.4777  0.2317
  129OSM   H12T13836   3.585   1.745   7.605 -1.3817  1.3612  2.1184
  129OSM   C13S13837   3.739   1.889   7.645  0.9401  0.0511 -0.6086
  129OSM   H13S13838   3.672   1.968   7.687  1.5312  1.6775 -2.5581
  129OSM   H13T13839   3.824   1.942   7.597 -0.1545  2.0126 -0.5246
  129OSM   C14S13840   3.801   1.819   7.769  0.0420 -0.2819 -0.2737
  129OSM   H14S13841   3.893   1.767   7.737 -0.2939 -1.2363  0.2747
  129OSM   H14T13842   3.724   1.753   7.815  1.8280 -3.3324 -1.4264
  129OSM   C15S13843   3.858   1.927   7.866 -0.3209  0.0525  0.1609
  129OSM   H15S13844   3.777   1.994   7.903 -2.1051 -0.6936 -2.1927
  129OSM   H15T13845   3.925   1.987   7.801 -0.1048  0.6168  0.8877
  129OSM   C16S13846   3.951   1.876   7.975 -0.2907 -0.0142 -0.1101
  129OSM   H16S13847   4.016   1.794   7.936  0.0097 -0.3999  1.1769
  129OSM   H16T13848   3.891   1.830   8.056  1.6913 -0.7283  1.0251
  129OSM   C17S13849   4.034   1.980   8.052  0.3933 -0.5030  0.4324
  129OSM   H17S13850   3.970   2.069   8.069 -0.4680 -1.4565  2.4750
  129OSM   H17T13851   4.125   2.008   7.996  1.2108 -1.8141  1.0567
  129OSM   C18S13852   4.077   1.923   8.189 -0.3711 -0.6662  0.0188
  129OSM   H18S13853   4.123   1.823   8.180  0.6866 -0.2028  0.2129
  129OSM   H18T13854   3.990   1.913   8.258 -0.4001  1.8429  0.4356
  129OSM   H18U13855   4.155   1.994   8.224 -0.5561 -0.7446  0.5940
  129OSM    C1F13856   2.932   1.931   6.727 -0.8654  0.7682  1.1222
  129OSM     OF13857   2.832   1.881   6.679  0.0086  0.3078  0.7260
  129OSM    C2F13858   2.940   2.043   6.825 -0.2519  0.3569  0.0101
  129OSM    H2F13859   2.841   2.095   6.825 -0.2033  0.4496  0.3541
  129OSM    H2G13860   3.022   2.112   6.795 -1.3447  1.7858  0.1803
  129OSM    C3F13861   2.958   2.013   6.975 -0.0384  0.5481  0.2908
  129OSM    H3F13862   3.059   1.970   6.994 -0.7972 -1.0411  1.0265
  129OSM    H3G13863   2.876   1.940   6.997  0.8111 -0.6843 -0.5014
  129OSM    C4F13864   2.941   2.132   7.069 -0.1249 -0.1831 -0.0962
  129OSM    H4F13865   2.841   2.171   7.044 -0.2342 -1.0155 -1.0516
  129OSM    H4G13866   3.018   2.201   7.029 -0.1788 -0.5703 -0.8921
  129OSM    C5F13867   2.950   2.092   7.214 -0.1389 -0.4249 -0.1788
  129OSM    H5F13868   2.946   2.181   7.281 -0.7527  0.9943 -2.0119
  129OSM    H5G13869   3.040   2.029   7.225  0.2743 -0.2862 -2.3744
  129OSM    C6F13870   2.825   2.017   7.264 -1.0458  0.2656  0.1701
  129OSM    H6F13871   2.840   1.925   7.202 -0.8427 -1.0181  2.0302
  129OSM    H6G13872   2.735   2.074   7.232  0.1243  0.8190 -2.4327
  129OSM    C7F13873   2.817   1.979   7.408 -0.1615 -0.2159 -0.4357
  129OSM    H7F13874   2.910   1.921   7.427 -0.9972 -0.7058  2.8003
  129OSM    H7G13875   2.726   1.919   7.433  0.2877 -0.7418 -0.0344
  129OSM    C8F13876   2.817   2.100   7.513  0.1991  0.9116  0.2781
  129OSM    H8F13877   2.726   2.162   7.500 -0.3532 -0.3096 -2.1688
  129OSM    H8G13878   2.905   2.166   7.496 -0.5764  2.0797  0.6638
  129OSM    C9F13879   2.831   2.023   7.648  0.3297 -0.5417  1.3442
  129OSM    H9F13880   2.935   2.005   7.679 -0.1455 -0.3014  3.1958
  129OSM   C10F13881   2.734   1.969   7.724  0.0251  0.4357  0.4671
  129OSM   H10F13882   2.767   1.920   7.817  0.6029  0.8858  0.5015
  129OSM   C11F13883   2.581   1.972   7.689  0.2406  0.4860  0.0724
  129OSM   H11F13884   2.538   1.879   7.647 -0.0336  0.2968  0.7580
  129OSM   H11G13885   2.553   2.052   7.618 -0.4886  0.7069  0.5936
  129OSM   C12F13886   2.501   2.012   7.809 -0.4430 -0.1920 -0.5002
  129OSM   H12F13887   2.522   1.955   7.901 -0.0505  1.1733  0.2882
  129OSM   H12G13888   2.393   2.019   7.782 -0.2194  1.1891 -1.1149
  129OSM   C13F13889   2.532   2.153   7.859  0.0764 -0.3099  0.1682
  129OSM   H13F13890   2.507   2.225   7.778 -0.6501 -1.8247 -1.0054
  129OSM   H13G13891   2.642   2.159   7.872 -0.0238 -1.8007  2.0023
  129OSM   C14F13892   2.472   2.208   7.988 -0.9709  0.0261 -0.3006
  129OSM   H14F13893   2.526   2.300   8.021 -0.2753  0.2675 -2.0492
  129OSM   H14G13894   2.487   2.127   8.062 -2.2647 -0.4692 -0.5677
  129OSM   C15F13895   2.326   2.235   7.982  0.3453 -0.8437  1.2875
  129OSM   H15F13896   2.278   2.137   7.958 -0.1419 -0.3105  0.0348
  129OSM   H15G13897   2.309   2.309   7.901  0.4625 -0.3910  1.6722
  129OSM   C16F13898   2.263   2.295   8.109  0.0688  0.4997 -0.6947
  129OSM   H16F13899   2.170   2.342   8.070  1.1358  0.4640 -3.4799
  129OSM   H16G13900   2.329   2.370   8.158 -0.8563 -0.7263  2.7560
  129OSM   C17F13901   2.215   2.181   8.209 -0.2487  0.5116  0.8557
  129OSM   H17F13902   2.222   2.225   8.310  0.9238  1.7021  0.2892
  129OSM   H17G13903   2.289   2.098   8.203  0.3684  1.1176 -0.2652
  129OSM   C18F13904   2.081   2.114   8.177 -0.6569 -0.0203 -0.5030
  129OSM   H18F13905   2.075   2.071   8.074 -0.1527  0.4287 -0.7258
  129OSM   H18G13906   1.993   2.178   8.199  0.7134  1.9275 -0.4266
  129OSM   H18H13907   2.071   2.030   8.249 -0.4291 -0.4222 -0.9325
  130OSM      N13908   4.335   6.157   6.114 -0.2627 -0.3329 -0.4988
  130OSM    C1513909   4.209   6.103   6.181  0.0995 -0.7392 -0.2723
  130OSM   H15A13910   4.239   6.052   6.271 -0.1486 -0.9029 -0.2804
  130OSM   H15B13911   4.154   6.029   6.124 -3.1826  0.1903  1.4278
  130OSM   H15C13912   4.153   6.190   6.210 -0.9528  0.1191 -4.2496
  130OSM    C1413913   4.396   6.041   6.053  0.0608 -0.5616 -0.1673
  130OSM   H14A13914   4.411   5.954   6.116 -1.0541 -0.1681  0.6707
  130OSM   H14B13915   4.493   6.066   6.013  0.3451  1.7370  1.7197
  130OSM   H14C13916   4.348   6.007   5.962  0.3737  0.0516 -0.5663
  130OSM    C1313917   4.303   6.251   6.001  0.0026 -0.4189 -0.1822
  130OSM   H13A13918   4.240   6.198   5.932  1.1494 -1.2913 -0.5900
  130OSM   H13B13919   4.390   6.279   5.944  0.3230 -1.3007 -0.1311
  130OSM   H13C13920   4.242   6.335   6.033 -0.7898 -0.4983 -1.4446
  130OSM    C1213921   4.424   6.217   6.218 -0.0629 -0.1626 -0.4998
  130OSM   H12A13922   4.504   6.261   6.161  1.1119 -0.3236  0.9583
  130OSM   H12B13923   4.469   6.142   6.281  0.1122 -2.3019 -2.9977
  130OSM    C1113924   4.373   6.332   6.305 -0.3837 -0.5673  0.1394
  130OSM   H11A13925   4.454   6.370   6.371 -1.0125 -0.5521  0.9155
  130OSM   H11B13926   4.301   6.287   6.376 -0.9388  0.7580  0.4516
  130OSM      P13927   4.353   6.584   6.247 -0.1511  0.0465  0.0888
  130OSM    O1313928   4.488   6.604   6.187 -0.4476  0.0792 -0.0970
  130OSM    O1413929   4.234   6.666   6.207 -0.9179  0.4009  0.3529
  130OSM    O1113930   4.370   6.595   6.406  0.1304  0.4054 -0.5453
  130OSM    O1213931   4.305   6.435   6.232 -0.1320 -0.5668  0.0819
  130OSM    C1S13932   4.262   6.623   6.491  0.2164 -0.0277 -0.4407
  130OSM    H1S13933   4.168   6.657   6.442  0.2628  1.9842  0.7765
  130OSM    H1T13934   4.282   6.713   6.552 -0.9050 -0.1646  0.1597
  130OSM     NF13935   4.121   6.537   6.669 -0.3121  0.1049 -0.9630
  130OSM    HNF13936   4.134   6.567   6.763  2.0718  0.9691 -1.5037
  130OSM    C2S13937   4.244   6.512   6.593 -0.1132 -0.4496  0.2907
  130OSM    H2S13938   4.231   6.421   6.531 -0.4717 -0.2006 -0.0058
  130OSM    C3S13939   4.367   6.492   6.689  0.3813  0.6998 -0.1273
  130OSM    H3S13940   4.372   6.582   6.754 -2.9838  0.8930  0.0682
  130OSM     O313941   4.492   6.480   6.626 -0.1565 -0.5136 -0.5433
  130OSM    HO313942   4.474   6.541   6.554  0.4010  2.8741  1.9451
  130OSM    C4S13943   4.342   6.371   6.782 -0.9070  0.5855 -0.6951
  130OSM    H4S13944   4.265   6.385   6.860  0.6764 -0.5645  1.1556
  130OSM    C5S13945   4.401   6.249   6.777  0.3729 -0.0172 -0.9336
  130OSM    H5S13946   4.493   6.232   6.720  0.1396 -1.0226 -1.0131
  130OSM    C6S13947   4.377   6.139   6.874 -0.1710 -0.6049  0.5625
  130OSM    H6S13948   4.465   6.071   6.873  1.1389  1.0557 -0.0914
  130OSM    H6T13949   4.286   6.081   6.848 -0.2191 -1.2359  2.0219
  130OSM    C7S13950   4.366   6.170   7.023  0.5983  0.1991  0.1194
  130OSM    H7S13951   4.298   6.254   7.046 -0.1196 -0.3190 -0.0950
  130OSM    H7T13952   4.466   6.211   7.050  0.8478  0.4111 -1.0758
  130OSM    C8S13953   4.342   6.050   7.118  0.4833 -0.7725 -0.3211
  130OSM    H8S13954   4.423   5.981   7.086  0.1868 -0.3979 -1.9709
  130OSM    H8T13955   4.246   5.997   7.099 -0.7645  0.5865  1.7563
  130OSM    C9S13956   4.361   6.082   7.270  1.0124  0.3060 -0.5183
  130OSM    H9S13957   4.297   6.169   7.293  0.7608  0.4666 -1.7566
  130OSM    H9T13958   4.461   6.132   7.275 -0.2248  2.8933  0.3302
  130OSM   C10S13959   4.348   5.962   7.369 -0.1288  0.7296  0.0734
  130OSM   H10S13960   4.416   5.879   7.341 -0.6968  0.1956  0.2353
  130OSM   H10T13961   4.244   5.921   7.358 -0.4176  1.9733 -2.6375
  130OSM   C11S13962   4.351   5.986   7.520 -1.1569 -0.2704  0.2738
  130OSM   H11S13963   4.270   6.059   7.545 -0.0476  2.7829 -3.9099
  130OSM   H11T13964   4.449   6.030   7.550 -0.9259 -0.3558 -0.3435
  130OSM   C12S13965   4.322   5.865   7.602  0.2147 -0.1197  0.7283
  130OSM   H12S13966   4.380   5.787   7.547 -0.3472 -0.2271  0.2771
  130OSM   H12T13967   4.215   5.843   7.583  0.5195  1.2788 -3.9048
  130OSM   C13S13968   4.361   5.893   7.748  0.2068 -0.0066 -0.2791
  130OSM   H13S13969   4.469   5.920   7.756  0.3376 -0.7695  0.7677
  130OSM   H13T13970   4.336   5.804   7.809 -2.0624  0.3129 -0.6838
  130OSM   C14S13971   4.265   5.995   7.816 -1.2154  0.6393 -0.6561
  130OSM   H14S13972   4.158   5.968   7.803 -0.7355 -1.2327 -1.1173
  130OSM   H14T13973   4.280   6.097   7.776  1.1189  0.7019  0.2445
  130OSM   C15S13974   4.280   6.005   7.963 -0.5887 -0.1757  0.1764
  130OSM   H15S13975   4.275   5.904   8.009 -1.5365 -0.4756 -0.5478
  130OSM   H15T13976   4.202   6.066   8.013 -0.9044 -1.2636  1.0601
  130OSM   C16S13977   4.431   6.044   8.001  0.0212  0.4040 -0.1564
  130OSM   H16S13978   4.462   6.110   7.917 -0.1904 -0.3336 -0.8273
  130OSM   H16T13979   4.480   5.944   8.002 -2.9556 -1.1599  0.7204
  130OSM   C17S13980   4.442   6.118   8.125  0.2437 -0.1524 -0.2656
  130OSM   H17S13981   4.394   6.063   8.209  0.3435  0.3621  0.1378
  130OSM   H17T13982   4.387   6.212   8.102  0.2184 -0.4861 -1.6365
  130OSM   C18S13983   4.582   6.160   8.176  0.2840 -0.5325  0.2897
  130OSM   H18S13984   4.615   6.072   8.235  3.3934 -0.3068 -0.9213
  130OSM   H18T13985   4.579   6.255   8.232 -2.1010  0.1621 -0.8884
  130OSM   H18U13986   4.655   6.167   8.092 -1.0786 -0.2656 -0.9200
  130OSM    C1F13987   3.996   6.528   6.623  0.5739  0.0040 -0.2305
  130OSM     OF13988   3.971   6.488   6.517  0.1646  0.8708 -0.5962
  130OSM    C2F13989   3.884   6.568   6.719  0.1296 -1.0879  0.1207
  130OSM    H2F13990   3.883   6.677   6.697 -0.0143 -0.6891  1.9311
  130OSM    H2G13991   3.923   6.566   6.823  1.1714 -3.2247 -0.2479
  130OSM    C3F13992   3.738   6.521   6.684  0.0701 -0.3182 -0.3933
  130OSM    H3F13993   3.739   6.412   6.662 -1.5665 -0.3597 -0.4350
  130OSM    H3G13994   3.702   6.573   6.593  0.1273 -1.2282 -0.9491
  130OSM    C4F13995   3.643   6.577   6.793  0.3170 -0.0787 -1.0909
  130OSM    H4F13996   3.539   6.556   6.762 -0.1362 -3.2987  1.9971
  130OSM    H4G13997   3.662   6.685   6.812 -1.7334  0.3704 -1.4113
  130OSM    C5F13998   3.660   6.490   6.925 -0.2921 -0.4519  0.2105
  130OSM    H5F13999   3.764   6.499   6.962  0.2902  0.3346 -1.5115
  130OSM    H5G14000   3.658   6.385   6.889  1.6320 -0.7090  0.7909
  130OSM    C6F14001   3.559   6.511   7.035 -0.8171  0.1756  0.5379
  130OSM    H6F14002   3.471   6.541   6.974  0.0123 -2.7025 -2.3709
  130OSM    H6G14003   3.584   6.596   7.102  1.6123  1.5379 -1.8817
  130OSM    C7F14004   3.532   6.386   7.116  0.4542 -0.4591  0.3071
  130OSM    H7F14005   3.613   6.367   7.189  1.8517 -1.0836 -1.3545
  130OSM    H7G14006   3.530   6.297   7.049  0.8193  0.7561 -1.3939
  130OSM    C8F14007   3.404   6.410   7.204  0.6038  0.5359  0.4509
  130OSM    H8F14008   3.367   6.314   7.245 -0.4051  0.8649  0.3439
  130OSM    H8G14009   3.322   6.449   7.139 -1.5515 -3.9843  0.0685
  130OSM    C9F14010   3.424   6.501   7.326 -0.1827  0.1076  0.0494
  130OSM    H9F14011   3.438   6.606   7.296 -1.1858  0.0830 -0.5508
  130OSM   C10F14012   3.451   6.464   7.456  0.1886  0.2654  0.5493
  130OSM   H10F14013   3.466   6.546   7.527 -0.7332  2.9455 -2.1271
  130OSM   C11F14014   3.452   6.322   7.500  0.1345  0.0705  0.5690
  130OSM   H11F14015   3.500   6.257   7.424  2.2575  0.1349  1.7527
  130OSM   H11G14016   3.350   6.281   7.515 -0.4123  1.1456 -0.1226
  130OSM   C12F14017   3.527   6.313   7.633 -0.0911  0.5107 -0.0497
  130OSM   H12F14018   3.630   6.352   7.648  0.0735 -0.2763  1.0194
  130OSM   H12G14019   3.545   6.204   7.650  0.8361  0.2321 -2.4071
  130OSM   C13F14020   3.448   6.378   7.747 -0.5474  0.3782  0.0989
  130OSM   H13F14021   3.356   6.320   7.770 -0.1407 -0.9735 -1.4557
  130OSM   H13G14022   3.404   6.472   7.709 -0.8113  0.6872  1.1256
  130OSM   C14F14023   3.533   6.387   7.876 -0.0149  0.0111 -0.3476
  130OSM   H14F14024   3.617   6.460   7.870  0.7982 -0.9218 -0.5067
  130OSM   H14G14025   3.590   6.295   7.899 -0.2276  0.0981  0.5803
  130OSM   C15F14026   3.446   6.431   7.991  0.1350 -0.8634 -0.1640
  130OSM   H15F14027   3.402   6.340   8.038 -0.4132 -1.3226 -1.5183
  130OSM   H15G14028   3.356   6.493   7.973 -0.5393 -1.6786  0.3042
  130OSM   C16F14029   3.534   6.502   8.096 -0.7557  0.0739  0.2872
  130OSM   H16F14030   3.538   6.610   8.068 -0.6462 -0.2844 -1.1821
  130OSM   H16G14031   3.631   6.450   8.082 -1.1674 -1.0642  1.4459
  130OSM   C17F14032   3.479   6.470   8.236 -0.3976 -1.3095  0.3353
  130OSM   H17F14033   3.555   6.502   8.310 -1.1182 -0.8179  0.8727
  130OSM   H17G14034   3.454   6.362   8.238 -1.5301 -1.1160 -1.1917
  130OSM   C18F14035   3.347   6.542   8.256  0.3462 -0.1063 -0.2909
  130OSM   H18F14036   3.301   6.498   8.347  2.7780 -2.1864  0.0698
  130OSM   H18G14037   3.270   6.535   8.176 -0.5678  0.0873  0.5561
  130OSM   H18H14038   3.381   6.645   8.276  0.9157 -0.6957  2.0009
  131OSM      N14039   3.963   4.580   5.830 -0.7904  0.4599  0.1024
  131OSM    C1514040   3.895   4.657   5.721 -0.1406 -0.3041 -0.5025
  131OSM   H15A14041   3.841   4.743   5.759 -1.6857 -0.6659 -1.7522
  131OSM   H15B14042   3.832   4.590   5.664  1.5205 -0.6857 -1.9659
  131OSM   H15C14043   3.965   4.698   5.650 -1.1815 -1.7403 -2.4622
  131OSM    C1414044   4.018   4.447   5.779 -0.6511 -0.0209  0.3928
  131OSM   H14A14045   3.945   4.404   5.713  1.2046 -0.9752 -1.1579
  131OSM   H14B14046   4.051   4.386   5.861  0.3258  0.9273  0.7393
  131OSM   H14C14047   4.109   4.469   5.724 -2.0432  2.1829 -1.1997
  131OSM    C1314048   4.082   4.661   5.884 -0.7138 -0.1384  0.2839
  131OSM   H13A14049   4.129   4.615   5.970 -1.0651 -0.6284  0.2199
  131OSM   H13B14050   4.034   4.755   5.907 -1.1152 -0.5900  1.3625
  131OSM   H13C14051   4.154   4.674   5.804 -4.0334  0.7154 -2.8168
  131OSM    C1214052   3.860   4.544   5.941  0.4156 -0.6328  0.5341
  131OSM   H12A14053   3.775   4.491   5.903 -1.0476  1.2745  1.0107
  131OSM   H12B14054   3.823   4.644   5.955 -0.7345 -0.5586 -2.3764
  131OSM    C1114055   3.909   4.483   6.073 -0.2580  0.0540  1.2454
  131OSM   H11A14056   3.831   4.485   6.152 -2.1481  1.3051 -0.5574
  131OSM   H11B14057   3.983   4.554   6.117 -1.0778  1.0556  1.0419
  131OSM      P14058   3.866   4.230   6.021  0.4191  0.0208 -0.3566
  131OSM    O1314059   3.779   4.260   5.906 -0.2387 -0.0354  0.2006
  131OSM    O1414060   3.949   4.107   6.021 -0.8193  0.1477  0.0355
  131OSM    O1114061   3.781   4.220   6.159  0.0835  0.1474  0.0361
  131OSM    O1214062   3.964   4.351   6.060  0.3644 -0.3829  0.2664
  131OSM    C1S14063   3.847   4.177   6.283  0.0278  0.1326 -0.1241
  131OSM    H1S14064   3.936   4.114   6.265  0.5426  0.9041 -0.3522
  131OSM    H1T14065   3.775   4.110   6.333  1.3257  0.1538  1.8525
  131OSM     NF14066   3.933   4.233   6.510 -0.8338 -0.4398 -0.3137
  131OSM    HNF14067   3.875   4.184   6.574  0.7737 -1.1356  0.6702
  131OSM    C2S14068   3.870   4.289   6.388 -0.7455 -0.0941 -0.0578
  131OSM    H2S14069   3.929   4.376   6.353 -0.5679  0.1275  0.7665
  131OSM    C3S14070   3.727   4.350   6.411  1.0221  0.2379  0.4200
  131OSM    H3S14071   3.660   4.269   6.447 -0.3646  1.3991  0.5519
  131OSM     O314072   3.668   4.412   6.295 -0.0842 -0.0538  0.3867
  131OSM    HO314073   3.737   4.387   6.233  2.4299  1.2212  2.4670
  131OSM    C4S14074   3.753   4.449   6.524  0.2849  0.0782 -0.3020
  131OSM    H4S14075   3.754   4.410   6.627  1.9813 -1.9088 -1.0100
  131OSM    C5S14076   3.778   4.585   6.508  0.1584  0.0362 -0.2632
  131OSM    H5S14077   3.770   4.627   6.407 -0.7260  0.3614 -0.0706
  131OSM    C6S14078   3.805   4.685   6.620 -0.1037 -0.2590  0.6201
  131OSM    H6S14079   3.716   4.752   6.623 -0.1463 -0.1511 -1.4693
  131OSM    H6T14080   3.889   4.753   6.594  1.1735 -1.9749  0.0867
  131OSM    C7S14081   3.827   4.636   6.760 -0.9193  0.1144  0.2936
  131OSM    H7S14082   3.744   4.571   6.795 -1.5606  1.6903  1.8850
  131OSM    H7T14083   3.828   4.724   6.828  0.1902  1.5322 -1.4766
  131OSM    C8S14084   3.960   4.553   6.768 -0.3573 -0.0121  0.0085
  131OSM    H8S14085   4.052   4.615   6.753  1.0334 -1.8996  0.4027
  131OSM    H8T14086   3.963   4.487   6.678 -4.1977  0.6588 -0.7487
  131OSM    C9S14087   3.982   4.471   6.895 -0.0013  0.2234 -0.2557
  131OSM    H9S14088   3.898   4.397   6.897  1.0493 -0.9891  0.4113
  131OSM    H9T14089   3.956   4.535   6.981 -0.4058  2.1358 -1.7323
  131OSM   C10S14090   4.116   4.390   6.919  0.6595  1.0800 -0.4152
  131OSM   H10S14091   4.211   4.444   6.901  1.3584  1.1131  2.8244
  131OSM   H10T14092   4.103   4.301   6.854 -0.8891  2.9321 -2.8224
  131OSM   C11S14093   4.118   4.354   7.071 -0.2308 -0.5427  0.6617
  131OSM   H11S14094   4.129   4.452   7.123  1.1543 -0.0358 -0.5134
  131OSM   H11T14095   4.204   4.284   7.085 -0.5852 -1.4949 -1.4806
  131OSM   C12S14096   3.998   4.285   7.132 -0.0079  0.6208  0.2578
  131OSM   H12S14097   3.986   4.185   7.085 -1.0925  1.1670 -0.6906
  131OSM   H12T14098   3.900   4.335   7.113 -0.7596 -0.3868  1.3160
  131OSM   C13S14099   4.020   4.280   7.282 -0.4290 -0.2868  0.5445
  131OSM   H13S14100   3.998   4.384   7.314 -1.6331 -0.4789  0.4017
  131OSM   H13T14101   4.128   4.267   7.304 -0.3794 -0.6573  0.1009
  131OSM   C14S14102   3.935   4.180   7.357  0.7103  0.0175 -0.6916
  131OSM   H14S14103   3.954   4.074   7.327 -2.1781 -0.4225 -1.3083
  131OSM   H14T14104   3.833   4.208   7.321  0.5486 -2.2106 -2.1624
  131OSM   C15S14105   3.948   4.176   7.510 -0.0616  0.6103 -0.3674
  131OSM   H15S14106   4.054   4.157   7.536 -0.6792 -2.0243  0.5643
  131OSM   H15T14107   3.878   4.096   7.544  1.1452 -0.7179 -0.8733
  131OSM   C16S14108   3.902   4.303   7.585 -0.3217 -0.0800  0.0608
  131OSM   H16S14109   3.800   4.315   7.542 -0.7905 -3.7979 -0.2184
  131OSM   H16T14110   3.955   4.395   7.554  0.0440 -0.1512  0.4561
  131OSM   C17S14111   3.892   4.277   7.731  0.2008  0.2075  0.3752
  131OSM   H17S14112   3.986   4.221   7.749  1.3365  2.0017  0.2439
  131OSM   H17T14113   3.799   4.218   7.746  1.2218 -1.0986  1.8500
  131OSM   C18S14114   3.884   4.397   7.825 -0.4812  0.4180  0.0080
  131OSM   H18S14115   3.896   4.358   7.929  0.6411  0.4092 -0.1109
  131OSM   H18T14116   3.796   4.464   7.813 -0.1129  0.6258 -1.8815
  131OSM   H18U14117   3.983   4.445   7.809 -0.3446  0.4201  0.8301
  131OSM    C1F14118   4.061   4.186   6.511 -0.1786  1.3791  0.1747
  131OSM     OF14119   4.126   4.203   6.412 -0.0292  0.2004  0.2167
  131OSM    C2F14120   4.104   4.105   6.632  0.2006 -0.4215  0.4771
  131OSM    H2F14121   4.071   3.999   6.621 -2.4023  0.5104 -2.1182
  131OSM    H2G14122   4.045   4.146   6.717  2.0584  0.0373  1.5925
  131OSM    C3F14123   4.259   4.099   6.673  0.2527  0.4968 -0.0585
  131OSM    H3F14124   4.319   4.191   6.660  1.9873 -0.0379  3.1059
  131OSM    H3G14125   4.301   4.029   6.597 -2.5490 -0.3403 -0.9747
  131OSM    C4F14126   4.270   4.031   6.809 -0.1572  0.1351  0.7511
  131OSM    H4F14127   4.211   3.938   6.794 -3.3425  2.3110 -1.6758
  131OSM    H4G14128   4.213   4.098   6.877  2.0288  0.9652  1.8662
  131OSM    C5F14129   4.415   4.009   6.866  0.3709 -0.6052 -0.0293
  131OSM    H5F14130   4.469   4.106   6.868 -1.6255  0.6089 -1.4000
  131OSM    H5G14131   4.471   3.944   6.795  1.6929 -1.3286  1.6089
  131OSM    C6F14132   4.410   3.946   7.006  0.9287 -0.2352 -0.2872
  131OSM    H6F14133   4.495   3.878   7.028  0.0152 -0.7525  1.8906
  131OSM    H6G14134   4.310   3.899   7.017 -0.0485  2.1242  2.2001
  131OSM    C7F14135   4.429   4.055   7.119  0.2567  0.5224 -0.2329
  131OSM    H7F14136   4.342   4.124   7.116 -1.0162 -0.9884  0.4583
  131OSM    H7G14137   4.529   4.102   7.110  0.0398  0.8324 -1.0954
  131OSM    C8F14138   4.411   3.994   7.264 -0.1435  1.2200  0.2125
  131OSM    H8F14139   4.490   3.916   7.263 -0.5202  0.7762  1.6838
  131OSM    H8G14140   4.312   3.946   7.278  0.8925 -1.0734  0.0298
  131OSM    C9F14141   4.446   4.087   7.373  0.0578 -0.0651 -0.0861
  131OSM    H9F14142   4.464   4.191   7.342 -0.9936  0.4680  0.9836
  131OSM   C10F14143   4.477   4.047   7.498 -0.3739 -0.0961 -0.2930
  131OSM   H10F14144   4.511   4.127   7.566  0.7697 -0.1490 -0.7752
  131OSM   C11F14145   4.474   3.903   7.537  0.1385 -0.8717 -0.0270
  131OSM   H11F14146   4.565   3.850   7.503 -0.2552 -1.0646 -0.7781
  131OSM   H11G14147   4.384   3.858   7.491  0.2801 -0.4553 -0.7272
  131OSM   C12F14148   4.461   3.874   7.686 -0.9221 -0.1219 -0.2032
  131OSM   H12F14149   4.481   3.766   7.700  0.6841  0.1183 -0.4697
  131OSM   H12G14150   4.362   3.893   7.733 -0.0476 -1.2083  2.2439
  131OSM   C13F14151   4.563   3.945   7.774  0.5754  0.7616 -0.2002
  131OSM   H13F14152   4.549   4.051   7.803  0.6979  0.7253 -0.0041
  131OSM   H13G14153   4.665   3.950   7.730 -0.4766  1.1690 -2.7718
  131OSM   C14F14154   4.560   3.881   7.909  0.2356  0.3863 -0.4329
  131OSM   H14F14155   4.584   3.773   7.897  2.8078  0.8244 -0.0038
  131OSM   H14G14156   4.455   3.889   7.942 -0.1778 -1.9344 -0.9988
  131OSM   C15F14157   4.669   3.922   8.002 -0.4428  0.3901 -0.0532
  131OSM   H15F14158   4.645   4.022   8.043 -2.1631 -0.4133  1.0281
  131OSM   H15G14159   4.771   3.914   7.959 -0.5297 -0.3706 -0.1322
  131OSM   C16F14160   4.674   3.842   8.139 -0.6439  0.2002  0.4926
  131OSM   H16F14161   4.676   3.732   8.119 -1.9570  0.4386 -1.2752
  131OSM   H16G14162   4.572   3.856   8.182 -0.7467 -0.2059  0.3951
  131OSM   C17F14163   4.787   3.884   8.233  0.5204  0.3611  1.0423
  131OSM   H17F14164   4.780   3.838   8.334 -0.8139 -1.0501  0.3465
  131OSM   H17G14165   4.772   3.994   8.232 -0.4691  0.2362  1.4230
  131OSM   C18F14166   4.922   3.833   8.189 -0.2259  0.0309  0.4079
  131OSM   H18F14167   4.923   3.727   8.156  1.2562 -0.2262  1.1686
  131OSM   H18G14168   5.006   3.841   8.261  0.3102  5.8022 -0.3503
  131OSM   H18H14169   4.955   3.885   8.096  0.0178  0.6287  0.8252
  132OSM      N14170   6.186   2.228   6.608 -0.1470  0.7578 -0.5461
  132OSM    C1514171   6.304   2.196   6.689 -0.3603  0.2437  0.1427
  132OSM   H15A14172   6.327   2.091   6.701 -1.9588 -0.2155 -0.5596
  132OSM   H15B14173   6.296   2.237   6.789  1.2275 -1.1631  0.8995
  132OSM   H15C14174   6.391   2.231   6.635  0.4347 -0.1134  1.1469
  132OSM    C1414175   6.174   2.119   6.516 -0.4539 -0.2567 -0.4624
  132OSM   H14A14176   6.171   2.028   6.574  0.3501 -0.2010 -0.3155
  132OSM   H14B14177   6.254   2.104   6.444 -0.2689 -0.6045 -0.1895
  132OSM   H14C14178   6.082   2.124   6.460 -0.7139 -2.3528 -0.2843
  132OSM    C1314179   6.058   2.220   6.694 -0.7214  0.0646  0.0789
  132OSM   H13A14180   5.969   2.229   6.633 -1.6933  0.2209  1.4820
  132OSM   H13B14181   6.048   2.295   6.771 -3.2937 -1.4143  1.3203
  132OSM   H13C14182   6.050   2.125   6.745 -0.7374  0.6756  1.2510
  132OSM    C1214183   6.192   2.359   6.531  1.0217 -0.7550  0.1397
  132OSM   H12A14184   6.277   2.345   6.465 -1.0498 -0.5004 -2.7883
  132OSM   H12B14185   6.215   2.442   6.596  1.3189 -0.7940  0.0864
  132OSM    C1114186   6.079   2.398   6.434 -0.4603 -0.0705  0.5529
  132OSM   H11A14187   6.087   2.334   6.344 -0.3469  0.5815  0.0901
  132OSM   H11B14188   6.119   2.496   6.400  3.0608 -1.5747 -0.0987
  132OSM      P14189   5.824   2.428   6.377  0.1187 -0.0036 -0.0143
  132OSM    O1314190   5.847   2.548   6.298 -0.1197 -0.0682  0.0957
  132OSM    O1414191   5.815   2.304   6.299  0.1480  0.3079  0.3487
  132OSM    O1114192   5.697   2.449   6.475 -0.0977  0.0449 -0.1636
  132OSM    O1214193   5.947   2.415   6.482  0.0022  0.2767  0.0184
  132OSM    C1S14194   5.641   2.342   6.542 -0.0013  0.1279 -0.0629
  132OSM    H1S14195   5.722   2.273   6.573 -1.4691 -0.5446  2.6594
  132OSM    H1T14196   5.568   2.283   6.483  1.5445 -0.5119 -1.3881
  132OSM     NF14197   5.516   2.265   6.734 -0.0934 -0.0006 -0.6201
  132OSM    HNF14198   5.425   2.245   6.697 -0.9176  2.4478 -0.1055
  132OSM    C2S14199   5.574   2.388   6.674 -0.4387  0.2345  0.5741
  132OSM    H2S14200   5.656   2.425   6.739  0.2806  0.1672 -0.2743
  132OSM    C3S14201   5.467   2.494   6.645 -0.1085  0.1674  0.6306
  132OSM    H3S14202   5.393   2.441   6.581  1.5513  0.1454 -1.3560
  132OSM     O314203   5.502   2.608   6.571  0.5860  0.3923 -0.2081
  132OSM    HO314204   5.581   2.577   6.527 -1.3355 -2.6581 -1.8517
  132OSM    C4S14205   5.404   2.532   6.772  0.2524  0.1178  0.5474
  132OSM    H4S14206   5.299   2.499   6.770  0.9079 -2.1461 -0.8768
  132OSM    C5S14207   5.457   2.605   6.875  0.1748 -0.1030  0.4185
  132OSM    H5S14208   5.560   2.637   6.854 -0.3676  0.1579 -2.1851
  132OSM    C6S14209   5.376   2.636   7.004 -0.7255 -0.0052  0.1439
  132OSM    H6S14210   5.391   2.557   7.080 -0.3736 -0.0731  0.0059
  132OSM    H6T14211   5.268   2.627   6.982 -0.5429 -1.0871 -0.3856
  132OSM    C7S14212   5.406   2.777   7.048 -0.1813  0.3500  0.6637
  132OSM    H7S14213   5.379   2.838   6.959  0.1729 -1.1052 -0.4844
  132OSM    H7T14214   5.516   2.789   7.054 -0.2809  1.6941  0.3048
  132OSM    C8S14215   5.322   2.824   7.164 -0.1464 -0.4760  0.1175
  132OSM    H8S14216   5.215   2.798   7.152  0.7366 -3.6936 -1.9707
  132OSM    H8T14217   5.320   2.936   7.161 -0.0178 -0.4861 -2.0552
  132OSM    C9S14218   5.367   2.765   7.306 -0.8885 -0.1812 -0.3675
  132OSM    H9S14219   5.475   2.787   7.317 -0.9627  0.4987 -0.9924
  132OSM    H9T14220   5.345   2.656   7.316  1.3861 -0.7537 -1.0550
  132OSM   C10S14221   5.293   2.833   7.413  0.6091 -1.0098 -0.1780
  132OSM   H10S14222   5.183   2.836   7.397  0.9239 -2.1712 -3.3329
  132OSM   H10T14223   5.324   2.940   7.415 -3.0600  0.2203  2.6941
  132OSM   C11S14224   5.319   2.772   7.549 -0.3483 -0.2650 -0.1617
  132OSM   H11S14225   5.423   2.772   7.588  0.2554 -4.2275 -1.3218
  132OSM   H11T14226   5.299   2.663   7.541 -0.2332 -0.2910 -0.1049
  132OSM   C12S14227   5.213   2.824   7.651 -0.3378  0.7176 -0.0474
  132OSM   H12S14228   5.110   2.829   7.611 -0.7061  0.1207  0.7882
  132OSM   H12T14229   5.247   2.929   7.667  0.7905  0.4626 -0.6272
  132OSM   C13S14230   5.224   2.767   7.794  0.4984  0.3099  0.0491
  132OSM   H13S14231   5.326   2.773   7.837  1.0820  1.3761 -1.3964
  132OSM   H13T14232   5.195   2.661   7.775 -0.7496  0.6817 -0.2428
  132OSM   C14S14233   5.115   2.804   7.895  0.1198 -0.2228 -0.9678
  132OSM   H14S14234   5.016   2.771   7.858 -1.1428  2.5960 -0.3235
  132OSM   H14T14235   5.108   2.914   7.911 -3.3834 -0.5611  0.6671
  132OSM   C15S14236   5.144   2.715   8.025  0.1314  0.3191  0.5582
  132OSM   H15S14237   5.244   2.719   8.072  0.5201 -2.2054  0.1356
  132OSM   H15T14238   5.139   2.612   7.982  0.2233  0.0044  1.2798
  132OSM   C16S14239   5.044   2.703   8.145  0.0628 -0.5785 -0.5824
  132OSM   H16S14240   5.082   2.630   8.219  1.2414  0.3008 -0.3002
  132OSM   H16T14241   4.945   2.671   8.105 -0.1466 -2.2087  1.1162
  132OSM   C17S14242   5.019   2.841   8.193  0.4617  0.2245  0.2049
  132OSM   H17S14243   4.959   2.888   8.112  0.3149 -1.0731 -0.4685
  132OSM   H17T14244   5.111   2.897   8.220  0.9947 -0.8831  0.7343
  132OSM   C18S14245   4.937   2.848   8.321  0.1381 -0.2807  0.3534
  132OSM   H18S14246   4.840   2.793   8.313 -0.0674  0.3041 -1.7733
  132OSM   H18T14247   4.918   2.954   8.346  2.7708  0.9419 -2.3387
  132OSM   H18U14248   5.002   2.810   8.403  3.3382  0.9883 -1.4244
  132OSM    C1F14249   5.591   2.185   6.809  0.0656 -0.4337  0.8111
  132OSM     OF14250   5.710   2.204   6.831 -0.3838 -0.3875  0.3142
  132OSM    C2F14251   5.516   2.060   6.855 -0.2115 -0.5583 -0.2912
  132OSM    H2F14252   5.525   1.993   6.767  0.8877  0.0836 -0.6849
  132OSM    H2G14253   5.409   2.088   6.866  0.2303  1.0381  0.1748
  132OSM    C3F14254   5.577   1.987   6.987  0.6349 -0.7799 -0.0153
  132OSM    H3F14255   5.668   1.924   6.971  0.3976 -1.1234 -0.0275
  132OSM    H3G14256   5.501   1.911   7.015 -0.7266  0.3837 -0.4376
  132OSM    C4F14257   5.591   2.079   7.116  0.0523  0.0829  0.2010
  132OSM    H4F14258   5.654   2.168   7.091  0.6249 -1.0178 -2.7188
  132OSM    H4G14259   5.634   2.023   7.202 -0.6914 -0.2644  0.3490
  132OSM    C5F14260   5.458   2.121   7.175 -0.8262  0.1020  0.3195
  132OSM    H5F14261   5.396   2.031   7.160  1.8693 -1.7488 -0.2974
  132OSM    H5G14262   5.418   2.204   7.113 -1.5998 -0.1491  0.4710
  132OSM    C6F14263   5.465   2.162   7.324  0.6729 -0.3814 -0.4105
  132OSM    H6F14264   5.544   2.240   7.330  2.8824 -2.3254 -2.1330
  132OSM    H6G14265   5.506   2.077   7.382 -0.1916  1.0246  2.4183
  132OSM    C7F14266   5.324   2.201   7.369  0.0005  0.3614  0.3179
  132OSM    H7F14267   5.244   2.126   7.350 -0.6390  0.9407  0.7005
  132OSM    H7G14268   5.297   2.291   7.309  0.0897  0.0552 -0.1932
  132OSM    C8F14269   5.313   2.230   7.523 -0.5541 -0.1797  0.0158
  132OSM    H8F14270   5.204   2.248   7.540 -0.4022 -0.5182  1.5370
  132OSM    H8G14271   5.374   2.322   7.534 -3.0513  1.4356  1.2286
  132OSM    C9F14272   5.367   2.125   7.619 -0.6190  0.2497  0.1788
  132OSM    H9F14273   5.467   2.089   7.588 -0.0656 -0.0357  2.1327
  132OSM   C10F14274   5.316   2.090   7.746 -0.1731 -0.4034  0.5026
  132OSM   H10F14275   5.374   2.025   7.813  1.0532 -0.5961 -0.6925
  132OSM   C11F14276   5.204   2.166   7.808  0.6656  0.1708  0.0684
  132OSM   H11F14277   5.141   2.088   7.857 -0.4013 -0.0004 -1.4929
  132OSM   H11G14278   5.142   2.218   7.732 -0.4551  0.5608  1.2160
  132OSM   C12F14279   5.240   2.258   7.925  0.4382  0.1991  0.1698
  132OSM   H12F14280   5.260   2.184   8.006 -1.5022 -0.0694  0.4484
  132OSM   H12G14281   5.154   2.321   7.957  0.3262 -0.1243  0.5031
  132OSM   C13F14282   5.352   2.368   7.916 -0.2461 -0.6302  0.0241
  132OSM   H13F14283   5.319   2.448   7.846 -1.4458 -0.3135  0.9234
  132OSM   H13G14284   5.444   2.322   7.875 -0.4495 -0.4087 -0.6874
  132OSM   C14F14285   5.379   2.435   8.053  0.3914  0.4924 -0.0327
  132OSM   H14F14286   5.281   2.452   8.103  0.0817  0.8208 -0.7458
  132OSM   H14G14287   5.428   2.532   8.030  3.4379 -0.6254  1.2575
  132OSM   C15F14288   5.463   2.347   8.146  0.5815  0.0522  0.3646
  132OSM   H15F14289   5.566   2.338   8.105 -0.1306 -0.9300 -1.3108
  132OSM   H15G14290   5.422   2.244   8.156  0.9089 -0.0598  0.5690
  132OSM   C16F14291   5.467   2.410   8.287  0.2464 -0.1416 -0.1262
  132OSM   H16F14292   5.363   2.414   8.326  0.5627 -0.4064  0.7768
  132OSM   H16G14293   5.507   2.513   8.270  0.0556  0.1231  0.9854
  132OSM   C17F14294   5.548   2.326   8.390  0.6852  0.5103  0.7774
  132OSM   H17F14295   5.655   2.322   8.362  0.2063  3.6294 -2.2074
  132OSM   H17G14296   5.503   2.225   8.389 -0.8984  1.1849  0.2192
  132OSM   C18F14297   5.533   2.380   8.529 -0.0622  0.0714  0.4538
  132OSM   H18F14298   5.600   2.320   8.595 -1.2604 -1.0401  0.7038
  132OSM   H18G14299   5.425   2.376   8.555  0.0631  1.0330  1.1912
  132OSM   H18H14300   5.583   2.479   8.538  1.7557 -0.7930  0.3893
  133SAPE     N14301   0.147   6.658  10.838 -0.2187 -1.3931  0.0328
  133SAPE   HN114302   0.141   6.698  10.742 -0.9147  0.3131  0.7457
  133SAPE   HN214303   0.053   6.678  10.878  0.6526 -1.5158  2.2469
  133SAPE   HN314304   0.210   6.717  10.895  1.0841 -2.0131 -0.7284
  133SAPE   C1214305   0.194   6.517  10.822 -0.1478 -0.6799  0.0651
  133SAPE  H12A14306   0.242   6.514  10.722  0.0106 -1.0374  0.1534
  133SAPE  H12B14307   0.104   6.452  10.832  0.5306 -1.7787 -0.7644
  133SAPE   C1114308   0.306   6.499  10.925 -0.2753 -0.5719  0.5438
  133SAPE  H11A14309   0.358   6.405  10.897 -0.6082  0.0723 -2.5661
  133SAPE  H11B14310   0.268   6.491  11.029  0.7994 -3.0841  0.8184
  133SAPE     P14311   0.553   6.579  10.859 -0.0305  0.1220  0.1259
  133SAPE   O1314312   0.623   6.699  10.900 -0.1941  0.2141  0.7122
  133SAPE   O1414313   0.609   6.448  10.898 -0.3327 -0.4143  0.1417
  133SAPE   O1214314   0.406   6.603  10.914  0.0333 -0.8373 -0.0049
  133SAPE   O1114315   0.542   6.579  10.708 -0.0853 -0.2859 -0.2501
  133SAPE    C114316   0.506   6.696  10.631  0.2605  0.3303  0.4107
  133SAPE    HA14317   0.396   6.711  10.623  0.2604  0.5438  0.7865
  133SAPE    HB14318   0.551   6.786  10.679 -1.6502  0.1623  2.7498
  133SAPE    C214319   0.559   6.694  10.489 -0.3973  0.5009 -0.5170
  133SAPE    HS14320   0.537   6.789  10.436  0.0334  1.4407  0.9394
  133SAPE   O2114321   0.508   6.585  10.422  0.2111  0.0682  0.1418
  133SAPE   C2114322   0.397   6.601  10.361 -0.5746  0.2620 -0.0383
  133SAPE   O2214323   0.319   6.694  10.365 -0.4619 -0.3974 -0.0258
  133SAPE   C2214324   0.378   6.481  10.274 -0.1314  0.3981 -0.2086
  133SAPE   H2R14325   0.461   6.486  10.199 -0.0784 -0.8781 -0.2570
  133SAPE   H2S14326   0.415   6.393  10.331  0.6308  1.6104  1.2173
  133SAPE    C314327   0.714   6.687  10.491 -0.1574 -0.2278 -0.1562
  133SAPE    HX14328   0.738   6.580  10.507 -1.1809 -0.5304 -0.5569
  133SAPE    HY14329   0.750   6.729  10.588  1.0382  3.0413 -1.8465
  133SAPE   O3114330   0.761   6.759  10.377 -0.1530 -0.1928  0.6324
  133SAPE   C3114331   0.832   6.682  10.294 -1.0103  0.7906 -0.0743
  133SAPE   O3214332   0.868   6.566  10.310  0.3048  0.4954  0.3617
  133SAPE   C3214333   0.867   6.761  10.162 -0.6917 -0.2195 -0.1055
  133SAPE   H2X14334   0.977   6.753  10.146 -0.7027  0.0603 -0.3235
  133SAPE   H2Y14335   0.840   6.862  10.201 -0.6557 -0.4919  0.6520
  133SAPE   C2314336   0.237   6.466  10.216  0.5507 -0.2092  0.0828
  133SAPE   H3R14337   0.216   6.550  10.146  1.6838 -1.0235 -1.2995
  133SAPE   H3S14338   0.165   6.466  10.300 -0.0417 -0.3918 -0.4160
  133SAPE   C2414339   0.231   6.337  10.126  0.8659 -0.1552  0.1458
  133SAPE   H4R14340   0.265   6.256  10.193 -1.6821 -0.2212  1.4881
  133SAPE   H4S14341   0.304   6.337  10.042  1.2350 -0.8879  0.4628
  133SAPE   C2514342   0.085   6.328  10.089  0.4630 -0.0154  0.1622
  133SAPE   H5R14343   0.013   6.314  10.170 -0.5232  1.9015 -0.3071
  133SAPE   C2614344   0.030   6.355   9.969 -0.6854 -0.3880 -0.7218
  133SAPE   H6R14345  -0.079   6.339   9.974 -0.8740  0.2749 -2.1191
  133SAPE   C2714346   0.103   6.399   9.846 -0.0657 -0.4393 -0.0345
  133SAPE   H7R14347   0.127   6.303   9.795 -2.1851 -1.1946  0.3032
  133SAPE   H7S14348   0.196   6.455   9.871 -0.7350  0.4133  0.5893
  133SAPE   C2814349   0.023   6.487   9.757  0.5973  0.1146  0.2891
  133SAPE   H8R14350  -0.032   6.561   9.817  0.4288  0.2899 -0.0782
  133SAPE   C2914351   0.021   6.490   9.622 -0.2192 -0.2851 -0.5472
  133SAPE   H9R14352  -0.052   6.540   9.557 -0.9195 -2.1235 -1.2200
  133SAPE  C21014353   0.100   6.396   9.536 -0.4405  0.1574  0.2223
  133SAPE  H10R14354   0.203   6.371   9.569 -0.6184  0.2811  0.8805
  133SAPE  H10S14355   0.108   6.451   9.440 -3.2789 -2.3006 -1.6176
  133SAPE  C21114356   0.015   6.272   9.509 -0.3369  0.2644  0.8305
  133SAPE  H11R14357   0.065   6.179   9.542 -2.2002 -0.6982  1.0763
  133SAPE  C21214358  -0.104   6.255   9.446  0.1773  0.1329 -0.7603
  133SAPE  H12R14359  -0.142   6.154   9.426 -1.4702  0.2070  1.6500
  133SAPE  C21314360  -0.192   6.366   9.390  0.2654  0.3679 -0.1409
  133SAPE  H13R14361  -0.134   6.446   9.340 -1.2325  0.4379 -1.8619
  133SAPE  H13S14362  -0.238   6.410   9.481  0.9761  2.4248 -0.7166
  133SAPE  C21414363  -0.288   6.309   9.289  0.3540 -0.1130  0.2721
  133SAPE  H14R14364  -0.257   6.225   9.226  0.8293 -1.0873  1.7619
  133SAPE  C21514365  -0.417   6.338   9.279  0.1803  0.0367 -0.5231
  133SAPE  H15R14366  -0.472   6.296   9.194  1.0129 -0.1278 -0.9884
  133SAPE  C21614367  -0.500   6.432   9.360 -0.1334  0.2045  0.0955
  133SAPE  H16R14368  -0.541   6.509   9.290  0.3545  0.1305 -0.2776
  133SAPE  H16S14369  -0.440   6.494   9.429 -0.4519  0.3961  0.2026
  133SAPE  C21714370  -0.618   6.369   9.433 -0.2153 -0.2337  0.0045
  133SAPE  H17R14371  -0.658   6.448   9.501  0.0056  1.4923 -1.7768
  133SAPE  H17S14372  -0.579   6.289   9.499 -0.2362 -0.5706 -0.3854
  133SAPE  C21814373  -0.733   6.310   9.337  0.1531 -0.1647  0.4386
  133SAPE  H18R14374  -0.697   6.221   9.280 -0.6154 -0.9663  1.1802
  133SAPE  H18S14375  -0.760   6.392   9.267  0.0669 -1.7490 -1.4782
  133SAPE  C21914376  -0.862   6.271   9.410  0.1936 -0.2979  0.3190
  133SAPE  H19R14377  -0.831   6.191   9.481  2.0948  0.6935  0.6793
  133SAPE  H19S14378  -0.925   6.223   9.331 -0.2761  0.1982  0.3861
  133SAPE  C22014379  -0.943   6.391   9.460 -0.6424  0.0487  0.8942
  133SAPE  H20R14380  -0.893   6.446   9.542  0.6266  0.8654 -0.3841
  133SAPE  H20S14381  -1.049   6.362   9.480 -1.0134  1.2507  0.7616
  133SAPE  H20T14382  -0.953   6.457   9.371 -0.6274 -0.9697  0.1166
  133SAPE   C3314383   0.785   6.725  10.034  0.2484  0.7990 -0.4452
  133SAPE   H3X14384   0.821   6.623  10.009  1.9030  1.6003 -1.4747
  133SAPE   H3Y14385   0.817   6.793   9.952  0.7533  0.4806 -0.5129
  133SAPE   C3414386   0.639   6.729  10.056 -0.1692 -0.2714  0.8683
  133SAPE   H4X14387   0.614   6.837  10.060 -0.1794 -0.2610  0.5456
  133SAPE   H4Y14388   0.611   6.693  10.158 -0.2306 -0.5117  0.7679
  133SAPE   C3514389   0.567   6.643   9.953 -0.4419 -0.0793 -0.6332
  133SAPE   H5X14390   0.460   6.634   9.984  0.4004  0.6670  2.8428
  133SAPE   H5Y14391   0.596   6.536   9.964  0.9679  0.4420  1.0645
  133SAPE   C3614392   0.587   6.698   9.809 -0.1495  0.2598 -0.2961
  133SAPE   H6X14393   0.696   6.694   9.785 -0.0371 -0.5431  0.3084
  133SAPE   H6Y14394   0.572   6.808   9.809  2.0574  0.6166  0.4721
  133SAPE   C3714395   0.496   6.637   9.702 -0.9080 -0.3052 -0.5551
  133SAPE   H7X14396   0.392   6.629   9.740 -1.3547  0.1942 -1.6263
  133SAPE   H7Y14397   0.538   6.538   9.675 -1.7234  0.0573 -3.4855
  133SAPE   C3814398   0.497   6.726   9.574 -0.1189  0.2931 -0.4850
  133SAPE   H8X14399   0.599   6.758   9.542  0.7399  2.5614  3.8948
  133SAPE   H8Y14400   0.434   6.813   9.600  0.5656  0.4938  0.5339
  133SAPE   C3914401   0.422   6.651   9.465  0.0356 -0.0441  0.6520
  133SAPE   H9X14402   0.392   6.727   9.389 -0.5931  0.4251  1.3477
  133SAPE   H9Y14403   0.319   6.621   9.496 -0.8096  0.1413 -1.7719
  133SAPE  C31014404   0.499   6.538   9.399  0.2361 -0.0947 -0.0472
  133SAPE  H10X14405   0.508   6.447   9.461 -3.7059  0.0957  1.0423
  133SAPE  H10Y14406   0.598   6.589   9.391  0.5198 -0.5275  0.6297
  133SAPE  C31114407   0.443   6.513   9.255 -0.1625  0.2317 -0.4046
  133SAPE  H11X14408   0.416   6.612   9.213 -0.4331 -0.3793 -1.7310
  133SAPE  H11Y14409   0.342   6.468   9.263  0.1598 -0.4305  0.1110
  133SAPE  C31214410   0.533   6.429   9.172  0.1829  0.1355  0.2772
  133SAPE  H12X14411   0.560   6.331   9.218 -2.1325 -0.9786 -0.5646
  133SAPE  H12Y14412   0.624   6.488   9.147 -0.3373  0.1292 -1.8030
  133SAPE  C31314413   0.466   6.388   9.037 -0.5521  0.8590 -0.3749
  133SAPE  H13X14414   0.408   6.475   9.000 -1.0521  0.2058 -1.1562
  133SAPE  H13Y14415   0.390   6.314   9.068  1.3236 -0.7206  0.6350
  133SAPE  C31414416   0.567   6.330   8.942 -0.1222  0.4251 -1.2064
  133SAPE  H14X14417   0.627   6.247   8.985 -0.6056  1.2136  1.1154
  133SAPE  H14Y14418   0.633   6.412   8.908  3.2931 -1.0662  1.3298
  133SAPE  C31514419   0.506   6.258   8.817  0.5510 -0.3134  0.1111
  133SAPE  H15X14420   0.434   6.327   8.768 -0.0009 -0.5107  0.6326
  133SAPE  H15Y14421   0.449   6.171   8.857  2.3148 -0.4408  2.5843
  133SAPE  C31614422   0.609   6.192   8.723  0.1807  0.9538 -0.6910
  133SAPE  H16X14423   0.556   6.120   8.658  0.5410 -0.1763  0.2458
  133SAPE  H16Y14424   0.683   6.134   8.782 -0.6264  0.1222 -0.4716
  133SAPE  C31714425   0.682   6.287   8.628  0.2189  0.5169 -0.5443
  133SAPE  H17X14426   0.762   6.332   8.691  1.0802 -1.5297 -0.0826
  133SAPE  H17Y14427   0.619   6.366   8.583 -3.6281 -0.7465  2.1321
  133SAPE  C31814428   0.748   6.196   8.522  0.1492  0.0622  0.2202
  133SAPE  H18X14429   0.796   6.103   8.559 -0.7857 -0.8552 -0.7970
  133SAPE  H18Y14430   0.818   6.257   8.461 -1.4885  0.9029 -0.8825
  133SAPE  H18Z14431   0.678   6.161   8.443 -0.4101  0.9723  0.2973
  134SAPE     N14432   3.942   0.359  11.152 -0.3818  0.9472 -0.7167
  134SAPE   HN114433   3.861   0.422  11.138 -1.9318 -0.6452  0.5456
  134SAPE   HN214434   3.928   0.261  11.120  0.2755 -1.0092  4.0717
  134SAPE   HN314435   3.949   0.350  11.256 -0.5817  0.2555 -0.7585
  134SAPE   C1214436   4.072   0.403  11.096 -0.0693 -0.0447 -0.1470
  134SAPE  H12A14437   4.155   0.341  11.137  0.2443 -0.9022 -1.9640
  134SAPE  H12B14438   4.085   0.505  11.139 -0.0962 -0.3570  0.6307
  134SAPE   C1114439   4.073   0.390  10.944 -0.1571  0.1833  0.2801
  134SAPE  H11A14440   4.059   0.283  10.921 -3.1856  0.5575 -0.1308
  134SAPE  H11B14441   4.174   0.425  10.915  0.0803 -0.8320 -0.1441
  134SAPE     P14442   3.993   0.618  10.847 -0.1567 -0.1245  0.6826
  134SAPE   O1314443   3.881   0.698  10.895 -0.0843 -0.0994  0.2771
  134SAPE   O1414444   4.128   0.660  10.870 -0.2257 -0.5858 -0.4711
  134SAPE   O1214445   3.968   0.466  10.879  0.1709 -0.0233 -0.0977
  134SAPE   O1114446   3.978   0.614  10.689  0.7148  0.2930 -0.7656
  134SAPE    C114447   3.862   0.580  10.620  0.8256  0.8134  0.7155
  134SAPE    HA14448   3.791   0.531  10.690  3.2181  0.5821  3.1404
  134SAPE    HB14449   3.817   0.673  10.578 -1.0966 -0.3686  0.0056
  134SAPE    C214450   3.892   0.491  10.499 -0.0553 -0.5715  0.3060
  134SAPE    HS14451   3.939   0.398  10.538 -1.4502 -1.9213 -1.1035
  134SAPE   O2114452   3.986   0.560  10.415  0.2030  0.0452  0.6831
  134SAPE   C2114453   4.111   0.546  10.426  0.1158 -0.0047  0.5039
  134SAPE   O2214454   4.160   0.472  10.511 -0.7140 -0.3009 -0.7901
  134SAPE   C2214455   4.183   0.621  10.310 -0.1941  0.1567 -0.5916
  134SAPE   H2R14456   4.118   0.665  10.232  0.1409  0.1457 -0.8770
  134SAPE   H2S14457   4.222   0.712  10.360 -0.4523 -0.4256  0.7012
  134SAPE    C314458   3.765   0.446  10.416 -0.1068  0.5912  0.3065
  134SAPE    HX14459   3.720   0.374  10.488  2.4845 -0.8781  0.6032
  134SAPE    HY14460   3.811   0.383  10.336 -1.1945 -1.5471  1.2694
  134SAPE   O3114461   3.686   0.555  10.364 -0.2784 -0.2017 -0.5613
  134SAPE   C3114462   3.566   0.504  10.315 -0.3245 -0.0362  0.2233
  134SAPE   O3214463   3.533   0.388  10.329  0.7837 -0.2712 -0.5540
  134SAPE   C3214464   3.493   0.613  10.242  0.0362  0.0843  0.4006
  134SAPE   H2X14465   3.565   0.682  10.193  1.3962 -0.6885  1.2242
  134SAPE   H2Y14466   3.434   0.671  10.316  1.5087  0.6338  1.1982
  134SAPE   C2314467   4.307   0.551  10.242  0.9866 -0.1440  0.0588
  134SAPE   H3R14468   4.268   0.460  10.193  1.5280 -0.2081 -0.2590
  134SAPE   H3S14469   4.378   0.506  10.315 -0.8688  0.6764  2.5499
  134SAPE   C2414470   4.379   0.658  10.152  0.0360  0.5483  0.5988
  134SAPE   H4R14471   4.478   0.620  10.120 -1.5356 -1.9540 -1.6778
  134SAPE   H4S14472   4.411   0.743  10.217  3.1319 -0.1534  0.1553
  134SAPE   C2514473   4.292   0.697  10.028 -0.4379 -0.0265 -0.0735
  134SAPE   H5R14474   4.193   0.736  10.055 -1.6598 -2.1400 -1.1972
  134SAPE   C2614475   4.321   0.693   9.896  0.1777  0.4573  0.4412
  134SAPE   H6R14476   4.255   0.734   9.819  0.0079  0.4332  0.5733
  134SAPE   C2714477   4.451   0.654   9.839  0.3244  0.3488  0.6683
  134SAPE   H7R14478   4.510   0.587   9.906 -0.4751  0.2261  1.2570
  134SAPE   H7S14479   4.511   0.739   9.800 -2.7093  2.2730 -0.0701
  134SAPE   C2814480   4.427   0.555   9.724  0.2994 -0.8031  0.5166
  134SAPE   H8R14481   4.412   0.453   9.762  1.2698 -1.3670 -0.5409
  134SAPE   C2914482   4.431   0.575   9.588 -0.2687  0.3599 -0.8696
  134SAPE   H9R14483   4.394   0.490   9.529  0.6234 -0.3440 -0.4326
  134SAPE  C21014484   4.449   0.704   9.513 -0.3967  0.0739  0.1870
  134SAPE  H10R14485   4.505   0.691   9.418 -1.3905  1.6588 -0.6598
  134SAPE  H10S14486   4.499   0.786   9.569 -0.8501  0.2901  0.2784
  134SAPE  C21114487   4.313   0.759   9.484 -0.5806 -0.2342 -0.1708
  134SAPE  H11R14488   4.249   0.772   9.572  0.7461  1.4843  0.5916
  134SAPE  C21214489   4.262   0.777   9.363 -0.1453  0.5997 -0.5761
  134SAPE  H12R14490   4.163   0.824   9.360 -1.5499 -2.2067 -0.9924
  134SAPE  C21314491   4.339   0.738   9.233 -0.2396 -0.5917  0.4704
  134SAPE  H13R14492   4.449   0.757   9.237  0.7045 -4.7366 -0.6456
  134SAPE  H13S14493   4.313   0.800   9.145  2.9320  0.5292  0.1991
  134SAPE  C21414494   4.322   0.592   9.211 -0.0938  0.4461  0.2949
  134SAPE  H14R14495   4.234   0.552   9.263 -0.4329  2.5071  1.4300
  134SAPE  C21514496   4.401   0.505   9.146  0.0568  0.3286 -1.0349
  134SAPE  H15R14497   4.374   0.399   9.154 -0.5364  0.5051 -0.7209
  134SAPE  C21614498   4.541   0.514   9.086  0.4844  0.2465 -0.2101
  134SAPE  H16R14499   4.618   0.450   9.134 -0.2068 -0.9122 -0.6027
  134SAPE  H16S14500   4.576   0.612   9.124 -0.0826 -0.4592  2.2945
  134SAPE  C21714501   4.521   0.481   8.935 -0.6265 -0.1454  0.5709
  134SAPE  H17R14502   4.447   0.400   8.916 -0.2279 -0.3279 -0.2422
  134SAPE  H17S14503   4.618   0.447   8.894 -1.0576 -1.6437  0.7186
  134SAPE  C21814504   4.471   0.614   8.874 -0.0042 -0.7357  0.0468
  134SAPE  H18R14505   4.553   0.690   8.875  0.9997 -1.7139 -1.9256
  134SAPE  H18S14506   4.394   0.671   8.931  0.7507  0.1032  0.2575
  134SAPE  C21914507   4.417   0.604   8.728 -0.3948 -0.7258 -0.4615
  134SAPE  H19R14508   4.369   0.504   8.717  1.3380 -1.7168  0.5093
  134SAPE  H19S14509   4.503   0.626   8.661 -0.7590 -1.2028 -1.0998
  134SAPE  C22014510   4.318   0.719   8.693  0.7119 -0.4951  0.4254
  134SAPE  H20R14511   4.303   0.729   8.583  0.4571 -1.5057  0.3634
  134SAPE  H20S14512   4.349   0.817   8.737  1.4629  0.7303 -2.5711
  134SAPE  H20T14513   4.221   0.692   8.739 -1.7016  2.5723 -2.3389
  134SAPE   C3314514   3.409   0.553  10.135 -0.2971 -0.8578 -0.2384
  134SAPE   H3X14515   3.339   0.633  10.105 -1.3992 -1.2364  1.2460
  134SAPE   H3Y14516   3.341   0.471  10.167 -0.5747  0.0457  1.5951
  134SAPE   C3414517   3.502   0.497  10.027  0.1694  0.0829  0.3190
  134SAPE   H4X14518   3.580   0.432  10.071  0.4821  0.8784  0.9567
  134SAPE   H4Y14519   3.557   0.579   9.976 -0.6604 -0.6587 -1.8934
  134SAPE   C3514520   3.431   0.403   9.919  0.2749 -0.1779  0.3680
  134SAPE   H5X14521   3.375   0.320   9.968 -0.4008  0.4112  0.6077
  134SAPE   H5Y14522   3.517   0.360   9.863  1.4859  1.7501  0.6561
  134SAPE   C3614523   3.331   0.471   9.813 -0.0154 -0.6495  0.1755
  134SAPE   H6X14524   3.381   0.555   9.759 -2.8534  1.3853  0.4589
  134SAPE   H6Y14525   3.249   0.519   9.870  1.0453 -0.0041  1.2177
  134SAPE   C3714526   3.272   0.377   9.711  0.0863  0.7217  0.2293
  134SAPE   H7X14527   3.216   0.299   9.767 -0.6693  1.2618  0.2446
  134SAPE   H7Y14528   3.352   0.334   9.647  0.2640  1.2968  0.0658
  134SAPE   C3814529   3.176   0.429   9.605 -0.1585 -0.3469 -0.1215
  134SAPE   H8X14530   3.227   0.494   9.530  0.8400  0.3567  1.1298
  134SAPE   H8Y14531   3.106   0.493   9.663  2.0195 -0.0540  2.4116
  134SAPE   C3914532   3.105   0.311   9.537 -0.4733  0.6760 -0.2511
  134SAPE   H9X14533   3.063   0.244   9.616  1.1972  0.2971  0.3437
  134SAPE   H9Y14534   3.176   0.243   9.487 -0.2961 -1.6484  2.8567
  134SAPE  C31014535   3.006   0.349   9.436  0.6965 -0.1592 -0.8051
  134SAPE  H10X14536   2.927   0.415   9.479 -2.4021 -4.0354  0.0955
  134SAPE  H10Y14537   2.965   0.252   9.401  2.2431 -1.2303  0.2305
  134SAPE  C31114538   3.060   0.431   9.320  0.2031 -0.9298  0.7718
  134SAPE  H11X14539   3.114   0.523   9.350  0.7662 -1.0811  0.2463
  134SAPE  H11Y14540   2.970   0.450   9.259  1.9082  0.0199 -1.6131
  134SAPE  C31214541   3.149   0.347   9.217  0.4584 -0.5967 -0.3422
  134SAPE  H12X14542   3.136   0.239   9.242  2.1824 -1.2004 -1.8249
  134SAPE  H12Y14543   3.252   0.384   9.237  0.0171  1.1606 -1.1329
  134SAPE  C31314544   3.114   0.373   9.073 -0.5405 -0.4604  0.0489
  134SAPE  H13X14545   3.004   0.365   9.063 -0.4746 -0.4706 -0.7403
  134SAPE  H13Y14546   3.165   0.299   9.008 -1.4149 -0.3897 -0.7363
  134SAPE  C31414547   3.164   0.512   9.022 -0.0416 -0.1779 -0.5056
  134SAPE  H14X14548   3.270   0.521   9.053 -0.2983  0.7659  0.1473
  134SAPE  H14Y14549   3.112   0.604   9.057 -0.0797 -0.6324  0.6638
  134SAPE  C31514550   3.161   0.528   8.868  0.3756 -0.2544 -0.1049
  134SAPE  H15X14551   3.220   0.449   8.818  0.1891  0.6352 -1.8105
  134SAPE  H15Y14552   3.213   0.624   8.847  1.0553 -0.3868  0.9148
  134SAPE  C31614553   3.015   0.530   8.816  0.1346  0.4984 -0.6439
  134SAPE  H16X14554   2.969   0.602   8.887  0.5196 -0.2201  0.3449
  134SAPE  H16Y14555   2.973   0.429   8.838  1.9322 -0.1155  0.1065
  134SAPE  C31714556   3.005   0.570   8.666 -0.4794  0.4104  0.6709
  134SAPE  H17X14557   3.085   0.516   8.610 -3.1763 -4.1661  0.7130
  134SAPE  H17Y14558   3.010   0.681   8.668  1.4439  0.3509  1.3592
  134SAPE  C31814559   2.872   0.531   8.597 -0.6742 -0.4804  0.0074
  134SAPE  H18X14560   2.854   0.422   8.599 -0.6066 -0.4885  0.3472
  134SAPE  H18Y14561   2.865   0.580   8.498 -0.4787 -0.1492  0.1535
  134SAPE  H18Z14562   2.792   0.568   8.666 -2.0645 -1.9150 -0.7862
  135SAPE     N14563   4.346   0.680  10.719  0.2858 -0.1867 -0.2783
  135SAPE   HN114564   4.293   0.729  10.645 -0.9625  0.2114  0.8397
  135SAPE   HN214565   4.394   0.591  10.696  1.4174  0.1487  0.6314
  135SAPE   HN314566   4.274   0.662  10.792 -2.5071  1.7601 -2.3610
  135SAPE   C1214567   4.444   0.777  10.769 -0.3998  0.1364  0.1308
  135SAPE  H12A14568   4.536   0.727  10.806 -0.9206 -0.5263  0.5447
  135SAPE  H12B14569   4.409   0.838  10.855 -0.9951  0.7280 -0.5279
  135SAPE   C1114570   4.490   0.874  10.657 -0.2928 -0.3906 -0.1898
  135SAPE  H11A14571   4.496   0.832  10.555 -1.8595 -0.2324 -0.3760
  135SAPE  H11B14572   4.593   0.908  10.678 -0.5341  0.2755 -0.0542
  135SAPE     P14573   4.290   1.012  10.564 -0.1832 -0.2825  0.0048
  135SAPE   O1314574   4.193   0.902  10.581  0.1887 -0.2205 -0.0822
  135SAPE   O1414575   4.246   1.148  10.580 -0.3641 -0.1251 -0.3455
  135SAPE   O1214576   4.409   0.992  10.656 -0.1695  0.2176  0.2752
  135SAPE   O1114577   4.357   0.996  10.417  0.2605  0.9123  0.6215
  135SAPE    C114578   4.424   1.114  10.363 -0.0763  0.4008 -1.1279
  135SAPE    HA14579   4.345   1.187  10.334 -0.5627  0.6881  0.7975
  135SAPE    HB14580   4.481   1.168  10.442 -0.6472 -2.0425  1.1156
  135SAPE    C214581   4.494   1.088  10.231  0.0831 -0.0504  0.5261
  135SAPE    HS14582   4.420   1.056  10.154  0.5960  0.0885 -0.0337
  135SAPE   O2114583   4.586   0.979  10.258 -0.3838 -0.0901  0.3169
  135SAPE   C2114584   4.647   0.928  10.151  0.2104  1.2144  0.1172
  135SAPE   O2214585   4.617   0.946  10.035 -0.4926 -0.4381  0.1985
  135SAPE   C2214586   4.742   0.815  10.200 -0.4154 -0.1441  0.3474
  135SAPE   H2R14587   4.684   0.721  10.190 -1.8116  0.7512 -0.3159
  135SAPE   H2S14588   4.828   0.804  10.130 -0.0258  1.9170  0.4323
  135SAPE    C314589   4.562   1.215  10.189  0.5495 -0.4106  0.1238
  135SAPE    HX14590   4.646   1.244  10.256  1.1364  3.2758 -1.9355
  135SAPE    HY14591   4.485   1.295  10.191 -1.2088 -1.8781 -2.4846
  135SAPE   O3114592   4.608   1.220  10.050  0.0052  0.1159 -0.5373
  135SAPE   C3114593   4.734   1.269  10.019 -0.7453 -0.3122 -0.1577
  135SAPE   O3214594   4.802   1.331  10.099  0.3569 -1.0072 -0.4027
  135SAPE   C3214595   4.773   1.233   9.885  0.2976  0.1544  0.4559
  135SAPE   H2X14596   4.852   1.155   9.887 -1.4368 -1.6804  0.0621
  135SAPE   H2Y14597   4.830   1.318   9.842 -2.5056  2.0906  0.3571
  135SAPE   C2314598   4.775   0.838  10.357  0.3547  0.7662 -0.1706
  135SAPE   H3R14599   4.686   0.805  10.414 -0.4368  1.0100 -1.2264
  135SAPE   H3S14600   4.792   0.942  10.392  0.5018  0.5184  0.4994
  135SAPE   C2414601   4.881   0.733  10.416  0.3159 -0.1362 -0.3229
  135SAPE   H4R14602   4.923   0.771  10.512 -2.3443  1.2338  0.3811
  135SAPE   H4S14603   4.972   0.744  10.353  1.3896 -1.5388  0.9068
  135SAPE   C2514604   4.827   0.587  10.419 -0.0318 -0.0727  0.2023
  135SAPE   H5R14605   4.720   0.565  10.427 -0.1015 -0.7801 -2.0435
  135SAPE   C2614606   4.898   0.481  10.406 -0.1376  0.2471  0.5937
  135SAPE   H6R14607   4.846   0.384  10.399 -2.0596  1.3564 -1.6915
  135SAPE   C2714608   5.052   0.464  10.389 -0.8787 -0.9001  1.0094
  135SAPE   H7R14609   5.088   0.427  10.487 -0.2689 -0.9322  0.7728
  135SAPE   H7S14610   5.096   0.566  10.383 -2.5324 -0.0673  2.1621
  135SAPE   C2814611   5.099   0.378  10.274  0.2971  0.4901  0.3495
  135SAPE   H8R14612   5.129   0.276  10.303  0.2595  0.6869  1.0914
  135SAPE   C2914613   5.086   0.411  10.145 -0.2422 -0.0035 -0.7442
  135SAPE   H9R14614   5.097   0.336  10.065  0.5139 -1.8098  0.9748
  135SAPE  C21014615   5.033   0.540  10.091  0.4893 -0.4757  0.5874
  135SAPE  H10R14616   5.120   0.587  10.040  2.0465  0.5333  3.8820
  135SAPE  H10S14617   5.010   0.608  10.176  0.6112 -0.6472  0.7599
  135SAPE  C21114618   4.906   0.528  10.003  0.1860 -0.6750  0.3894
  135SAPE  H11R14619   4.827   0.469  10.051 -1.1258  0.3493 -0.4533
  135SAPE  C21214620   4.871   0.579   9.887 -0.4962 -0.3457 -0.7989
  135SAPE  H12R14621   4.766   0.565   9.858 -0.2905  0.4732 -2.0559
  135SAPE  C21314622   4.952   0.678   9.811 -0.6491  0.8098 -0.2341
  135SAPE  H13R14623   4.977   0.638   9.711 -2.9680 -0.0408 -0.5168
  135SAPE  H13S14624   5.053   0.702   9.852 -1.1321 -1.7404  2.8383
  135SAPE  C21414625   4.862   0.797   9.792  0.2550 -0.1696  0.5017
  135SAPE  H14R14626   4.794   0.827   9.874 -2.1219 -1.2727 -0.9400
  135SAPE  C21514627   4.850   0.884   9.685 -0.2788  0.3807 -0.1383
  135SAPE  H15R14628   4.771   0.958   9.706 -0.1620  0.1175  1.3872
  135SAPE  C21614629   4.910   0.891   9.547 -0.2144  0.3494 -0.4152
  135SAPE  H16R14630   5.018   0.864   9.549 -0.8946 -2.6396  1.0093
  135SAPE  H16S14631   4.903   0.998   9.517 -1.0957  0.1149 -1.0931
  135SAPE  C21714632   4.840   0.801   9.453  0.1980 -0.1323  0.1595
  135SAPE  H17R14633   4.742   0.848   9.431  0.0874  0.1769  1.2453
  135SAPE  H17S14634   4.830   0.699   9.498 -0.2707 -0.1183  0.0937
  135SAPE  C21814635   4.927   0.795   9.324 -0.1312 -0.2627  0.1979
  135SAPE  H18R14636   5.031   0.773   9.358 -0.9602 -0.9940  2.4520
  135SAPE  H18S14637   4.922   0.891   9.270 -0.9693 -0.5579 -0.2685
  135SAPE  C21914638   4.879   0.683   9.232 -0.3047  0.2334  0.7919
  135SAPE  H19R14639   4.776   0.695   9.194  0.5377 -0.1500 -1.8624
  135SAPE  H19S14640   4.878   0.584   9.283  0.6605 -0.7934 -1.0522
  135SAPE  C22014641   4.971   0.653   9.116  0.6913  0.0911 -0.1339
  135SAPE  H20R14642   4.943   0.572   9.045 -0.8905  0.5358 -0.0498
  135SAPE  H20S14643   5.075   0.625   9.143  0.0771 -2.0934  0.1366
  135SAPE  H20T14644   4.990   0.750   9.063  0.4155 -0.1887 -0.7524
  135SAPE   C3314645   4.661   1.193   9.787  0.3150 -0.0511  0.6061
  135SAPE   H3X14646   4.566   1.248   9.805 -0.5168 -0.3751 -2.2562
  135SAPE   H3Y14647   4.630   1.087   9.799  0.5000 -0.1839 -0.0461
  135SAPE   C3414648   4.700   1.220   9.642  0.5518 -1.0218 -0.1358
  135SAPE   H4X14649   4.789   1.159   9.614  0.8344 -0.0931 -1.3303
  135SAPE   H4Y14650   4.726   1.326   9.618 -1.1778 -0.9602 -2.0185
  135SAPE   C3514651   4.589   1.171   9.552 -0.0722 -0.2188 -0.4293
  135SAPE   H5X14652   4.501   1.237   9.561  0.5786  0.5185  0.8829
  135SAPE   H5Y14653   4.554   1.071   9.587 -0.5561 -0.3539 -1.2803
  135SAPE   C3614654   4.619   1.153   9.403 -0.1655 -0.7081  0.2366
  135SAPE   H6X14655   4.708   1.089   9.388  1.1146  1.1095 -0.2566
  135SAPE   H6Y14656   4.645   1.248   9.352  1.0090 -1.2000 -0.1152
  135SAPE   C3714657   4.491   1.097   9.328  0.1011 -0.0120  0.4028
  135SAPE   H7X14658   4.401   1.163   9.328  1.5602  2.0910 -0.6754
  135SAPE   H7Y14659   4.468   0.997   9.372 -0.4938  0.2876  0.7904
  135SAPE   C3814660   4.527   1.049   9.190  0.0560  0.0263 -0.0234
  135SAPE   H8X14661   4.449   0.986   9.141 -1.8734  0.3448  2.4700
  135SAPE   H8Y14662   4.619   0.986   9.192  0.6567  0.8616 -0.7110
  135SAPE   C3914663   4.549   1.164   9.088  0.4429  1.1741 -0.0025
  135SAPE   H9X14664   4.639   1.224   9.113  1.0563 -0.1789  1.1404
  135SAPE   H9Y14665   4.456   1.225   9.082 -0.7756 -0.6474 -0.1152
  135SAPE  C31014666   4.578   1.106   8.948  0.1817 -0.5998 -0.3346
  135SAPE  H10X14667   4.493   1.038   8.927 -0.5700  0.0994  0.3956
  135SAPE  H10Y14668   4.673   1.050   8.932 -0.1146 -0.3368 -3.7073
  135SAPE  C31114669   4.572   1.214   8.836 -0.5377  0.1753  0.7285
  135SAPE  H11X14670   4.534   1.308   8.879 -0.5530 -0.2605  1.6905
  135SAPE  H11Y14671   4.480   1.200   8.774 -0.0080 -1.5570  0.2703
  135SAPE  C31214672   4.701   1.238   8.770  0.3032  0.4604 -0.3192
  135SAPE  H12X14673   4.774   1.272   8.846  2.2773 -0.8909 -1.5097
  135SAPE  H12Y14674   4.690   1.323   8.699  2.7237  3.6898  2.8652
  135SAPE  C31314675   4.772   1.121   8.698  0.3681 -0.1969  0.2072
  135SAPE  H13X14676   4.696   1.051   8.657  1.0901 -0.9188  0.0713
  135SAPE  H13Y14677   4.840   1.070   8.770  0.2904  1.5020  1.5430
  135SAPE  C31414678   4.851   1.175   8.585  0.2986 -0.3882  0.7336
  135SAPE  H14X14679   4.942   1.218   8.632  0.7899 -0.5181 -0.0778
  135SAPE  H14Y14680   4.803   1.253   8.523  2.0479  1.2495  1.3311
  135SAPE  C31514681   4.906   1.063   8.495 -0.7238 -0.0113  0.1067
  135SAPE  H15X14682   4.821   1.038   8.428 -2.8562  0.6476  2.4046
  135SAPE  H15Y14683   4.935   0.977   8.560 -1.0009 -0.5684 -0.4950
  135SAPE  C31614684   5.021   1.122   8.409  0.5909 -0.1503  0.4061
  135SAPE  H16X14685   5.092   1.182   8.470  0.6487  0.9925 -0.7524
  135SAPE  H16Y14686   4.982   1.197   8.336  1.6205 -0.7941 -0.8464
  135SAPE  C31714687   5.080   1.014   8.327  0.1526  0.6086 -0.4025
  135SAPE  H17X14688   4.997   0.956   8.280 -0.2722  0.7506  0.1502
  135SAPE  H17Y14689   5.134   0.936   8.385 -0.3099 -0.8232 -1.8326
  135SAPE  C31814690   5.179   1.053   8.221 -0.0203 -0.2907 -0.2519
  135SAPE  H18X14691   5.181   0.962   8.158 -1.8565 -0.2710 -0.3830
  135SAPE  H18Y14692   5.282   1.074   8.257  0.9346 -1.8347 -1.9346
  135SAPE  H18Z14693   5.135   1.141   8.170 -1.5949 -0.7727  0.2164
  136SAPE     N14694   6.177   5.799  10.790 -0.3510 -0.7155 -0.3283
  136SAPE   HN114695   6.126   5.718  10.749  1.7870 -2.4151  0.2070
  136SAPE   HN214696   6.186   5.883  10.729 -0.2090  1.4400  2.4762
  136SAPE   HN314697   6.274   5.765  10.803 -0.2770  0.0949  1.4660
  136SAPE   C1214698   6.110   5.842  10.918 -0.1485  0.3368  0.1921
  136SAPE  H12A14699   6.126   5.951  10.927  1.3530  0.1598 -0.0528
  136SAPE  H12B14700   6.174   5.800  10.999  2.9702  0.8726 -1.8098
  136SAPE   C1114701   5.970   5.794  10.932  0.8790 -0.4185 -0.1256
  136SAPE  H11A14702   5.892   5.869  10.908  0.9097 -0.2297  0.3707
  136SAPE  H11B14703   5.967   5.764  11.039 -0.5606 -1.4253 -0.4121
  136SAPE     P14704   5.812   5.625  10.808  0.0579 -0.1796  0.5200
  136SAPE   O1314705   5.813   5.487  10.747 -0.0831  0.2989 -0.7261
  136SAPE   O1414706   5.717   5.643  10.916 -0.1649  0.3638 -0.6676
  136SAPE   O1214707   5.951   5.667  10.866 -0.8629 -0.3665 -0.4179
  136SAPE   O1114708   5.788   5.725  10.691  0.4017 -0.4701  0.1808
  136SAPE    C114709   5.887   5.755  10.596  0.1505 -0.1817  0.2437
  136SAPE    HA14710   5.941   5.850  10.616  0.2029 -0.1227 -0.1649
  136SAPE    HB14711   5.976   5.687  10.599  1.1279  1.0298 -0.2649
  136SAPE    C214712   5.827   5.732  10.456 -0.7881 -0.0337 -0.1781
  136SAPE    HS14713   5.900   5.728  10.372 -3.1518 -0.6234 -2.2896
  136SAPE   O2114714   5.732   5.837  10.425 -0.4514 -0.1346 -0.5616
  136SAPE   C2114715   5.799   5.960  10.402  0.4639  0.9942 -0.6017
  136SAPE   O2214716   5.921   5.966  10.399 -0.2895 -0.6451  0.3597
  136SAPE   C2214717   5.699   6.073  10.373  1.0187 -0.2678 -0.0005
  136SAPE   H2R14718   5.640   6.024  10.293  0.3678  1.3537 -0.5326
  136SAPE   H2S14719   5.619   6.083  10.450  0.3575 -0.7100 -0.6239
  136SAPE    C314720   5.754   5.597  10.440 -0.5952 -0.1960 -0.4568
  136SAPE    HX14721   5.659   5.598  10.499 -0.5642  2.6237 -0.3308
  136SAPE    HY14722   5.833   5.530  10.481  1.0982  2.2242  0.5165
  136SAPE   O3114723   5.731   5.565  10.305  0.1035 -0.3477  0.0044
  136SAPE   C3114724   5.612   5.592  10.245 -0.8470  0.4676 -0.5834
  136SAPE   O3214725   5.509   5.627  10.299 -0.0424  0.4483 -0.4613
  136SAPE   C3214726   5.635   5.555  10.096  0.3876 -0.7407  0.6452
  136SAPE   H2X14727   5.644   5.445  10.083 -3.2537 -1.0541 -0.4177
  136SAPE   H2Y14728   5.729   5.599  10.057 -0.3526  0.7283  0.4112
  136SAPE   C2314729   5.765   6.207  10.329  0.3397 -0.2004  0.6412
  136SAPE   H3R14730   5.829   6.188  10.240  0.6649 -1.0028  1.0346
  136SAPE   H3S14731   5.835   6.245  10.406  1.5936 -0.8294 -0.1608
  136SAPE   C2414732   5.656   6.311  10.312 -0.2538 -0.4722  0.1827
  136SAPE   H4R14733   5.587   6.318  10.400 -3.2214  1.5441 -2.0936
  136SAPE   H4S14734   5.587   6.281  10.230 -2.2563 -0.5448  1.7915
  136SAPE   C2514735   5.720   6.448  10.301  0.2138 -0.1676  0.3472
  136SAPE   H5R14736   5.787   6.479  10.383 -0.0009  3.0916 -0.5484
  136SAPE   C2614737   5.721   6.535  10.194 -0.4690 -0.0595 -1.0351
  136SAPE   H6R14738   5.766   6.634  10.210  1.3649 -1.2486  2.0475
  136SAPE   C2714739   5.649   6.508  10.070  0.2779 -0.0459  0.0654
  136SAPE   H7R14740   5.541   6.531  10.082  0.7668  2.3876  0.1860
  136SAPE   H7S14741   5.650   6.398  10.056  1.6612  0.1123 -1.4575
  136SAPE   C2814742   5.710   6.581   9.943  0.3460  0.1945  0.2224
  136SAPE   H8R14743   5.808   6.626   9.964  0.4794 -0.6136  1.4772
  136SAPE   C2914744   5.656   6.587   9.824  1.0197  0.0209  0.0115
  136SAPE   H9R14745   5.709   6.639   9.743  0.4800 -1.6566 -1.4870
  136SAPE  C21014746   5.520   6.533   9.773 -0.5042  0.6665 -0.8164
  136SAPE  H10R14747   5.472   6.476   9.855  1.5947 -1.3998 -0.9340
  136SAPE  H10S14748   5.537   6.460   9.690  0.6427  1.6468 -1.4715
  136SAPE  C21114749   5.440   6.652   9.732  0.0654 -0.1321  0.0242
  136SAPE  H11R14750   5.459   6.741   9.793 -1.0420  0.7607 -0.8870
  136SAPE  C21214751   5.359   6.672   9.634 -0.4077  0.3291 -0.1586
  136SAPE  H12R14752   5.309   6.770   9.627 -1.1507 -0.0475 -0.1950
  136SAPE  C21314753   5.319   6.577   9.528  0.3031  0.2038  0.6904
  136SAPE  H13R14754   5.236   6.628   9.473  0.6742  0.1429  0.0558
  136SAPE  H13S14755   5.278   6.481   9.565 -0.0646 -0.0651 -0.3551
  136SAPE  C21414756   5.426   6.540   9.427  0.2713  0.3939 -0.4757
  136SAPE  H14R14757   5.530   6.568   9.445  0.2646  0.5687 -0.6925
  136SAPE  C21514758   5.409   6.490   9.305 -0.5819 -0.4622 -0.1953
  136SAPE  H15R14759   5.500   6.469   9.247  0.1380 -1.1217  1.1250
  136SAPE  C21614760   5.281   6.460   9.232  0.1656 -0.0078 -0.4840
  136SAPE  H16R14761   5.192   6.483   9.294 -1.3310 -1.6189 -1.9200
  136SAPE  H16S14762   5.274   6.353   9.201 -0.1162 -0.5205  1.2441
  136SAPE  C21714763   5.256   6.534   9.095  0.1614  0.5866 -0.4906
  136SAPE  H17R14764   5.258   6.644   9.110 -0.8672  0.4593  0.6944
  136SAPE  H17S14765   5.158   6.494   9.060  0.3564 -0.6123  0.2954
  136SAPE  C21814766   5.361   6.500   8.989  0.2958  0.1455 -0.4274
  136SAPE  H18R14767   5.354   6.390   8.977  1.1984 -0.0343  0.4624
  136SAPE  H18S14768   5.468   6.520   9.012 -0.0226  1.3734  0.0574
  136SAPE  C21914769   5.340   6.576   8.855 -0.0885  0.2628  0.0793
  136SAPE  H19R14770   5.348   6.686   8.872  0.2744  0.0655  1.2676
  136SAPE  H19S14771   5.239   6.556   8.815  0.0764  0.0664 -0.2480
  136SAPE  C22014772   5.447   6.530   8.754 -0.0204  0.4117  0.2232
  136SAPE  H20R14773   5.429   6.566   8.651  0.4094 -0.6984 -0.2587
  136SAPE  H20S14774   5.456   6.419   8.755  0.5266  0.4283 -1.0912
  136SAPE  H20T14775   5.541   6.570   8.797 -0.6042 -0.1762  2.1571
  136SAPE   C3314776   5.512   5.609  10.017 -0.5306 -0.2385 -0.2884
  136SAPE   H3X14777   5.490   5.713  10.050  2.0032  0.3407 -0.2404
  136SAPE   H3Y14778   5.423   5.550  10.049 -0.4342  0.4296  1.3047
  136SAPE   C3414779   5.531   5.608   9.869 -0.2633  0.3082  0.5529
  136SAPE   H4X14780   5.542   5.506   9.827 -0.5391  1.0369 -1.3931
  136SAPE   H4Y14781   5.632   5.644   9.839 -1.6620  1.2375 -3.8813
  136SAPE   C3514782   5.422   5.679   9.793  0.4442 -0.2175  0.2970
  136SAPE   H5X14783   5.393   5.778   9.835 -2.6902  0.5198 -3.0614
  136SAPE   H5Y14784   5.327   5.625   9.816  0.3084  0.3132  1.0069
  136SAPE   C3614785   5.463   5.700   9.649  0.1315  0.3788 -0.4898
  136SAPE   H6X14786   5.501   5.599   9.620 -0.4817  0.7749 -2.9382
  136SAPE   H6Y14787   5.548   5.771   9.640 -0.5846  1.5350  1.3243
  136SAPE   C3714788   5.354   5.728   9.551 -1.2724 -0.0797 -0.3289
  136SAPE   H7X14789   5.327   5.835   9.562  2.8112  0.9323  1.6225
  136SAPE   H7Y14790   5.272   5.659   9.583 -0.3335 -1.8107 -1.4890
  136SAPE   C3814791   5.394   5.696   9.402 -0.2485 -0.5504 -0.3621
  136SAPE   H8X14792   5.429   5.590   9.408 -0.3179 -0.5513  0.1150
  136SAPE   H8Y14793   5.479   5.762   9.374 -1.5589  1.8617  1.0692
  136SAPE   C3914794   5.296   5.728   9.289  0.4387 -0.2103 -0.6354
  136SAPE   H9X14795   5.279   5.838   9.293  0.5259 -0.2438  1.6343
  136SAPE   H9Y14796   5.203   5.679   9.324  0.5155  0.9609  1.3696
  136SAPE  C31014797   5.355   5.706   9.155 -0.0800 -0.2322 -0.2262
  136SAPE  H10X14798   5.383   5.599   9.158  0.7992 -0.0022  0.0661
  136SAPE  H10Y14799   5.448   5.766   9.143  0.8973 -1.7107 -0.2983
  136SAPE  C31114800   5.253   5.732   9.046 -0.0373  0.1820 -0.5615
  136SAPE  H11X14801   5.232   5.840   9.037  0.0820  0.5051  2.3114
  136SAPE  H11Y14802   5.158   5.681   9.076  1.8162 -1.1237  3.9406
  136SAPE  C31214803   5.299   5.666   8.918 -0.7192  0.7354  1.0194
  136SAPE  H12X14804   5.323   5.560   8.936 -0.8114  0.5623  0.1714
  136SAPE  H12Y14805   5.399   5.705   8.890 -0.5896  1.0614  1.8976
  136SAPE  C31314806   5.197   5.688   8.806 -0.2900  0.0934 -0.1981
  136SAPE  H13X14807   5.189   5.796   8.779 -1.6666  0.1205  0.2345
  136SAPE  H13Y14808   5.100   5.667   8.855 -0.4117  1.1281  0.0373
  136SAPE  C31414809   5.209   5.597   8.680  0.6521  0.1984 -0.3066
  136SAPE  H14X14810   5.183   5.493   8.708 -0.6641  1.1327  2.3553
  136SAPE  H14Y14811   5.311   5.598   8.635 -0.1049  1.4312 -2.1139
  136SAPE  C31514812   5.114   5.650   8.567 -0.4534  0.2101  0.4013
  136SAPE  H15X14813   5.132   5.759   8.555 -1.6159  0.3769  0.0478
  136SAPE  H15Y14814   5.010   5.633   8.600 -1.1265  0.8868 -1.2648
  136SAPE  C31614815   5.124   5.574   8.436 -0.7039  0.2336 -0.1206
  136SAPE  H16X14816   5.058   5.485   8.428 -0.7981  0.2401  0.4684
  136SAPE  H16Y14817   5.226   5.536   8.416 -0.8609 -0.1256 -0.2429
  136SAPE  C31714818   5.089   5.687   8.333  0.5903  0.1141  0.4823
  136SAPE  H17X14819   5.114   5.634   8.239  0.0010  1.6353 -0.5740
  136SAPE  H17Y14820   5.145   5.783   8.336  0.6840  0.0597  0.4780
  136SAPE  C31814821   4.939   5.717   8.320 -0.3732  0.7268 -0.2542
  136SAPE  H18X14822   4.921   5.762   8.221  0.9166  2.0741  0.0834
  136SAPE  H18Y14823   4.909   5.785   8.403 -1.0688 -2.4158  2.2775
  136SAPE  H18Z14824   4.877   5.625   8.326 -0.9605  1.1984  1.6836
  137SAPE     N14825   3.176   0.713  10.883  0.0707 -0.1775 -0.1479
  137SAPE   HN114826   3.120   0.723  10.796 -0.3097  1.7410  0.2716
  137SAPE   HN214827   3.192   0.811  10.913  0.4499 -0.5067  0.7745
  137SAPE   HN314828   3.264   0.660  10.867 -1.0940 -1.6974 -1.8785
  137SAPE   C1214829   3.079   0.640  10.974 -0.4107 -0.0239  0.1315
  137SAPE  H12A14830   3.080   0.683  11.076  1.2765 -2.1400  1.0860
  137SAPE  H12B14831   3.124   0.539  10.985  1.2179  0.5382 -0.9990
  137SAPE   C1114832   2.945   0.636  10.904  0.2535 -0.7375  0.5619
  137SAPE  H11A14833   2.876   0.572  10.963  0.3549 -0.4917  0.9525
  137SAPE  H11B14834   2.956   0.607  10.797  0.9711  1.7868 -0.1184
  137SAPE     P14835   2.760   0.825  10.860  0.0737  0.1206  0.5987
  137SAPE   O1314836   2.656   0.733  10.918  0.5398  0.6452  0.2801
  137SAPE   O1414837   2.754   0.970  10.896  0.2958  0.1638 -0.0819
  137SAPE   O1214838   2.907   0.777  10.898  0.2987 -0.5082  0.0821
  137SAPE   O1114839   2.758   0.796  10.702 -0.0988 -0.7803 -0.0672
  137SAPE    C114840   2.843   0.861  10.611  0.5455  0.0740  0.7177
  137SAPE    HA14841   2.799   0.961  10.591 -0.7252 -0.0389  2.6708
  137SAPE    HB14842   2.947   0.872  10.648  0.5728  2.2820  0.1251
  137SAPE    C214843   2.846   0.778  10.478  0.5055  0.9870  0.2412
  137SAPE    HS14844   2.950   0.792  10.443  0.7543 -0.1976  0.4660
  137SAPE   O2114845   2.756   0.830  10.380 -0.5197  0.4135 -0.1894
  137SAPE   C2114846   2.795   0.939  10.316 -0.6023  0.1070  0.0291
  137SAPE   O2214847   2.908   0.982  10.323 -0.4794  0.5167 -0.3498
  137SAPE   C2214848   2.684   0.987  10.230  0.1213  0.2559 -0.4678
  137SAPE   H2R14849   2.662   0.896  10.171  1.2925 -1.8675  2.1767
  137SAPE   H2S14850   2.601   1.019  10.296  0.2358 -3.2678  1.6152
  137SAPE    C314851   2.821   0.621  10.490 -0.4609  0.2643  0.7692
  137SAPE    HX14852   2.716   0.609  10.524 -1.2218  1.2383 -1.1171
  137SAPE    HY14853   2.893   0.581  10.565  0.9027  0.9223 -0.1550
  137SAPE   O3114854   2.830   0.550  10.366 -0.3852  0.4068 -0.3238
  137SAPE   C3114855   2.958   0.547  10.310  0.4062  0.0497 -0.4784
  137SAPE   O3214856   3.063   0.571  10.366  0.3270 -0.4499 -0.0090
  137SAPE   C3214857   2.956   0.506  10.165 -0.3864  0.2742  0.0413
  137SAPE   H2X14858   2.906   0.408  10.179  2.1300 -1.0253  0.4507
  137SAPE   H2Y14859   3.064   0.486  10.148  0.5406  1.1404  3.9601
  137SAPE   C2314860   2.724   1.090  10.129  0.8690 -0.1055 -0.8060
  137SAPE   H3R14861   2.814   1.054  10.074  1.9044  0.4266  0.4646
  137SAPE   H3S14862   2.757   1.193  10.157  0.2163 -0.1430  0.1480
  137SAPE   C2414863   2.602   1.100  10.032  0.2008 -0.1776  0.3218
  137SAPE   H4R14864   2.509   1.088  10.092  0.1968 -2.0912 -0.0200
  137SAPE   H4S14865   2.617   1.009   9.971  1.7497  1.1316 -1.3549
  137SAPE   C2514866   2.599   1.224   9.943 -0.2522 -1.0436 -0.3888
  137SAPE   H5R14867   2.636   1.316   9.990  2.6991 -2.2548 -0.0875
  137SAPE   C2614868   2.562   1.242   9.811 -0.2308 -0.7268 -0.5587
  137SAPE   H6R14869   2.544   1.342   9.769 -3.9397 -0.9744  0.0723
  137SAPE   C2714870   2.523   1.131   9.718  0.3547  0.1361  0.3303
  137SAPE   H7R14871   2.572   1.034   9.743  2.0954  0.2049 -2.3590
  137SAPE   H7S14872   2.558   1.153   9.615  2.5310 -1.8719  0.5709
  137SAPE   C2814873   2.374   1.118   9.737 -0.2577 -0.7948  0.3146
  137SAPE   H8R14874   2.345   1.126   9.843  2.6499 -0.5550  1.1691
  137SAPE   C2914875   2.283   1.103   9.640  0.6877  0.1310 -0.8693
  137SAPE   H9R14876   2.179   1.126   9.666  0.5622 -1.7142  0.4453
  137SAPE  C21014877   2.318   1.102   9.493 -0.1435 -0.1106 -0.5246
  137SAPE  H10R14878   2.269   1.011   9.454  0.3614 -0.5230 -0.2054
  137SAPE  H10S14879   2.428   1.099   9.480 -0.1326  2.0889 -1.3868
  137SAPE  C21114880   2.270   1.233   9.427 -0.8159 -0.3865 -0.3759
  137SAPE  H11R14881   2.277   1.330   9.477  0.0365  0.0627 -1.3328
  137SAPE  C21214882   2.225   1.237   9.298 -0.0381  0.2169 -0.5649
  137SAPE  H12R14883   2.219   1.338   9.254  2.1247  1.6949  2.2124
  137SAPE  C21314884   2.206   1.117   9.207 -0.5397 -0.5208  0.6681
  137SAPE  H13R14885   2.136   1.147   9.126 -0.3110 -1.6892  0.0174
  137SAPE  H13S14886   2.161   1.033   9.264 -1.3464 -0.4534  0.1402
  137SAPE  C21414887   2.342   1.083   9.147  0.5185  0.0078 -0.1662
  137SAPE  H14R14888   2.435   1.106   9.201  2.1921  0.2610 -3.0012
  137SAPE  C21514889   2.356   1.033   9.019 -0.0026  0.5693 -0.8869
  137SAPE  H15R14890   2.453   1.004   8.976  0.2285  3.1679 -2.3254
  137SAPE  C21614891   2.248   0.998   8.924  0.3197  0.4662  0.3786
  137SAPE  H16R14892   2.155   0.967   8.976  0.2346  0.0986  0.0119
  137SAPE  H16S14893   2.290   0.923   8.855  2.1741  3.6597 -2.2745
  137SAPE  C21714894   2.197   1.111   8.826  0.3293 -0.3884 -0.2975
  137SAPE  H17R14895   2.129   1.176   8.886  1.0668 -0.8917  1.1359
  137SAPE  H17S14896   2.132   1.056   8.755 -1.3733 -0.4642  1.2630
  137SAPE  C21814897   2.312   1.178   8.744  0.5650 -0.1844  0.0205
  137SAPE  H18R14898   2.347   1.102   8.671  0.7904  0.4997 -0.5897
  137SAPE  H18S14899   2.396   1.203   8.812  0.7449 -0.5832 -0.0509
  137SAPE  C21914900   2.264   1.302   8.674 -0.0711  0.6048  0.9103
  137SAPE  H19R14901   2.165   1.282   8.627  1.2674  0.3198 -1.9709
  137SAPE  H19S14902   2.335   1.338   8.597  0.4992  0.9134  1.5629
  137SAPE  C22014903   2.256   1.422   8.763 -0.5612 -0.3150  0.1590
  137SAPE  H20R14904   2.200   1.413   8.859 -0.6559  0.8456  0.2240
  137SAPE  H20S14905   2.181   1.489   8.717 -0.4903 -0.4840 -0.2056
  137SAPE  H20T14906   2.352   1.476   8.771 -0.8024  0.2358 -0.5250
  137SAPE   C3314907   2.902   0.606  10.061  0.2989  0.4885  0.2027
  137SAPE   H3X14908   2.947   0.707  10.075 -0.8836  0.8348  1.9627
  137SAPE   H3Y14909   2.792   0.626  10.061  0.3171  1.3647 -3.5939
  137SAPE   C3414910   2.920   0.552   9.925  0.6413  0.0706 -0.2530
  137SAPE   H4X14911   2.889   0.446   9.916 -1.9081  0.8747 -1.8973
  137SAPE   H4Y14912   3.024   0.565   9.887 -0.3332 -0.2719 -3.2615
  137SAPE   C3514913   2.832   0.628   9.815 -0.4719  0.1053  0.7757
  137SAPE   H5X14914   2.728   0.627   9.855 -0.5607  0.8543  0.5821
  137SAPE   H5Y14915   2.830   0.564   9.725  0.2764  1.9997 -0.6435
  137SAPE   C3614916   2.863   0.776   9.786 -0.2120 -0.0870  0.2901
  137SAPE   H6X14917   2.965   0.786   9.743 -0.0743 -0.2675  0.5652
  137SAPE   H6Y14918   2.859   0.837   9.879 -1.0578  2.9194 -1.5943
  137SAPE   C3714919   2.765   0.842   9.683  0.3195 -0.3669 -1.0696
  137SAPE   H7X14920   2.788   0.951   9.679 -2.8912  0.4860  0.2480
  137SAPE   H7Y14921   2.661   0.835   9.720  0.3159 -0.6673 -1.1411
  137SAPE   C3814922   2.782   0.797   9.537  0.7631  0.2267  0.1904
  137SAPE   H8X14923   2.776   0.688   9.521 -1.2200  0.2220  0.7847
  137SAPE   H8Y14924   2.886   0.818   9.501  1.9504 -0.4058  3.0012
  137SAPE   C3914925   2.675   0.864   9.458  0.8124 -0.0050 -0.4832
  137SAPE   H9X14926   2.676   0.972   9.482 -2.7584 -0.0082  0.2769
  137SAPE   H9Y14927   2.573   0.835   9.491  0.0057  2.0253 -1.0567
  137SAPE  C31014928   2.674   0.827   9.313 -0.1228 -0.0051 -0.6196
  137SAPE  H10X14929   2.583   0.857   9.257 -1.7578  0.3847  2.0285
  137SAPE  H10Y14930   2.690   0.718   9.298  1.1100 -0.2990  2.0774
  137SAPE  C31114931   2.783   0.903   9.240  0.5688 -0.1543  1.1985
  137SAPE  H11X14932   2.881   0.855   9.258  1.0531  0.7802  1.0596
  137SAPE  H11Y14933   2.778   1.009   9.273  1.5988 -0.3122  1.9217
  137SAPE  C31214934   2.752   0.903   9.087 -0.0931 -0.2428 -0.2296
  137SAPE  H12X14935   2.838   0.943   9.029 -0.7824  1.0770 -0.3858
  137SAPE  H12Y14936   2.665   0.965   9.056 -0.0307  0.7723  1.4850
  137SAPE  C31314937   2.731   0.762   9.035 -0.2403 -0.4104 -0.0941
  137SAPE  H13X14938   2.628   0.730   9.061 -0.9761  1.5897 -0.3667
  137SAPE  H13Y14939   2.802   0.690   9.081 -0.4877 -0.6851 -0.1316
  137SAPE  C31414940   2.739   0.754   8.884  0.5205  0.4272  0.5746
  137SAPE  H14X14941   2.731   0.645   8.860  0.1263  0.1047  2.0933
  137SAPE  H14Y14942   2.845   0.788   8.873 -0.1465  2.6644  0.5759
  137SAPE  C31514943   2.650   0.841   8.805  0.4394 -0.6173  0.6314
  137SAPE  H15X14944   2.680   0.945   8.828  3.0868 -1.4397  1.3083
  137SAPE  H15Y14945   2.545   0.812   8.826 -0.3760  0.4350 -1.6786
  137SAPE  C31614946   2.669   0.825   8.643 -0.0832 -0.2168  0.0095
  137SAPE  H16X14947   2.635   0.721   8.620  0.9578 -0.1344 -2.1401
  137SAPE  H16Y14948   2.779   0.835   8.627  0.0156 -1.9347 -0.6467
  137SAPE  C31714949   2.585   0.928   8.565  0.0844 -0.4978 -0.2347
  137SAPE  H17X14950   2.611   1.036   8.568 -0.2779 -0.3146 -2.2717
  137SAPE  H17Y14951   2.478   0.920   8.595  0.1081  3.6909  1.7861
  137SAPE  C31814952   2.596   0.891   8.417  0.0761  0.0528  0.1130
  137SAPE  H18X14953   2.699   0.906   8.379  0.1237  1.5327  0.7643
  137SAPE  H18Y14954   2.544   0.967   8.356  1.5162  1.8057  0.9630
  137SAPE  H18Z14955   2.563   0.788   8.394  0.6391  0.1401 -1.1385
  138SAPE     N14956   0.588   4.025  10.850  0.2266 -1.1837  0.5244
  138SAPE   HN114957   0.522   4.070  10.917  0.5045  2.0022 -1.1829
  138SAPE   HN214958   0.542   3.992  10.763  2.0739 -1.3061 -0.4573
  138SAPE   HN314959   0.650   3.961  10.904  2.3797  1.9054  2.0273
  138SAPE   C1214960   0.661   4.140  10.795  0.1564  0.3458  0.0704
  138SAPE  H12A14961   0.698   4.193  10.885  1.7595 -0.3308 -0.1541
  138SAPE  H12B14962   0.591   4.200  10.732  0.6619  2.0544  1.0773
  138SAPE   C1114963   0.792   4.094  10.724  0.8091 -0.6421 -0.0453
  138SAPE  H11A14964   0.823   4.173  10.653 -1.8196 -0.5021 -1.1339
  138SAPE  H11B14965   0.777   3.995  10.675 -0.3556  0.3217 -1.6968
  138SAPE     P14966   1.010   4.177  10.861  0.0713 -0.3202 -0.0707
  138SAPE   O1314967   0.953   4.287  10.935  0.6485 -0.5991  0.0467
  138SAPE   O1414968   1.129   4.108  10.920  0.2444  0.0063  0.0127
  138SAPE   O1214969   0.895   4.077  10.830  0.6574 -0.1783  0.3447
  138SAPE   O1114970   1.067   4.234  10.724 -0.0922  0.3183  0.4560
  138SAPE    C114971   1.048   4.371  10.690  0.1164  0.5484 -0.2438
  138SAPE    HA14972   0.948   4.403  10.728 -0.4242 -0.5238 -0.7306
  138SAPE    HB14973   1.133   4.430  10.730  1.9720 -2.2987  0.2906
  138SAPE    C214974   1.040   4.405  10.538  0.0636  0.2295 -0.3363
  138SAPE    HS14975   1.028   4.515  10.527 -1.3315  0.2375  1.0081
  138SAPE   O2114976   0.923   4.342  10.485  0.7346  0.5837  0.1108
  138SAPE   C2114977   0.811   4.422  10.483  0.4590 -0.4579 -0.2737
  138SAPE   O2214978   0.814   4.540  10.516 -0.0982 -0.0767  0.4996
  138SAPE   C2214979   0.686   4.348  10.445  0.9866  0.5388  0.4765
  138SAPE   H2R14980   0.630   4.314  10.535  1.7897  0.6088  1.0116
  138SAPE   H2S14981   0.613   4.420  10.402  1.1663  1.4039  1.5891
  138SAPE    C314982   1.169   4.370  10.458 -0.0286 -0.1141  0.1525
  138SAPE    HX14983   1.155   4.261  10.438 -2.2032 -0.3112  2.2322
  138SAPE    HY14984   1.260   4.390  10.519  0.4184  2.3077 -1.1980
  138SAPE   O3114985   1.174   4.447  10.333  0.1832  0.1214 -0.0617
  138SAPE   C3114986   1.206   4.568  10.329 -0.7128 -0.8185 -0.7943
  138SAPE   O3214987   1.245   4.634  10.429  0.3708 -0.1993  0.4549
  138SAPE   C3214988   1.187   4.629  10.187 -0.4372  0.5512 -0.5725
  138SAPE   H2X14989   1.230   4.732  10.191  1.2336 -0.0895  4.3386
  138SAPE   H2Y14990   1.077   4.634  10.179 -0.6306  1.7285  1.9850
  138SAPE   C2314991   0.723   4.219  10.357 -0.1958 -0.6856 -0.5838
  138SAPE   H3R14992   0.778   4.161  10.434  0.0628  2.2660  1.6681
  138SAPE   H3S14993   0.801   4.247  10.283  0.0064  0.7417  0.1306
  138SAPE   C2414994   0.601   4.145  10.297 -0.0413 -0.2405 -0.5815
  138SAPE   H4R14995   0.528   4.136  10.380  1.9296 -1.0073  1.1573
  138SAPE   H4S14996   0.625   4.038  10.277  0.7542 -0.4791  1.4553
  138SAPE   C2514997   0.548   4.208  10.173  0.4376 -0.4092  0.1588
  138SAPE   H5R14998   0.454   4.265  10.184  1.4365  1.0976  1.2879
  138SAPE   C2614999   0.587   4.171  10.053 -0.3560 -0.2448 -0.4289
  138SAPE   H6R15000   0.541   4.224   9.969  1.9525  2.7038  0.0084
  138SAPE   C2715001   0.697   4.066  10.033  0.1928  0.3757  0.1219
  138SAPE   H7R15002   0.761   4.053  10.123  1.3800  1.9063 -0.4803
  138SAPE   H7S15003   0.773   4.106   9.963  0.4901  1.9580  1.2954
  138SAPE   C2815004   0.653   3.930   9.986  0.4962 -0.3156 -0.2088
  138SAPE   H8R15005   0.651   3.856  10.068  0.7613  0.3456  0.4010
  138SAPE   C2915006   0.637   3.890   9.864 -0.0360 -0.7733  0.5260
  138SAPE   H9R15007   0.600   3.788   9.846 -2.2710  0.3680 -2.1716
  138SAPE  C21015008   0.653   3.986   9.744 -0.1897  0.2436  0.6332
  138SAPE  H10R15009   0.706   4.082   9.760  0.5624 -0.0402 -0.0666
  138SAPE  H10S15010   0.556   4.000   9.692  0.1682  0.2197 -0.0474
  138SAPE  C21115011   0.742   3.898   9.658 -0.1129 -0.6017  0.5272
  138SAPE  H11R15012   0.836   3.867   9.705 -0.4351 -0.2554  1.4154
  138SAPE  C21215013   0.722   3.844   9.533  0.6339 -0.3242 -0.3291
  138SAPE  H12R15014   0.805   3.788   9.488  0.1816 -1.5330  0.2988
  138SAPE  C21315015   0.598   3.867   9.450 -0.5907 -0.7930  0.1215
  138SAPE  H13R15016   0.540   3.953   9.489  0.4502  1.2038 -2.4545
  138SAPE  H13S15017   0.536   3.775   9.448 -1.8550  0.0418 -0.0308
  138SAPE  C21415018   0.647   3.907   9.310 -0.0967 -0.1138 -0.2722
  138SAPE  H14R15019   0.690   4.007   9.295 -1.2236  0.4435  0.0858
  138SAPE  C21515020   0.634   3.833   9.198  0.8138 -0.1321  0.2975
  138SAPE  H15R15021   0.653   3.893   9.108 -0.6298  1.9719  1.3069
  138SAPE  C21615022   0.551   3.707   9.182  0.6936  0.4499 -0.6585
  138SAPE  H16R15023   0.445   3.737   9.167  0.3102  0.4767  1.7868
  138SAPE  H16S15024   0.557   3.639   9.269  1.2059 -2.9357 -3.1550
  138SAPE  C21715025   0.611   3.610   9.073 -0.3496  0.5523 -0.3124
  138SAPE  H17R15026   0.576   3.508   9.100  1.4308  0.2734  1.1508
  138SAPE  H17S15027   0.722   3.607   9.081 -0.3057  3.7321  2.6099
  138SAPE  C21815028   0.576   3.654   8.923 -0.0621 -0.1566 -0.0366
  138SAPE  H18R15029   0.617   3.575   8.856 -2.5498 -0.6583 -1.0862
  138SAPE  H18S15030   0.615   3.757   8.904  1.2178 -0.1393  2.2308
  138SAPE  C21915031   0.428   3.651   8.906  0.0851 -0.0311 -0.4969
  138SAPE  H19R15032   0.381   3.730   8.968  0.0835  0.8512 -1.5932
  138SAPE  H19S15033   0.394   3.554   8.948 -1.3505  1.2169  1.4177
  138SAPE  C22015034   0.374   3.676   8.762 -0.4277 -0.0219  0.3680
  138SAPE  H20R15035   0.418   3.773   8.730 -0.3442 -0.0048  0.5343
  138SAPE  H20S15036   0.263   3.669   8.757 -0.3393 -0.6420 -2.8928
  138SAPE  H20T15037   0.406   3.591   8.699  1.1097  0.2539  0.7279
  138SAPE   C3315038   1.258   4.550  10.076 -0.7192 -0.2568  0.3835
  138SAPE   H3X15039   1.237   4.442  10.091  1.1441 -0.5813  0.9647
  138SAPE   H3Y15040   1.368   4.569  10.084 -0.3700 -1.1832 -1.5077
  138SAPE   C3415041   1.231   4.598   9.940 -0.6527  0.3983 -0.6546
  138SAPE   H4X15042   1.256   4.704   9.919  1.2510  0.0932 -0.1262
  138SAPE   H4Y15043   1.120   4.587   9.932 -0.5350 -0.1904 -1.7413
  138SAPE   C3515044   1.290   4.504   9.834 -0.0894  0.5035  0.6513
  138SAPE   H5X15045   1.245   4.403   9.831 -2.1997  1.4060 -0.0395
  138SAPE   H5Y15046   1.397   4.490   9.863  0.0271 -2.2248 -0.8269
  138SAPE   C3615047   1.288   4.550   9.688 -0.2498  0.2081 -0.2679
  138SAPE   H6X15048   1.344   4.644   9.667 -0.5365  0.4552  0.0663
  138SAPE   H6Y15049   1.180   4.558   9.663 -0.8241  1.0076  2.1842
  138SAPE   C3715050   1.357   4.442   9.601 -0.7221  0.4478  0.1283
  138SAPE   H7X15051   1.311   4.342   9.618  1.9857 -0.8484  0.3636
  138SAPE   H7Y15052   1.459   4.432   9.645  1.0498  1.9163 -3.2732
  138SAPE   C3815053   1.375   4.464   9.451  0.3913 -0.0304  0.8107
  138SAPE   H8X15054   1.438   4.379   9.416 -1.4651 -1.1866  0.1344
  138SAPE   H8Y15055   1.421   4.563   9.434 -2.6203  1.3389  0.0494
  138SAPE   C3915056   1.249   4.478   9.370  0.7525  0.5519  0.3134
  138SAPE   H9X15057   1.179   4.541   9.430  1.9738 -0.6504  3.2139
  138SAPE   H9Y15058   1.198   4.379   9.371  0.2944  0.7743  1.6064
  138SAPE  C31015059   1.269   4.526   9.228  0.0783 -0.2190  0.7220
  138SAPE  H10X15060   1.351   4.480   9.169  0.8527 -0.5693  2.0301
  138SAPE  H10Y15061   1.288   4.636   9.232 -1.7411  0.1177  1.1808
  138SAPE  C31115062   1.148   4.499   9.138 -0.4294  0.3396  0.8450
  138SAPE  H11X15063   1.064   4.552   9.187 -0.1622 -1.4770  3.4763
  138SAPE  H11Y15064   1.133   4.389   9.132 -1.8808  0.5817 -1.3929
  138SAPE  C31215065   1.156   4.554   8.995  0.0386  0.1540 -0.2864
  138SAPE  H12X15066   1.066   4.515   8.942  0.5417 -0.4945 -0.6714
  138SAPE  H12Y15067   1.251   4.519   8.950  1.0115  1.1140  0.9739
  138SAPE  C31315068   1.139   4.701   8.986 -0.6131 -0.3661  0.5775
  138SAPE  H13X15069   1.155   4.734   8.882 -0.5380 -3.4740 -0.5011
  138SAPE  H13Y15070   1.213   4.751   9.053 -3.5110  2.5139  1.9032
  138SAPE  C31415071   0.995   4.751   9.016 -0.0831 -0.0486  0.3209
  138SAPE  H14X15072   0.978   4.737   9.125 -0.0748  0.2533  0.3633
  138SAPE  H14Y15073   0.918   4.691   8.962 -2.8397  1.0819  2.6902
  138SAPE  C31515074   0.977   4.901   8.984  0.4400 -0.0927  0.1316
  138SAPE  H15X15075   1.022   4.924   8.885 -1.4056 -0.4993 -0.8516
  138SAPE  H15Y15076   1.036   4.962   9.056  0.3183  0.6142 -0.3476
  138SAPE  C31615077   0.831   4.937   8.972  0.2080 -0.4896  0.0109
  138SAPE  H16X15078   0.779   4.908   9.066 -0.2888  2.3535  0.6996
  138SAPE  H16Y15079   0.770   4.893   8.890 -2.6735  1.4575  0.9267
  138SAPE  C31715080   0.798   5.088   8.957 -0.3026 -0.4459 -0.2071
  138SAPE  H17X15081   0.840   5.153   9.037  0.9313  0.0621 -1.2179
  138SAPE  H17Y15082   0.688   5.101   8.947 -0.2118 -1.3672 -3.8337
  138SAPE  C31815083   0.849   5.140   8.828 -0.3566  0.2253 -0.5964
  138SAPE  H18X15084   0.826   5.072   8.744  2.9123 -0.0547 -1.3980
  138SAPE  H18Y15085   0.959   5.153   8.840 -0.1611 -2.3357  1.1912
  138SAPE  H18Z15086   0.814   5.243   8.802 -0.4810  0.3533  0.0692
  139SAPE     N15087   6.129   2.960  11.083 -0.5432  0.3023  0.0337
  139SAPE   HN115088   6.061   2.888  11.052 -0.9111  0.5775  0.1921
  139SAPE   HN215089   6.106   3.022  11.163 -0.1002  1.7986 -0.9548
  139SAPE   HN315090   6.133   3.029  11.005  0.4579  0.3118  0.0886
  139SAPE   C1215091   6.266   2.901  11.092 -0.8493  0.1248  0.3632
  139SAPE  H12A15092   6.260   2.814  11.162 -1.1095 -0.3120 -0.1989
  139SAPE  H12B15093   6.336   2.977  11.132 -0.9846  0.1499  0.5573
  139SAPE   C1115094   6.308   2.853  10.955  0.2311  0.4349 -0.1029
  139SAPE  H11A15095   6.404   2.798  10.960 -1.1351 -1.9049  2.8189
  139SAPE  H11B15096   6.323   2.944  10.892  1.1709 -0.0918 -0.6796
  139SAPE     P15097   6.227   2.623  10.848 -0.1596 -0.2428 -0.2432
  139SAPE   O1315098   6.324   2.561  10.940 -0.0893 -0.2523  0.2596
  139SAPE   O1415099   6.089   2.564  10.846 -0.3454 -0.1244  0.0775
  139SAPE   O1215100   6.208   2.775  10.880  0.0028  0.0114  0.4257
  139SAPE   O1115101   6.295   2.614  10.700  0.2451 -0.4273 -0.4387
  139SAPE    C115102   6.258   2.719  10.598  0.2757 -0.1467  0.4202
  139SAPE    HA15103   6.162   2.769  10.624 -0.0914 -0.1280 -0.9044
  139SAPE    HB15104   6.336   2.795  10.580  1.1399 -1.2587 -0.7619
  139SAPE    C215105   6.232   2.650  10.461 -0.4897 -0.7676 -0.3203
  139SAPE    HS15106   6.206   2.727  10.385  2.2664 -1.8780 -2.5624
  139SAPE   O2115107   6.130   2.550  10.475 -0.4495 -0.2000  0.1539
  139SAPE   C2115108   6.009   2.602  10.458  0.0220 -1.1331  0.2201
  139SAPE   O2215109   5.989   2.724  10.440 -0.5143 -0.2489 -0.1003
  139SAPE   C2215110   5.891   2.508  10.452 -0.1864 -0.0523  0.0780
  139SAPE   H2R15111   5.923   2.403  10.468 -0.9281 -0.4243 -0.7750
  139SAPE   H2S15112   5.817   2.550  10.524 -1.1947  0.7715 -1.3873
  139SAPE    C315113   6.364   2.577  10.409  0.1751 -0.1303 -0.4094
  139SAPE    HX15114   6.383   2.491  10.477  0.0851 -0.5320 -0.8912
  139SAPE    HY15115   6.453   2.642  10.425  0.9095 -1.2841  0.3314
  139SAPE   O3115116   6.351   2.530  10.267 -0.1819 -0.1093  0.2364
  139SAPE   C3115117   6.355   2.630  10.180  0.0983  0.1011  0.3889
  139SAPE   O3215118   6.386   2.742  10.204 -0.1412 -0.1782  0.2648
  139SAPE   C3215119   6.314   2.583  10.049  0.1747  0.9519  0.1006
  139SAPE   H2X15120   6.204   2.563  10.053  0.4683 -0.9025 -0.2220
  139SAPE   H2Y15121   6.362   2.487  10.024  0.6572  1.1587  0.2301
  139SAPE   C2315122   5.833   2.490  10.307 -0.3962  0.1485 -0.6315
  139SAPE   H3R15123   5.912   2.509  10.231  0.3002  1.2099  0.3241
  139SAPE   H3S15124   5.768   2.578  10.292  0.4064  0.8337 -0.1887
  139SAPE   C2415125   5.751   2.360  10.292  0.8042 -0.6276 -0.2795
  139SAPE   H4R15126   5.804   2.279  10.347  4.0750  1.5194  0.0314
  139SAPE   H4S15127   5.751   2.347  10.181  3.1629  0.4734 -0.4765
  139SAPE   C2515128   5.613   2.388  10.350 -0.8444 -0.4463 -0.4180
  139SAPE   H5R15129   5.616   2.408  10.458 -3.4458 -0.4315 -0.2857
  139SAPE   C2615130   5.494   2.389  10.299  1.0997  0.5655  0.0988
  139SAPE   H6R15131   5.411   2.408  10.368  2.6282  1.4623  1.7561
  139SAPE   C2715132   5.463   2.363  10.153 -0.7193 -0.2193 -0.0200
  139SAPE   H7R15133   5.557   2.363  10.094  0.1315 -1.6997  1.2420
  139SAPE   H7S15134   5.406   2.445  10.105 -0.8330 -0.0137  0.4583
  139SAPE   C2815135   5.392   2.228  10.136  1.2156 -0.1848 -0.2896
  139SAPE   H8R15136   5.366   2.160  10.218 -0.0582 -3.8392 -3.3909
  139SAPE   C2915137   5.364   2.171  10.019 -0.1905  0.0616 -0.3971
  139SAPE   H9R15138   5.320   2.070  10.025  0.2216 -0.1925 -1.4537
  139SAPE  C21015139   5.396   2.214   9.880  0.1335  0.2397  0.6914
  139SAPE  H10R15140   5.386   2.133   9.805  3.1499  0.9009 -0.5791
  139SAPE  H10S15141   5.505   2.240   9.884  0.0227  0.7387  0.6153
  139SAPE  C21115142   5.325   2.336   9.832  0.9750  0.2302  0.0529
  139SAPE  H11R15143   5.295   2.410   9.908 -0.4020  0.3984 -0.6217
  139SAPE  C21215144   5.292   2.374   9.708  0.2409  0.0344  0.0399
  139SAPE  H12R15145   5.232   2.466   9.694  0.5481  0.2133 -0.1139
  139SAPE  C21315146   5.323   2.303   9.582 -0.1153  0.2293 -0.2294
  139SAPE  H13R15147   5.238   2.296   9.511  0.6538  1.3404 -1.2939
  139SAPE  H13S15148   5.354   2.197   9.596 -0.1075  0.3443  0.6969
  139SAPE  C21415149   5.430   2.383   9.510 -0.1548  0.2028  0.3707
  139SAPE  H14R15150   5.526   2.389   9.564 -0.8495  0.2047  1.6577
  139SAPE  C21515151   5.419   2.444   9.394  0.1062  0.2733  0.6155
  139SAPE  H15R15152   5.507   2.496   9.352  0.3371 -0.3400  0.3280
  139SAPE  C21615153   5.295   2.447   9.309  0.2400 -0.2610 -0.0082
  139SAPE  H16R15154   5.249   2.547   9.322 -1.4819 -1.0019 -0.2139
  139SAPE  H16S15155   5.220   2.373   9.345  2.1524 -0.8256  3.1950
  139SAPE  C21715156   5.313   2.412   9.157  0.7205  0.1393 -0.4217
  139SAPE  H17R15157   5.385   2.482   9.109  1.8273 -0.1899  0.7244
  139SAPE  H17S15158   5.214   2.419   9.107  0.2789  2.2120  0.6418
  139SAPE  C21815159   5.368   2.279   9.128  0.6176 -0.2463 -0.0539
  139SAPE  H18R15160   5.300   2.201   9.169 -0.8391  0.0566 -1.7446
  139SAPE  H18S15161   5.470   2.271   9.171  0.8238 -2.0748 -0.7579
  139SAPE  C21915162   5.380   2.257   8.972  0.1860 -0.1752 -0.2996
  139SAPE  H19R15163   5.417   2.347   8.919 -1.8549  1.0802  0.3124
  139SAPE  H19S15164   5.277   2.248   8.932 -0.1661  0.7401  0.3698
  139SAPE  C22015165   5.458   2.131   8.935 -0.6528 -0.0991  0.6063
  139SAPE  H20R15166   5.468   2.123   8.825 -1.1166  1.0042  0.4733
  139SAPE  H20S15167   5.402   2.046   8.981 -1.6393 -0.3975 -1.0748
  139SAPE  H20T15168   5.561   2.137   8.975  0.3677  1.4313 -2.0319
  139SAPE   C3315169   6.337   2.689   9.939  0.4244 -0.1879 -0.9642
  139SAPE   H3X15170   6.432   2.745   9.948 -0.0044  0.8222 -2.4021
  139SAPE   H3Y15171   6.254   2.762   9.953 -1.1707 -1.6764 -2.1828
  139SAPE   C3415172   6.332   2.621   9.798 -0.8403 -0.4675  0.0585
  139SAPE   H4X15173   6.329   2.705   9.725 -2.2816 -0.2232  0.3662
  139SAPE   H4Y15174   6.233   2.573   9.792 -0.4667 -1.2188 -0.1564
  139SAPE   C3515175   6.461   2.534   9.778  0.1482  0.0797 -0.0348
  139SAPE   H5X15176   6.453   2.450   9.850 -0.0895  2.1976  2.5502
  139SAPE   H5Y15177   6.552   2.592   9.801  0.1081  1.2812 -2.5781
  139SAPE   C3615178   6.467   2.464   9.643  0.1568 -0.4737 -0.2637
  139SAPE   H6X15179   6.475   2.538   9.561  0.8492 -0.0969  0.1413
  139SAPE   H6Y15180   6.378   2.402   9.618  0.3249 -0.3372 -1.2720
  139SAPE   C3715181   6.591   2.375   9.630 -0.0628  0.0016  0.0365
  139SAPE   H7X15182   6.587   2.287   9.697  2.5147  0.0291  0.3375
  139SAPE   H7Y15183   6.680   2.436   9.655  0.4349 -1.1220  1.0718
  139SAPE   C3815184   6.628   2.328   9.489 -0.2417  0.5583 -0.4694
  139SAPE   H8X15185   6.733   2.346   9.457  0.0217 -1.0540 -0.5862
  139SAPE   H8Y15186   6.572   2.393   9.419 -0.4200 -0.1185 -0.9664
  139SAPE   C3915187   6.587   2.188   9.449 -0.0884  0.8562  0.0350
  139SAPE   H9X15188   6.480   2.180   9.479  0.0215 -0.3635  0.1291
  139SAPE   H9Y15189   6.632   2.110   9.513  0.7124  1.5115  0.2961
  139SAPE  C31015190   6.602   2.155   9.295 -0.5181  0.7579  0.1529
  139SAPE  H10X15191   6.708   2.177   9.271  0.3912 -2.7811  0.2892
  139SAPE  H10Y15192   6.541   2.223   9.232  0.5093  0.9051 -0.7008
  139SAPE  C31115193   6.559   2.014   9.261  0.5512  0.5694  0.0316
  139SAPE  H11X15194   6.449   2.007   9.274  0.9978 -2.1383  4.0930
  139SAPE  H11Y15195   6.599   1.954   9.345  0.0124 -1.0233 -0.7944
  139SAPE  C31215196   6.615   1.967   9.125 -0.7523  0.0246 -0.4131
  139SAPE  H12X15197   6.722   1.998   9.124 -0.5337 -0.6362  0.7270
  139SAPE  H12Y15198   6.564   2.019   9.042 -0.7065 -2.0379 -1.7962
  139SAPE  C31315199   6.621   1.814   9.104  0.5019  0.5236  0.3549
  139SAPE  H13X15200   6.517   1.775   9.098  0.4356  0.7222  0.2305
  139SAPE  H13Y15201   6.661   1.772   9.199 -0.7624  2.7997  2.0049
  139SAPE  C31415202   6.714   1.759   8.987  0.0301 -0.5285  0.1344
  139SAPE  H14X15203   6.818   1.791   9.007  0.8914 -1.3548 -2.6636
  139SAPE  H14Y15204   6.685   1.818   8.898  0.5601 -1.6061 -0.7639
  139SAPE  C31515205   6.722   1.605   8.966 -0.1956  0.0268  0.6067
  139SAPE  H15X15206   6.764   1.554   9.056 -0.4019 -0.2780  0.5333
  139SAPE  H15Y15207   6.785   1.594   8.875 -2.4052 -1.1941 -0.8682
  139SAPE  C31615208   6.585   1.528   8.943 -0.0760  1.0251  0.4397
  139SAPE  H16X15209   6.524   1.539   9.036  0.0235  0.5719  0.5586
  139SAPE  H16Y15210   6.525   1.578   8.864  0.1030  2.1579  0.9931
  139SAPE  C31715211   6.608   1.376   8.922 -0.1205 -0.1444 -0.4155
  139SAPE  H17X15212   6.510   1.323   8.921  0.0289 -0.5247  1.3625
  139SAPE  H17Y15213   6.659   1.342   9.015  2.0547  1.8397 -0.8002
  139SAPE  C31815214   6.693   1.329   8.799 -0.1629  0.1286 -0.2530
  139SAPE  H18X15215   6.710   1.219   8.798  0.9094  0.2887 -0.3616
  139SAPE  H18Y15216   6.796   1.368   8.812  0.5052 -1.8072  0.7459
  139SAPE  H18Z15217   6.641   1.350   8.703  1.0161 -0.5821 -1.0611
  140SAPE     N15218   3.268   5.448  11.103 -0.0901  0.3049  0.3169
  140SAPE   HN115219   3.320   5.379  11.160  0.1437 -0.3975 -0.7073
  140SAPE   HN215220   3.179   5.403  11.075  0.9297 -1.6770  0.0669
  140SAPE   HN315221   3.311   5.467  11.010  3.0561 -0.4601  1.5036
  140SAPE   C1215222   3.238   5.585  11.174  1.0319  0.4443  0.5948
  140SAPE  H12A15223   3.276   5.575  11.277  1.2950 -2.5707  0.3001
  140SAPE  H12B15224   3.129   5.604  11.164  1.3217  1.5761 -0.8013
  140SAPE   C1115225   3.311   5.700  11.102 -0.0574  0.0082 -0.4898
  140SAPE  H11A15226   3.418   5.677  11.085  0.8891  2.8333  0.9871
  140SAPE  H11B15227   3.305   5.788  11.169 -2.1271  0.1760 -0.8404
  140SAPE     P15228   3.140   5.839  10.960 -0.4811 -0.2154  0.1441
  140SAPE   O1315229   3.020   5.798  11.036  0.3730 -0.1764  0.1452
  140SAPE   O1415230   3.198   5.972  10.982 -0.2959 -0.1151  0.1943
  140SAPE   O1215231   3.248   5.730  10.980 -0.0943 -0.4090  0.4723
  140SAPE   O1115232   3.113   5.822  10.800 -0.5970 -0.4749 -0.2743
  140SAPE    C115233   3.034   5.718  10.756  0.4127 -0.6559  0.5142
  140SAPE    HA15234   2.975   5.667  10.835  2.4916 -2.2395  1.1372
  140SAPE    HB15235   2.966   5.755  10.676  1.5428  2.8687  0.9975
  140SAPE    C215236   3.126   5.602  10.695  0.4751  0.3850 -0.1792
  140SAPE    HS15237   3.193   5.554  10.769 -0.0708 -1.0782 -0.5861
  140SAPE   O2115238   3.209   5.661  10.592 -1.0786  0.4389  0.1067
  140SAPE   C2115239   3.281   5.568  10.521  0.2311 -0.0946 -0.4017
  140SAPE   O2215240   3.316   5.465  10.571  0.2464  0.2609  0.1696
  140SAPE   C2215241   3.317   5.624  10.386  0.2932  0.5242  1.1182
  140SAPE   H2R15242   3.265   5.721  10.371  0.3358  0.6960  2.0356
  140SAPE   H2S15243   3.425   5.649  10.379  0.3463  0.0508 -0.1268
  140SAPE    C315244   3.024   5.492  10.627  0.3136  0.0857  0.4751
  140SAPE    HX15245   2.950   5.473  10.708 -0.5475  1.5983  0.0841
  140SAPE    HY15246   3.085   5.402  10.608  0.1825  0.1470 -0.3036
  140SAPE   O3115247   2.957   5.538  10.506  0.2732 -0.0330  0.2149
  140SAPE   C3115248   2.853   5.460  10.463  0.5771  0.0473 -0.7351
  140SAPE   O3215249   2.798   5.371  10.526 -0.7545 -0.0874 -0.0567
  140SAPE   C3215250   2.815   5.508  10.315  0.1576 -0.2869  0.1854
  140SAPE   H2X15251   2.791   5.616  10.325  3.3416  0.4969  0.6267
  140SAPE   H2Y15252   2.732   5.441  10.284  0.8971 -1.2129  0.1391
  140SAPE   C2315253   3.297   5.525  10.269  0.6630 -0.0692 -0.3946
  140SAPE   H3R15254   3.279   5.588  10.179 -0.7429 -0.0466 -0.1209
  140SAPE   H3S15255   3.210   5.458  10.281 -0.7612  1.9012  0.9113
  140SAPE   C2415256   3.422   5.447  10.238 -0.1543  0.4078 -0.3595
  140SAPE   H4R15257   3.440   5.376  10.321 -0.9044 -1.4867 -1.7561
  140SAPE   H4S15258   3.510   5.515  10.233  3.1712 -3.6431 -3.3837
  140SAPE   C2515259   3.413   5.358  10.114 -0.4472 -0.6148  0.5837
  140SAPE   H5R15260   3.385   5.253  10.132  0.3394 -0.6846  1.4782
  140SAPE   C2615261   3.421   5.405   9.985 -0.4758  0.1333 -0.2755
  140SAPE   H6R15262   3.430   5.336   9.900  1.5617  2.3791 -2.0427
  140SAPE   C2715263   3.443   5.549   9.937  0.3453 -0.2553  1.2075
  140SAPE   H7R15264   3.507   5.602  10.011  2.2594  0.6055 -0.9523
  140SAPE   H7S15265   3.346   5.602   9.940  0.8295  0.6354  1.5914
  140SAPE   C2815266   3.517   5.567   9.809  0.6321 -0.3779 -0.7255
  140SAPE   H8R15267   3.617   5.609   9.826  1.1600 -1.2938 -1.4306
  140SAPE   C2915268   3.479   5.529   9.686  0.2498 -0.0773 -0.0185
  140SAPE   H9R15269   3.543   5.560   9.601  0.5610 -1.6019 -0.3608
  140SAPE  C21015270   3.352   5.456   9.647  0.0904  0.0720  0.3835
  140SAPE  H10R15271   3.324   5.392   9.733  1.0036  0.4285  0.9637
  140SAPE  H10S15272   3.376   5.387   9.563  0.9202 -0.0808  0.7372
  140SAPE  C21115273   3.241   5.550   9.620 -0.1551 -0.1397 -0.0825
  140SAPE  H11R15274   3.170   5.564   9.702 -1.5611 -1.5543 -1.0038
  140SAPE  C21215275   3.217   5.610   9.500 -0.2734  0.2454  0.4642
  140SAPE  H12R15276   3.141   5.690   9.496 -3.2642 -2.4068  0.2354
  140SAPE  C21315277   3.300   5.591   9.374  0.2290  0.4053 -0.1101
  140SAPE  H13R15278   3.404   5.554   9.385  1.0907  2.1420 -1.9552
  140SAPE  H13S15279   3.319   5.684   9.318  1.5665 -1.2467 -2.5941
  140SAPE  C21415280   3.221   5.502   9.274 -0.1129  0.8389 -0.2455
  140SAPE  H14R15281   3.151   5.425   9.310  1.0231 -0.7504 -1.3265
  140SAPE  C21515282   3.219   5.512   9.138  0.3755  0.6530 -0.8082
  140SAPE  H15R15283   3.166   5.436   9.080  2.0946 -0.3075 -1.2044
  140SAPE  C21615284   3.297   5.604   9.056 -0.4171 -0.0755 -0.0612
  140SAPE  H16R15285   3.403   5.574   9.071 -0.3506 -0.5245 -1.3209
  140SAPE  H16S15286   3.284   5.710   9.085 -1.8097 -0.6912  1.7244
  140SAPE  C21715287   3.260   5.600   8.908 -0.3386 -0.5847 -0.1067
  140SAPE  H17R15288   3.289   5.703   8.878  2.2063 -1.0943  0.3658
  140SAPE  H17S15289   3.149   5.599   8.898 -0.1678  0.3385 -3.1357
  140SAPE  C21815290   3.327   5.491   8.824 -0.3326 -0.5104 -0.4151
  140SAPE  H18R15291   3.285   5.390   8.845 -1.2151 -0.4607 -1.7970
  140SAPE  H18S15292   3.437   5.485   8.838 -0.2300 -1.0291 -1.3553
  140SAPE  C21915293   3.298   5.515   8.678 -0.3525 -0.4346 -0.0008
  140SAPE  H19R15294   3.327   5.619   8.650 -2.3839  0.3908  0.7545
  140SAPE  H19S15295   3.191   5.505   8.649 -0.6943 -0.9456  1.3587
  140SAPE  C22015296   3.372   5.425   8.581 -0.1595  0.9063 -0.0306
  140SAPE  H20R15297   3.483   5.434   8.574 -0.2108  0.2868 -3.0745
  140SAPE  H20S15298   3.339   5.448   8.477 -0.2698  0.4548 -0.0977
  140SAPE  H20T15299   3.348   5.318   8.601 -2.5008  1.3884 -0.0702
  140SAPE   C3315300   2.934   5.498  10.219 -0.6169 -0.3614 -0.1103
  140SAPE   H3X15301   2.972   5.395  10.204 -0.3173 -0.0622 -1.6007
  140SAPE   H3Y15302   3.023   5.557  10.249 -0.7410 -0.5748  0.7099
  140SAPE   C3415303   2.910   5.544  10.069 -0.2164  0.0746  0.1456
  140SAPE   H4X15304   3.002   5.524  10.010 -0.0275 -2.3005  1.1412
  140SAPE   H4Y15305   2.887   5.653  10.062  0.0819  0.2892  1.8857
  140SAPE   C3515306   2.795   5.477   9.997  0.0444  0.1800 -0.5542
  140SAPE   H5X15307   2.710   5.484  10.068  1.5089  0.8508  1.1950
  140SAPE   H5Y15308   2.822   5.370   9.983 -1.1330 -0.0440 -1.2767
  140SAPE   C3615309   2.745   5.545   9.867 -0.4711 -0.5573 -0.1199
  140SAPE   H6X15310   2.772   5.652   9.873  1.7798 -1.1417  0.9247
  140SAPE   H6Y15311   2.634   5.537   9.856 -0.4014 -0.5164 -0.9223
  140SAPE   C3715312   2.815   5.476   9.747  0.3539  0.4356 -0.2270
  140SAPE   H7X15313   2.801   5.367   9.757 -0.3673  0.5841  0.5610
  140SAPE   H7Y15314   2.926   5.485   9.743  0.5293 -1.7517 -1.2202
  140SAPE   C3815315   2.765   5.508   9.608 -0.0957 -0.1914  0.5782
  140SAPE   H8X15316   2.779   5.617   9.592  1.5285 -0.4447  0.0487
  140SAPE   H8Y15317   2.657   5.482   9.618  0.2293 -1.2395  1.4678
  140SAPE   C3915318   2.832   5.437   9.496  0.2334  0.4155 -0.5913
  140SAPE   H9X15319   2.842   5.330   9.522 -0.9086  0.5629  0.5763
  140SAPE   H9Y15320   2.936   5.472   9.481  1.4309 -2.1284  1.2092
  140SAPE  C31015321   2.760   5.455   9.366  0.8667 -0.0160 -0.5554
  140SAPE  H10X15322   2.771   5.564   9.345  0.7165 -0.0725 -0.9305
  140SAPE  H10Y15323   2.652   5.433   9.379  1.1149 -0.0548  1.9251
  140SAPE  C31115324   2.829   5.369   9.261  0.2705 -0.1933 -0.4821
  140SAPE  H11X15325   2.825   5.261   9.288 -0.3323  0.3548  1.8161
  140SAPE  H11Y15326   2.938   5.389   9.265  0.4509 -1.3339  1.4178
  140SAPE  C31215327   2.756   5.384   9.126 -0.8634  0.6525  0.2709
  140SAPE  H12X15328   2.645   5.376   9.124 -0.7645 -1.1393 -1.2149
  140SAPE  H12Y15329   2.796   5.311   9.053  1.4703  0.0714  2.0203
  140SAPE  C31315330   2.794   5.512   9.043  0.1615  0.1957 -0.4593
  140SAPE  H13X15331   2.905   5.521   9.034  0.5528 -2.0947  1.1634
  140SAPE  H13Y15332   2.756   5.597   9.104 -3.9464 -0.6514 -1.5708
  140SAPE  C31415333   2.733   5.511   8.900 -0.2230  0.0874 -0.1221
  140SAPE  H14X15334   2.627   5.534   8.923 -0.3029  0.1096 -0.5037
  140SAPE  H14Y15335   2.740   5.408   8.858 -0.6862 -1.2706  2.8798
  140SAPE  C31515336   2.798   5.611   8.803 -0.5032 -0.2916  0.1164
  140SAPE  H15X15337   2.904   5.595   8.773 -0.3943  0.8146 -0.1177
  140SAPE  H15Y15338   2.781   5.716   8.833 -3.5524 -0.2827 -1.2537
  140SAPE  C31615339   2.712   5.603   8.666  0.2223 -0.5052 -0.1448
  140SAPE  H16X15340   2.608   5.620   8.701  0.2362  1.2586 -0.8293
  140SAPE  H16Y15341   2.731   5.505   8.620  1.7133  0.4683 -1.7112
  140SAPE  C31715342   2.746   5.720   8.574 -0.6765  0.9239 -0.3933
  140SAPE  H17X15343   2.853   5.707   8.548 -0.7097 -3.9457  0.8396
  140SAPE  H17Y15344   2.738   5.816   8.630 -0.4406  1.7674 -1.7557
  140SAPE  C31815345   2.655   5.711   8.448  1.0173 -0.5541 -1.3444
  140SAPE  H18X15346   2.663   5.615   8.393 -0.0681 -2.2770  1.2843
  140SAPE  H18Y15347   2.676   5.793   8.377  0.1559 -0.3199 -1.3386
  140SAPE  H18Z15348   2.552   5.714   8.490  1.2076  1.5711 -0.9097
  141SAPE     N15349   2.387   3.943  10.812  0.1020 -0.1363 -0.2167
  141SAPE   HN115350   2.439   3.868  10.762  1.7769 -0.3931  1.7247
  141SAPE   HN215351   2.444   4.014  10.863 -2.0969  2.7428 -1.5115
  141SAPE   HN315352   2.343   3.892  10.891  0.8690 -0.5552 -0.0423
  141SAPE   C1215353   2.279   4.004  10.737 -0.2531  0.0297  0.0821
  141SAPE  H12A15354   2.188   4.005  10.800  0.5549  0.5334  1.2849
  141SAPE  H12B15355   2.272   3.946  10.643  1.3359  1.2689 -0.8637
  141SAPE   C1115356   2.302   4.157  10.706 -0.0767  0.6068 -0.5653
  141SAPE  H11A15357   2.214   4.197  10.650  1.5469  0.6596 -3.2434
  141SAPE  H11B15358   2.392   4.168  10.643  0.4021  0.6985  0.1255
  141SAPE     P15359   2.459   4.265  10.893 -0.2548 -0.4337 -0.3592
  141SAPE   O1315360   2.454   4.378  10.985 -0.1083  0.6405  0.1165
  141SAPE   O1415361   2.509   4.139  10.949  0.0296  0.2685 -0.3147
  141SAPE   O1215362   2.315   4.229  10.830  0.0165  0.1329  0.0245
  141SAPE   O1115363   2.537   4.318  10.764 -0.1725  0.5646 -0.2063
  141SAPE    C115364   2.545   4.456  10.729  0.0453 -0.5212  0.4843
  141SAPE    HA15365   2.523   4.521  10.817 -1.5046 -1.0677  0.5103
  141SAPE    HB15366   2.646   4.483  10.690 -0.1424  0.6048  0.7211
  141SAPE    C215367   2.449   4.499  10.618  0.3657  0.4525  0.0081
  141SAPE    HS15368   2.348   4.489  10.665  0.8940  1.3582  1.4032
  141SAPE   O2115369   2.457   4.398  10.524 -0.3904  0.4038  0.5515
  141SAPE   C2115370   2.352   4.372  10.444 -0.0540  0.6566  0.2852
  141SAPE   O2215371   2.238   4.421  10.452 -0.1069 -0.0242 -0.0247
  141SAPE   C2215372   2.383   4.258  10.356  0.1924  0.0443 -0.0627
  141SAPE   H2R15373   2.402   4.303  10.256 -1.8453 -1.0670 -1.0162
  141SAPE   H2S15374   2.476   4.210  10.395  0.1688 -1.5497 -1.7853
  141SAPE    C315375   2.466   4.644  10.571  0.0676 -0.5502 -0.0492
  141SAPE    HX15376   2.569   4.654  10.530  0.4114  0.1978  0.9447
  141SAPE    HY15377   2.462   4.707  10.663  0.2608 -1.1707  0.3870
  141SAPE   O3115378   2.379   4.682  10.465  0.4304 -0.5412  1.3407
  141SAPE   C3115379   2.262   4.743  10.500 -0.2902  0.0549 -0.0206
  141SAPE   O3215380   2.239   4.778  10.613  0.0730 -0.4733  0.2297
  141SAPE   C3215381   2.184   4.766  10.377 -0.2272 -0.1959  0.1422
  141SAPE   H2X15382   2.121   4.674  10.368  0.4262 -0.7301  0.9106
  141SAPE   H2Y15383   2.252   4.766  10.289 -1.0223 -0.9962 -0.5039
  141SAPE   C2315384   2.267   4.156  10.355 -0.1883  0.6701  0.4665
  141SAPE   H3R15385   2.187   4.205  10.296 -0.3787  0.6114  0.6741
  141SAPE   H3S15386   2.228   4.136  10.458 -1.8428  1.7086  0.0757
  141SAPE   C2415387   2.320   4.034  10.271  0.1098  0.1114  0.7223
  141SAPE   H4R15388   2.375   4.079  10.186  0.5686 -2.7030 -0.6017
  141SAPE   H4S15389   2.242   3.974  10.218  1.9712  0.3516 -2.5771
  141SAPE   C2515390   2.402   3.938  10.343 -0.0146  0.9165  0.5496
  141SAPE   H5R15391   2.359   3.860  10.406 -0.7149  1.0044  0.1849
  141SAPE   C2615392   2.536   3.943  10.335 -0.2299 -0.7159  0.2047
  141SAPE   H6R15393   2.583   3.869  10.401 -1.1039 -1.2489  0.2427
  141SAPE   C2715394   2.625   4.040  10.258 -0.6277 -0.0228 -0.1065
  141SAPE   H7R15395   2.661   4.123  10.322  0.8794 -1.0621  0.4575
  141SAPE   H7S15396   2.577   4.081  10.167 -1.1258  1.7583  0.9169
  141SAPE   C2815397   2.757   3.969  10.231  0.8019  0.0404  0.2021
  141SAPE   H8R15398   2.795   3.901  10.309 -2.5711 -2.0992  0.1749
  141SAPE   C2915399   2.837   3.969  10.122  0.1408  0.2468 -0.1979
  141SAPE   H9R15400   2.937   3.925  10.134  1.0912  2.3002 -0.0649
  141SAPE  C21015401   2.809   4.053  10.002 -0.1882  0.8638 -0.3786
  141SAPE  H10R15402   2.715   4.110  10.019 -0.5524  0.1916 -0.0652
  141SAPE  H10S15403   2.787   3.985   9.917 -1.5307  0.6242  0.1204
  141SAPE  C21115404   2.912   4.150   9.985 -0.1729 -0.5650 -0.2010
  141SAPE  H11R15405   2.943   4.207  10.074 -0.5052  1.4191 -1.3133
  141SAPE  C21215406   2.988   4.180   9.878  0.7932 -1.1484 -0.5036
  141SAPE  H12R15407   3.050   4.271   9.880 -0.5898 -0.1769  0.2180
  141SAPE  C21315408   2.968   4.124   9.740  0.1489  1.0545 -0.4115
  141SAPE  H13R15409   2.963   4.013   9.744 -1.9813  1.1107 -0.3249
  141SAPE  H13S15410   3.063   4.149   9.689  1.7813 -0.8498  1.4918
  141SAPE  C21415411   2.856   4.182   9.663 -0.0419 -0.2330 -0.2627
  141SAPE  H14R15412   2.788   4.230   9.734 -0.1007 -0.9144  0.1538
  141SAPE  C21515413   2.829   4.175   9.529  0.3360 -0.2827 -0.2358
  141SAPE  H15R15414   2.735   4.225   9.500 -0.7726 -1.6596  0.8085
  141SAPE  C21615415   2.907   4.103   9.421  0.4499  0.2138  0.6077
  141SAPE  H16R15416   2.840   4.042   9.355 -0.4911  2.2598 -0.4298
  141SAPE  H16S15417   3.001   4.052   9.449  1.7399  1.8444 -0.5656
  141SAPE  C21715418   2.964   4.210   9.323 -0.0743  0.4221  0.4006
  141SAPE  H17R15419   3.008   4.296   9.378  2.0782  0.4773 -1.2884
  141SAPE  H17S15420   2.882   4.233   9.252 -0.5991 -2.3678 -0.0049
  141SAPE  C21815421   3.091   4.167   9.244  0.3343  0.6378  0.0267
  141SAPE  H18R15422   3.076   4.065   9.203  2.6457  0.0266  0.5793
  141SAPE  H18S15423   3.168   4.156   9.324  0.8609  1.2098 -0.3938
  141SAPE  C21915424   3.139   4.282   9.154 -0.4495  0.5637 -0.9300
  141SAPE  H19R15425   3.157   4.370   9.220 -0.7083 -0.2452  0.2340
  141SAPE  H19S15426   3.054   4.321   9.092 -0.0582  0.9906 -1.2064
  141SAPE  C22015427   3.256   4.259   9.057 -0.5335  0.2665 -0.3150
  141SAPE  H20R15428   3.259   4.341   8.983  1.5403  1.3586  0.8987
  141SAPE  H20S15429   3.234   4.164   9.003 -0.0064  0.5236 -0.9844
  141SAPE  H20T15430   3.358   4.257   9.101  0.3336  1.5736 -2.1560
  141SAPE   C3315431   2.108   4.903  10.383 -0.3816 -0.1560  0.7551
  141SAPE   H3X15432   2.179   4.987  10.395  0.0776 -0.5799  1.0435
  141SAPE   H3Y15433   2.034   4.901  10.467  1.0373 -3.2377  2.0622
  141SAPE   C3415434   2.020   4.932  10.260 -0.2790  0.1192 -0.5317
  141SAPE   H4X15435   1.976   5.033  10.278  3.2778  1.5265  1.3825
  141SAPE   H4Y15436   1.944   4.853  10.242 -0.9492  0.4410  0.7149
  141SAPE   C3515437   2.113   4.942  10.140 -0.4381  0.0474 -0.2234
  141SAPE   H5X15438   2.138   4.838  10.113 -1.7716 -0.1532 -0.7267
  141SAPE   H5Y15439   2.215   4.979  10.166 -0.0049  0.5536 -2.4020
  141SAPE   C3615440   2.070   5.013  10.020 -0.2182  1.2179 -0.3330
  141SAPE   H6X15441   2.085   5.123  10.015 -0.8873  1.2658 -1.6086
  141SAPE   H6Y15442   1.963   4.987  10.009  0.6587 -3.5430  0.3011
  141SAPE   C3715443   2.151   4.954   9.906  0.1935  0.2187 -0.3583
  141SAPE   H7X15444   2.156   4.843   9.914  0.9419  0.2282 -0.6264
  141SAPE   H7Y15445   2.254   4.990   9.922  0.8913 -2.3793  1.5314
  141SAPE   C3815446   2.101   4.996   9.770 -1.2677  0.2968  0.3451
  141SAPE   H8X15447   2.106   5.105   9.748 -1.1119 -0.2046 -2.5119
  141SAPE   H8Y15448   1.993   4.971   9.754 -1.4797  0.6096  1.2699
  141SAPE   C3915449   2.175   4.934   9.648  0.2833  0.2807  0.3359
  141SAPE   H9X15450   2.163   4.823   9.650  1.3363  0.1051 -1.3691
  141SAPE   H9Y15451   2.285   4.944   9.659  0.8585 -1.2452 -2.8464
  141SAPE  C31015452   2.130   4.991   9.506  0.0159 -0.0742 -0.0554
  141SAPE  H10X15453   2.165   5.097   9.499 -1.2169  0.3209 -0.3574
  141SAPE  H10Y15454   2.020   4.979   9.500 -0.3224  1.6069  1.6933
  141SAPE  C31115455   2.189   4.894   9.401 -1.0652  0.0821 -0.1136
  141SAPE  H11X15456   2.286   4.857   9.440 -0.8396  2.6199  1.9805
  141SAPE  H11Y15457   2.195   4.960   9.312  0.5110  0.1226  0.0033
  141SAPE  C31215458   2.107   4.775   9.354 -0.3009 -1.1453 -0.9317
  141SAPE  H12X15459   2.005   4.802   9.319 -0.9647 -2.3288 -0.0273
  141SAPE  H12Y15460   2.094   4.712   9.446 -1.5076 -0.2146 -0.4357
  141SAPE  C31315461   2.176   4.685   9.247  0.1394 -1.0200 -0.8304
  141SAPE  H13X15462   2.099   4.609   9.222 -2.1901  0.1386  2.2121
  141SAPE  H13Y15463   2.260   4.626   9.291  1.3052 -2.1144 -4.1973
  141SAPE  C31415464   2.222   4.760   9.122 -0.1830  0.3483  0.3169
  141SAPE  H14X15465   2.284   4.691   9.060  0.0039  1.2892 -0.5562
  141SAPE  H14Y15466   2.279   4.853   9.139 -1.3854  1.2369 -0.3855
  141SAPE  C31515467   2.111   4.813   9.031 -0.0009  0.1155 -0.1166
  141SAPE  H15X15468   2.051   4.885   9.091 -0.6307  0.0078 -0.6013
  141SAPE  H15Y15469   2.037   4.734   9.007  0.7987 -0.5680 -0.4008
  141SAPE  C31615470   2.166   4.899   8.918 -0.3356 -0.2466  0.0710
  141SAPE  H16X15471   2.261   4.862   8.874  0.3794  1.2286  0.3442
  141SAPE  H16Y15472   2.182   5.003   8.953  0.2039  1.0279 -3.6315
  141SAPE  C31715473   2.062   4.918   8.807 -0.1825  0.2508 -0.8774
  141SAPE  H17X15474   1.969   4.953   8.856  1.6601  1.5250  1.9920
  141SAPE  H17Y15475   2.035   4.822   8.758 -2.0524  0.9403 -1.2893
  141SAPE  C31815476   2.110   5.008   8.703 -0.1100  0.4155 -0.2527
  141SAPE  H18X15477   2.198   4.972   8.644 -1.4570 -1.2950 -1.3003
  141SAPE  H18Y15478   2.147   5.092   8.766 -0.8533  0.8540 -0.3873
  141SAPE  H18Z15479   2.026   5.035   8.636  0.0541  1.4943 -0.0510
  142SAPE     N15480   4.847   4.466  10.975 -0.3122 -0.4922  0.2990
  142SAPE   HN115481   4.871   4.546  10.912 -1.5969 -0.5519 -0.2985
  142SAPE   HN215482   4.846   4.381  10.916 -0.7391 -0.7631  0.6831
  142SAPE   HN315483   4.745   4.480  10.988 -0.5822 -1.1824 -0.9713
  142SAPE   C1215484   4.925   4.462  11.101 -0.2433  0.1095  0.1066
  142SAPE  H12A15485   4.854   4.513  11.169 -1.8917 -0.5429 -1.0564
  142SAPE  H12B15486   5.011   4.530  11.084 -1.4692  1.4257 -1.1157
  142SAPE   C1115487   4.963   4.317  11.144  0.2719  0.5092 -0.1123
  142SAPE  H11A15488   4.875   4.248  11.149  2.6885 -2.7514  1.5877
  142SAPE  H11B15489   5.004   4.309  11.247  0.6357 -1.3493 -0.3677
  142SAPE     P15490   5.216   4.274  11.079  0.3375  0.1921  0.1149
  142SAPE   O1315491   5.248   4.418  11.103  0.2312  0.0860 -0.2618
  142SAPE   O1415492   5.254   4.179  11.184  0.3772 -0.0315 -0.9266
  142SAPE   O1215493   5.066   4.263  11.055 -0.0968  0.5285  0.3739
  142SAPE   O1115494   5.262   4.229  10.934  0.4445  0.5578 -0.4968
  142SAPE    C115495   5.202   4.290  10.818 -0.0603 -0.8587 -0.5235
  142SAPE    HA15496   5.112   4.353  10.836  1.1839  1.1291 -1.0328
  142SAPE    HB15497   5.278   4.350  10.764 -1.1105 -1.2030 -2.4747
  142SAPE    C215498   5.159   4.176  10.721 -0.2134  0.3572 -0.2667
  142SAPE    HS15499   5.119   4.096  10.788  2.0297 -0.3579  0.2827
  142SAPE   O2115500   5.273   4.131  10.644  0.5452 -0.0326 -0.1090
  142SAPE   C2115501   5.269   3.995  10.609  0.1145 -0.6543 -0.1262
  142SAPE   O2215502   5.186   3.920  10.659 -0.1425  1.0284  0.2273
  142SAPE   C2215503   5.377   3.968  10.517  0.0741 -0.1222 -0.0937
  142SAPE   H2R15504   5.421   4.063  10.480  0.2060 -0.1614 -0.0371
  142SAPE   H2S15505   5.457   3.915  10.573  0.8978 -0.2373 -1.3411
  142SAPE    C315506   5.040   4.221  10.632  0.1714  0.0459 -0.2200
  142SAPE    HX15507   4.968   4.271  10.701  1.3125 -0.3001  1.2733
  142SAPE    HY15508   4.997   4.123  10.603  1.2586 -0.5419  0.1139
  142SAPE   O3115509   5.068   4.309  10.518  0.0542 -0.3293  0.9986
  142SAPE   C3115510   4.993   4.291  10.414  0.2848  0.4396  0.0401
  142SAPE   O3215511   4.925   4.193  10.391 -0.4604 -0.0414 -0.0776
  142SAPE   C3215512   5.001   4.403  10.326 -0.0563  1.0626  0.4057
  142SAPE   H2X15513   5.044   4.378  10.226 -0.4395  3.1268 -0.3274
  142SAPE   H2Y15514   5.068   4.481  10.367 -0.6907  0.6418  2.3237
  142SAPE   C2315515   5.330   3.888  10.398  0.3377 -0.0142  0.5479
  142SAPE   H3R15516   5.268   3.801  10.430 -0.1479  0.4583  0.9016
  142SAPE   H3S15517   5.412   3.854  10.331 -0.1963  0.0167 -0.1296
  142SAPE   C2415518   5.220   3.951  10.297 -0.5762  0.0023  0.0867
  142SAPE   H4R15519   5.121   3.954  10.347 -1.3313  1.6210 -1.3803
  142SAPE   H4S15520   5.203   3.870  10.224 -1.2854  1.0033 -0.9015
  142SAPE   C2515521   5.269   4.075  10.230 -0.0442 -0.2149 -0.0382
  142SAPE   H5R15522   5.313   4.152  10.295  0.0838 -0.4073  0.1002
  142SAPE   C2615523   5.244   4.105  10.097  1.1226  0.5125 -0.0899
  142SAPE   H6R15524   5.276   4.200  10.051  0.5070  1.0075  0.4642
  142SAPE   C2715525   5.174   4.013  10.005 -0.0934  0.3116  0.3533
  142SAPE   H7R15526   5.074   3.989  10.047 -1.3967  0.3104 -2.4986
  142SAPE   H7S15527   5.231   3.919  10.012 -0.9967 -0.1845  1.1995
  142SAPE   C2815528   5.162   4.060   9.862  0.8641  0.4177  0.4322
  142SAPE   H8R15529   5.240   4.024   9.792  1.8655  2.1003  0.6292
  142SAPE   C2915530   5.058   4.140   9.812 -0.3807 -0.2692 -0.5121
  142SAPE   H9R15531   5.052   4.154   9.703  0.9121 -1.4839 -0.7691
  142SAPE  C21015532   4.947   4.205   9.898 -0.3974 -0.0920 -0.2750
  142SAPE  H10R15533   4.951   4.164  10.001 -1.9673  0.7442  0.1657
  142SAPE  H10S15534   4.847   4.180   9.856 -1.0952  1.4911  0.3537
  142SAPE  C21115535   4.944   4.351   9.904  0.3912 -0.4176 -1.2339
  142SAPE  H11R15536   4.949   4.398  10.004 -0.1121  0.1788 -1.4795
  142SAPE  C21215537   4.926   4.440   9.802 -0.5998 -0.7197  0.7551
  142SAPE  H12R15538   4.945   4.546   9.822  0.2783 -0.7447  0.1487
  142SAPE  C21315539   4.909   4.413   9.656  1.1084 -0.4602 -0.3470
  142SAPE  H13R15540   4.891   4.304   9.645  0.5357 -0.5003  0.8080
  142SAPE  H13S15541   4.996   4.451   9.599  2.4904 -0.7652  1.4532
  142SAPE  C21415542   4.771   4.464   9.619 -0.5227  0.2218  0.6815
  142SAPE  H14R15543   4.716   4.531   9.688 -0.1034 -1.6555  2.9741
  142SAPE  C21515544   4.723   4.458   9.494 -0.0352 -0.2590 -0.3330
  142SAPE  H15R15545   4.625   4.499   9.466  0.1374 -0.4360 -1.2427
  142SAPE  C21615546   4.779   4.390   9.376  0.3574  0.0525  0.8520
  142SAPE  H16R15547   4.706   4.308   9.359 -1.5421  2.2813 -3.3890
  142SAPE  H16S15548   4.880   4.353   9.402  0.5074 -1.1916 -1.2794
  142SAPE  C21715549   4.784   4.466   9.240  0.8087  0.8504 -0.0915
  142SAPE  H17R15550   4.831   4.566   9.256 -0.1470  1.4932 -1.1138
  142SAPE  H17S15551   4.682   4.495   9.207  0.0981 -0.3075  1.0064
  142SAPE  C21815552   4.850   4.378   9.133 -0.2958  0.4120  0.1206
  142SAPE  H18R15553   4.778   4.294   9.121 -1.1327  1.0843  0.3709
  142SAPE  H18S15554   4.948   4.331   9.154 -0.8372 -0.3924  0.9589
  142SAPE  C21915555   4.856   4.454   9.001  0.1931 -0.4858  0.4568
  142SAPE  H19R15556   4.921   4.541   9.024 -1.7732  1.6706 -1.5795
  142SAPE  H19S15557   4.759   4.497   8.969 -0.4869 -0.2633  2.6509
  142SAPE  C22015558   4.908   4.392   8.868  0.4335  0.5670 -0.7834
  142SAPE  H20R15559   4.875   4.462   8.788  1.2176  0.2354 -1.4134
  142SAPE  H20S15560   4.860   4.292   8.862  3.8533 -1.3644  1.1836
  142SAPE  H20T15561   5.018   4.384   8.854  0.3764  0.5718 -1.2736
  142SAPE   C3315562   4.872   4.473  10.301 -0.4758  0.6800 -0.7996
  142SAPE   H3X15563   4.819   4.480  10.398  0.0691 -0.0734 -0.4426
  142SAPE   H3Y15564   4.803   4.417  10.234 -0.4323 -0.0140 -0.2755
  142SAPE   C3415565   4.887   4.614  10.247 -0.8295 -0.1083  0.1380
  142SAPE   H4X15566   4.972   4.626  10.177 -0.8348 -1.3528 -0.0940
  142SAPE   H4Y15567   4.898   4.673  10.340  0.6938  0.0363 -0.1100
  142SAPE   C3515568   4.766   4.667  10.178 -0.9634 -0.3104 -0.7203
  142SAPE   H5X15569   4.674   4.670  10.239  0.5303  2.5240  1.6321
  142SAPE   H5Y15570   4.756   4.612  10.082 -0.4991 -0.2064 -0.8319
  142SAPE   C3615571   4.785   4.817  10.136 -0.8843  0.6179  0.2231
  142SAPE   H6X15572   4.796   4.876  10.230  0.3135 -2.3330  2.0865
  142SAPE   H6Y15573   4.691   4.862  10.096  0.3766  1.4743 -1.9694
  142SAPE   C3715574   4.886   4.854  10.031 -0.5107  0.1234  1.0483
  142SAPE   H7X15575   4.868   4.814   9.929  1.9045 -0.1370  0.6589
  142SAPE   H7Y15576   4.986   4.811  10.052  0.7630  0.3429 -3.5199
  142SAPE   C3815577   4.907   5.004  10.030  0.1242  0.8773 -0.4171
  142SAPE   H8X15578   4.939   5.035  10.131  0.6173  1.1402 -0.6503
  142SAPE   H8Y15579   4.807   5.050  10.013  0.6168  2.1148 -0.1110
  142SAPE   C3915580   5.007   5.057   9.930  0.0782  0.6357 -0.5111
  142SAPE   H9X15581   5.100   4.996   9.941 -2.0467 -3.3125 -2.4098
  142SAPE   H9Y15582   5.036   5.164   9.944  0.2542  0.4658  0.5588
  142SAPE  C31015583   4.961   5.045   9.778 -0.2405 -0.5338 -0.2009
  142SAPE  H10X15584   4.875   5.113   9.765 -0.7524 -1.5460 -3.0026
  142SAPE  H10Y15585   4.928   4.940   9.762  0.7695 -0.9517  0.3731
  142SAPE  C31115586   5.076   5.065   9.682  0.1170  0.0171  0.2773
  142SAPE  H11X15587   5.161   4.998   9.705 -1.8890 -2.9904 -0.4405
  142SAPE  H11Y15588   5.104   5.173   9.680 -2.6914  0.8541 -1.2107
  142SAPE  C31215589   5.041   5.035   9.536 -0.0911 -0.5959  0.4382
  142SAPE  H12X15590   5.086   5.119   9.478  1.0950 -0.9731  0.7863
  142SAPE  H12Y15591   4.931   5.037   9.517  0.1762  0.6350 -1.2453
  142SAPE  C31315592   5.112   4.917   9.469  0.2137 -0.5203 -0.7072
  142SAPE  H13X15593   5.058   4.825   9.499 -1.3593 -0.9638 -4.3377
  142SAPE  H13Y15594   5.222   4.917   9.480  0.2134 -3.6058 -0.0224
  142SAPE  C31415595   5.091   4.923   9.312  0.8238 -0.1628 -0.4605
  142SAPE  H14X15596   5.176   4.870   9.264  1.7448 -0.4634  1.4227
  142SAPE  H14Y15597   5.111   5.028   9.282  0.3842  0.6801  1.9479
  142SAPE  C31515598   4.953   4.882   9.260  0.3725 -0.8155 -0.2072
  142SAPE  H15X15599   4.881   4.958   9.297  0.9643  0.8738 -2.3433
  142SAPE  H15Y15600   4.925   4.778   9.289  0.4144 -0.4736  1.0827
  142SAPE  C31615601   4.948   4.878   9.108 -0.9209 -0.8517  0.1116
  142SAPE  H16X15602   5.028   4.810   9.071 -3.3184 -4.1041  0.5231
  142SAPE  H16Y15603   4.970   4.984   9.082  2.1293 -1.2348  0.6971
  142SAPE  C31715604   4.824   4.839   9.034  0.6727 -1.2069 -0.4330
  142SAPE  H17X15605   4.765   4.933   9.043  1.9066 -0.3436 -1.0980
  142SAPE  H17Y15606   4.781   4.758   9.097  1.9471  0.1553  2.3910
  142SAPE  C31815607   4.847   4.799   8.890  0.0934  0.2752 -0.5642
  142SAPE  H18X15608   4.755   4.751   8.850 -0.7587  0.8069  0.6785
  142SAPE  H18Y15609   4.930   4.727   8.880  0.5448  0.6133  0.6056
  142SAPE  H18Z15610   4.858   4.890   8.826 -0.5253  0.4578 -0.4219
  143SAPE     N15611   5.794   3.118  11.012 -0.0773 -0.1198  0.7314
  143SAPE   HN115612   5.790   3.048  11.089 -2.1200  0.9587  1.6837
  143SAPE   HN215613   5.751   3.082  10.924 -0.3868  0.7342  0.5234
  143SAPE   HN315614   5.892   3.134  10.981 -0.9596  0.8800 -1.8880
  143SAPE   C1215615   5.731   3.252  11.047  0.2437 -0.8362 -0.4376
  143SAPE  H12A15616   5.799   3.307  11.115  0.4393  0.9063 -1.9577
  143SAPE  H12B15617   5.640   3.231  11.107  2.0609 -3.2931  1.6983
  143SAPE   C1115618   5.705   3.341  10.924 -0.6071  0.2324  0.1589
  143SAPE  H11A15619   5.621   3.296  10.867  0.3967  0.7553 -1.8293
  143SAPE  H11B15620   5.792   3.332  10.856 -0.4791  0.5908  0.2711
  143SAPE     P15621   5.782   3.597  10.937  0.0383  0.3188  0.1313
  143SAPE   O1315622   5.722   3.722  10.983  0.0039 -0.4698 -0.0437
  143SAPE   O1415623   5.909   3.552  10.998  0.1609  0.0059 -0.6094
  143SAPE   O1215624   5.684   3.479  10.963  0.8067 -0.3268  0.6483
  143SAPE   O1115625   5.799   3.596  10.777  0.7357 -0.2389 -0.0292
  143SAPE    C115626   5.712   3.683  10.702  0.9428 -0.3475  0.1333
  143SAPE    HA15627   5.605   3.664  10.726  0.8012 -0.3426 -0.4603
  143SAPE    HB15628   5.733   3.791  10.717  2.1558 -0.5550 -0.0039
  143SAPE    C215629   5.719   3.656  10.553 -0.4697 -0.0248 -0.1296
  143SAPE    HS15630   5.646   3.730  10.513 -2.2676 -2.1490 -0.9967
  143SAPE   O2115631   5.673   3.524  10.519 -0.4087 -0.4258 -0.4859
  143SAPE   C2115632   5.545   3.508  10.496 -0.4265  0.6728 -1.0176
  143SAPE   O2215633   5.462   3.593  10.491 -0.0191  0.6798 -0.3918
  143SAPE   C2215634   5.522   3.360  10.500  0.0472 -0.4400  0.2924
  143SAPE   H2R15635   5.601   3.304  10.446  1.2073  1.2548  0.1854
  143SAPE   H2S15636   5.531   3.336  10.608 -0.2403  1.6830  0.8237
  143SAPE    C315637   5.859   3.695  10.488  0.8862 -0.3834 -0.1345
  143SAPE    HX15638   5.938   3.629  10.530 -0.2764 -1.4935  0.3687
  143SAPE    HY15639   5.877   3.801  10.517  1.4725 -0.5573  0.1587
  143SAPE   O3115640   5.859   3.657  10.353  0.3879  0.7594  0.2756
  143SAPE   C3115641   5.818   3.762  10.276  0.7574 -0.3981  0.0248
  143SAPE   O3215642   5.775   3.868  10.319  0.0040  0.0964 -0.4556
  143SAPE   C3215643   5.830   3.723  10.130 -0.1109 -0.0497 -0.5344
  143SAPE   H2X15644   5.883   3.627  10.114 -0.0767 -0.0163 -0.6234
  143SAPE   H2Y15645   5.897   3.791  10.074 -1.8355 -0.6132 -3.5176
  143SAPE   C2315646   5.382   3.307  10.464 -0.2499  0.5765 -0.0091
  143SAPE   H3R15647   5.303   3.373  10.507 -1.3181  0.5259 -1.8030
  143SAPE   H3S15648   5.367   3.205  10.507  0.3606 -0.0330 -1.2009
  143SAPE   C2415649   5.355   3.275  10.320  0.2181  0.1186  0.3153
  143SAPE   H4R15650   5.275   3.200  10.304  0.0730  0.3367 -0.0081
  143SAPE   H4S15651   5.450   3.230  10.283 -0.2498  1.6007 -3.0636
  143SAPE   C2515652   5.333   3.395  10.235 -0.2752 -0.4077  0.5566
  143SAPE   H5R15653   5.299   3.482  10.292 -3.3076 -1.0444 -0.0646
  143SAPE   C2615654   5.351   3.427  10.104 -0.0159  0.6800 -1.4215
  143SAPE   H6R15655   5.302   3.511  10.052 -4.4337  0.1219  1.3142
  143SAPE   C2715656   5.404   3.327  10.010 -0.0122  0.4397  0.2560
  143SAPE   H7R15657   5.312   3.289   9.960  0.4960  0.9037 -1.0539
  143SAPE   H7S15658   5.450   3.247  10.071  0.1149  1.8057  2.0439
  143SAPE   C2815659   5.490   3.370   9.901  0.0231 -0.4664 -0.2530
  143SAPE   H8R15660   5.445   3.422   9.815  2.4370  1.7300 -0.2934
  143SAPE   C2915661   5.625   3.351   9.885 -0.4482  0.1551  0.5928
  143SAPE   H9R15662   5.675   3.378   9.790 -0.3428  0.1905  0.6584
  143SAPE  C21015663   5.710   3.275   9.982  0.1979 -0.0434  0.0333
  143SAPE  H10R15664   5.666   3.174   9.979  0.3929 -0.1725  1.0014
  143SAPE  H10S15665   5.689   3.323  10.080  0.9828  0.0709  0.1572
  143SAPE  C21115666   5.861   3.280   9.962 -0.2656 -0.1887 -0.0470
  143SAPE  H11R15667   5.921   3.352  10.019  2.2173 -0.0559 -2.5936
  143SAPE  C21215668   5.928   3.220   9.861  0.5209 -0.2109 -0.0999
  143SAPE  H12R15669   6.037   3.234   9.863  0.1527  3.6588 -0.4607
  143SAPE  C21315670   5.873   3.130   9.756  0.7884  0.4059  0.2656
  143SAPE  H13R15671   5.772   3.161   9.723  0.8002 -0.3652 -0.5193
  143SAPE  H13S15672   5.860   3.027   9.793  1.7669  0.0458 -0.3432
  143SAPE  C21415673   5.965   3.128   9.634 -0.9022  0.5586  0.2965
  143SAPE  H14R15674   6.043   3.051   9.626 -1.7676 -0.3049 -0.0384
  143SAPE  C21515675   5.946   3.210   9.531 -0.5536  0.5657  0.8129
  143SAPE  H15R15676   6.026   3.200   9.456  0.6192  1.4781  1.9151
  143SAPE  C21615677   5.839   3.306   9.516  1.7245 -0.1402 -0.0978
  143SAPE  H16R15678   5.866   3.390   9.449  1.2363 -0.2789 -0.4814
  143SAPE  H16S15679   5.824   3.347   9.618 -2.2873 -0.6776 -0.3086
  143SAPE  C21715680   5.705   3.254   9.473 -0.1016  0.3419 -0.0250
  143SAPE  H17R15681   5.671   3.164   9.529 -1.3023  0.1831 -0.9825
  143SAPE  H17S15682   5.712   3.215   9.369  2.3966 -0.1031  0.2313
  143SAPE  C21815683   5.601   3.367   9.475 -0.3965 -0.3802  0.3465
  143SAPE  H18R15684   5.645   3.445   9.409 -0.3325 -2.0429 -1.6831
  143SAPE  H18S15685   5.591   3.401   9.580  0.5963  4.0608 -0.8178
  143SAPE  C21915686   5.463   3.324   9.426 -0.2577  1.3199 -0.2620
  143SAPE  H19R15687   5.425   3.231   9.476  0.7779  0.3730 -1.1879
  143SAPE  H19S15688   5.466   3.298   9.318 -0.3681 -2.3807  0.4880
  143SAPE  C22015689   5.357   3.433   9.448 -0.0971 -0.2045 -0.1725
  143SAPE  H20R15690   5.408   3.531   9.456 -1.2799  0.3242  1.4007
  143SAPE  H20S15691   5.308   3.411   9.545 -2.0735  0.3255 -1.0052
  143SAPE  H20T15692   5.285   3.431   9.364  2.6619  2.9189 -2.9090
  143SAPE   C3315693   5.691   3.715  10.064  0.2368  0.3168  0.0170
  143SAPE   H3X15694   5.617   3.776  10.120 -0.1659 -1.1543  1.1429
  143SAPE   H3Y15695   5.641   3.617  10.078  0.4803  0.1411 -0.3184
  143SAPE   C3415696   5.683   3.753   9.917  0.7925  0.1773  0.4513
  143SAPE   H4X15697   5.750   3.684   9.860  2.0519 -0.3920  2.5130
  143SAPE   H4Y15698   5.726   3.856   9.915 -1.9047  1.4564  2.7135
  143SAPE   C3515699   5.540   3.755   9.859 -0.4733  0.0142  0.0776
  143SAPE   H5X15700   5.469   3.808   9.926 -0.3165  0.3803 -0.0417
  143SAPE   H5Y15701   5.508   3.649   9.867 -0.4518 -0.2341 -2.3210
  143SAPE   C3615702   5.529   3.799   9.715  0.5571 -0.3920  0.1910
  143SAPE   H6X15703   5.606   3.751   9.651 -1.1158 -1.5197 -1.0653
  143SAPE   H6Y15704   5.554   3.906   9.698  0.2139 -0.4366 -0.6355
  143SAPE   C3715705   5.396   3.760   9.653  0.1057  0.1317  0.3868
  143SAPE   H7X15706   5.317   3.816   9.706  0.9381  1.5971  0.1188
  143SAPE   H7Y15707   5.391   3.650   9.671  1.2085  0.0005 -0.0168
  143SAPE   C3815708   5.396   3.779   9.499  0.9280 -0.0059 -0.3572
  143SAPE   H8X15709   5.306   3.723   9.466 -1.1902  1.8564  1.8970
  143SAPE   H8Y15710   5.482   3.728   9.451 -1.1627 -0.8157 -3.5619
  143SAPE   C3915711   5.380   3.923   9.452 -0.5108  0.1477  0.0102
  143SAPE   H9X15712   5.443   3.991   9.514 -0.8238 -1.0171  1.6996
  143SAPE   H9Y15713   5.274   3.952   9.462 -1.0833 -1.3061 -1.3546
  143SAPE  C31015714   5.407   3.950   9.302  0.0117 -0.1675  0.3092
  143SAPE  H10X15715   5.372   3.862   9.244  0.8302 -0.2088 -0.1348
  143SAPE  H10Y15716   5.516   3.970   9.298 -0.1105  0.3331 -0.8773
  143SAPE  C31115717   5.356   4.089   9.242 -1.2165  0.6646  0.1786
  143SAPE  H11X15718   5.384   4.097   9.135  0.9686  0.5484  0.6991
  143SAPE  H11Y15719   5.406   4.172   9.296 -0.8257  0.4275  0.1812
  143SAPE  C31215720   5.206   4.120   9.245 -0.2489 -0.0005 -0.6957
  143SAPE  H12X15721   5.186   4.230   9.242 -2.2944 -0.2629  1.0298
  143SAPE  H12Y15722   5.161   4.089   9.342  1.1218  0.4082  0.1009
  143SAPE  C31315723   5.137   4.050   9.128 -0.2202  0.0905 -0.4562
  143SAPE  H13X15724   5.028   4.049   9.151  0.1881  0.5410  1.6297
  143SAPE  H13Y15725   5.170   3.944   9.126  0.8773  0.4231 -1.3348
  143SAPE  C31415726   5.163   4.106   8.988 -0.1043 -0.9453  0.1508
  143SAPE  H14X15727   5.267   4.085   8.956  0.1787  0.1720  0.3265
  143SAPE  H14Y15728   5.159   4.216   8.979  0.3798 -0.9922 -0.7609
  143SAPE  C31515729   5.074   4.048   8.874  0.1790 -0.2901 -0.2214
  143SAPE  H15X15730   5.101   4.079   8.771 -1.5190 -0.3361 -0.7001
  143SAPE  H15Y15731   4.975   4.094   8.892  0.3489  0.0589 -0.1562
  143SAPE  C31615732   5.047   3.897   8.873  0.2259  0.0403  0.1538
  143SAPE  H16X15733   5.005   3.857   8.968  2.4767 -0.7195  0.9153
  143SAPE  H16Y15734   5.144   3.846   8.853 -0.9789 -1.7521 -1.4405
  143SAPE  C31715735   4.957   3.858   8.757  0.6933  0.5355  0.6291
  143SAPE  H17X15736   4.988   3.888   8.654 -0.2161 -2.4180 -0.6039
  143SAPE  H17Y15737   4.860   3.910   8.772  0.3646  0.3180 -0.5802
  143SAPE  C31815738   4.941   3.703   8.752 -0.1595  0.0010  0.3252
  143SAPE  H18X15739   4.895   3.668   8.847  0.1479  1.1896  0.9308
  143SAPE  H18Y15740   5.041   3.654   8.748  0.9126  2.1517 -1.1206
  143SAPE  H18Z15741   4.874   3.676   8.668  2.2245  2.3268 -2.5553
  144SAPE     N15742   1.732   5.534  10.564 -0.2363  0.1025  0.2485
  144SAPE   HN115743   1.647   5.589  10.586  0.8747  0.7654  3.2884
  144SAPE   HN215744   1.780   5.570  10.479 -0.2574  1.1409  0.6644
  144SAPE   HN315745   1.699   5.437  10.544  0.0667  0.1382 -0.4454
  144SAPE   C1215746   1.819   5.538  10.690  0.2161 -0.2634  0.8765
  144SAPE  H12A15747   1.897   5.463  10.667  0.8874 -0.1845  2.7209
  144SAPE  H12B15748   1.771   5.504  10.784  2.9040 -0.2629  2.3344
  144SAPE   C1115749   1.898   5.672  10.708  0.5582  1.1643 -0.1820
  144SAPE  H11A15750   1.823   5.752  10.719  0.8722  1.1280  2.9465
  144SAPE  H11B15751   1.961   5.698  10.619 -0.4160  0.3498 -1.1400
  144SAPE     P15752   2.140   5.633  10.817 -0.1076  0.0048 -0.4141
  144SAPE   O1315753   2.219   5.751  10.852 -0.1719  0.1565 -0.3530
  144SAPE   O1415754   2.164   5.515  10.906 -0.5578  0.4476  0.1166
  144SAPE   O1215755   1.989   5.668  10.819  0.2408 -0.5328  0.3577
  144SAPE   O1115756   2.158   5.595  10.667 -0.1006 -0.1237 -0.2782
  144SAPE    C115757   2.229   5.477  10.629  0.2455  0.0353  0.2583
  144SAPE    HA15758   2.238   5.390  10.699  0.6555 -2.3515 -2.5802
  144SAPE    HB15759   2.178   5.436  10.539 -0.8416  0.8855  0.4623
  144SAPE    C215760   2.380   5.513  10.573  0.1992  0.2486 -0.2546
  144SAPE    HS15761   2.436   5.543  10.665  0.6892  2.7418 -1.2751
  144SAPE   O2115762   2.382   5.620  10.475  0.1950  0.3670  0.2477
  144SAPE   C2115763   2.500   5.683  10.468  0.5660 -0.1834 -0.4211
  144SAPE   O2215764   2.588   5.668  10.548  0.3534 -0.3737  0.2191
  144SAPE   C2215765   2.505   5.752  10.333  0.0761 -0.0765 -0.1964
  144SAPE   H2R15766   2.551   5.679  10.264  0.6348  0.1144 -0.0278
  144SAPE   H2S15767   2.400   5.765  10.297 -0.1362 -2.1141 -0.4186
  144SAPE    C315768   2.443   5.375  10.518  0.6046  0.6178  0.4471
  144SAPE    HX15769   2.443   5.293  10.593 -1.3102 -0.3294 -0.5101
  144SAPE    HY15770   2.546   5.405  10.489 -0.1475  2.5303 -0.4577
  144SAPE   O3115771   2.362   5.329  10.406 -0.5436  0.5641 -0.7380
  144SAPE   C3115772   2.401   5.369  10.287 -0.2096 -0.2993  0.1030
  144SAPE   O3215773   2.504   5.425  10.261 -0.5633  0.0312  0.4753
  144SAPE   C3215774   2.286   5.353  10.185  0.3773  0.2373 -0.2007
  144SAPE   H2X15775   2.186   5.391  10.216  0.5117  0.2107  0.2643
  144SAPE   H2Y15776   2.275   5.245  10.164  4.1886 -0.3737  0.1924
  144SAPE   C2315777   2.568   5.893  10.341 -0.2855 -0.6647 -0.0185
  144SAPE   H3R15778   2.671   5.882  10.381  1.1835  2.2675 -2.5182
  144SAPE   H3S15779   2.509   5.968  10.399 -0.3399 -1.0498  0.4267
  144SAPE   C2415780   2.586   5.958  10.203 -0.0928  0.1175  0.4441
  144SAPE   H4R15781   2.644   5.890  10.136 -1.4624 -0.2718 -0.4033
  144SAPE   H4S15782   2.655   6.044  10.209  0.1175 -0.1608  2.6823
  144SAPE   C2515783   2.452   6.007  10.146 -0.4769 -0.0424 -0.3555
  144SAPE   H5R15784   2.398   6.066  10.222  0.4968  1.1021 -0.5222
  144SAPE   C2615785   2.393   5.974  10.033 -0.1076  0.3332  0.7263
  144SAPE   H6R15786   2.293   6.014  10.010  0.3706  0.6332 -0.9503
  144SAPE   C2715787   2.457   5.880   9.928 -0.4449 -0.7668  0.3042
  144SAPE   H7R15788   2.529   5.811   9.977 -0.9395 -0.3787  1.6277
  144SAPE   H7S15789   2.529   5.940   9.869 -0.1258 -1.3859  0.0594
  144SAPE   C2815790   2.367   5.802   9.832 -0.7478  0.1115  0.6860
  144SAPE   H8R15791   2.307   5.717   9.868 -0.3344 -0.7827 -0.6771
  144SAPE   C2915792   2.339   5.833   9.698 -0.1215  0.7216 -0.1009
  144SAPE   H9R15793   2.257   5.784   9.644  0.5910 -0.6876  0.0566
  144SAPE  C21015794   2.421   5.935   9.618  0.0587 -0.2351  0.0543
  144SAPE  H10R15795   2.515   5.963   9.671  1.7288 -2.3057 -1.6544
  144SAPE  H10S15796   2.367   6.031   9.606  1.4210  0.5377 -0.1478
  144SAPE  C21115797   2.447   5.879   9.477  0.1248  0.7465  0.5834
  144SAPE  H11R15798   2.544   5.829   9.461  0.6003  1.0223  2.4141
  144SAPE  C21215799   2.352   5.887   9.377 -0.1957  0.4912  0.0812
  144SAPE  H12R15800   2.386   5.837   9.284  5.0577 -0.3153  2.0867
  144SAPE  C21315801   2.222   5.958   9.387  0.0371  0.2969 -0.1849
  144SAPE  H13R15802   2.196   5.953   9.495 -0.3290  0.0132 -0.2856
  144SAPE  H13S15803   2.147   5.908   9.322 -1.5953  1.6688  0.5509
  144SAPE  C21415804   2.230   6.100   9.342 -0.0948  0.0429 -0.1789
  144SAPE  H14R15805   2.315   6.128   9.278  0.2990  0.7622  0.6422
  144SAPE  C21515806   2.160   6.210   9.390  0.1609  0.0856 -0.3375
  144SAPE  H15R15807   2.179   6.309   9.347 -1.2735  1.4829  2.0451
  144SAPE  C21615808   2.046   6.204   9.487  0.6212 -0.0976 -0.1945
  144SAPE  H16R15809   2.015   6.100   9.509 -0.3590 -0.0753 -1.3833
  144SAPE  H16S15810   1.958   6.268   9.465  1.5267  2.3396  2.5143
  144SAPE  C21715811   2.093   6.250   9.633 -0.1051 -0.4014 -0.2622
  144SAPE  H17R15812   2.124   6.356   9.622 -1.8031  0.2981  1.2116
  144SAPE  H17S15813   2.181   6.190   9.666 -1.1400 -1.0955  1.3545
  144SAPE  C21815814   1.985   6.222   9.732  0.1203 -0.7788 -0.1132
  144SAPE  H18R15815   1.994   6.131   9.795  1.0946  0.9097  2.3635
  144SAPE  H18S15816   1.892   6.206   9.673 -0.2669 -3.2797  1.0540
  144SAPE  C21915817   1.965   6.334   9.843 -0.2607  0.6802  0.3119
  144SAPE  H19R15818   1.879   6.303   9.906  0.4445  1.7927  1.8845
  144SAPE  H19S15819   1.942   6.433   9.798  1.7118  1.0204 -0.0652
  144SAPE  C22015820   2.096   6.348   9.920  0.3159  0.5470 -1.2707
  144SAPE  H20R15821   2.182   6.384   9.859  0.0265 -1.1399 -2.7383
  144SAPE  H20S15822   2.124   6.267   9.990 -3.1788 -0.0120 -0.3420
  144SAPE  H20T15823   2.094   6.439   9.984  1.9780 -1.8544  2.5003
  144SAPE   C3315824   2.302   5.420  10.042  0.7441  0.5506 -0.5806
  144SAPE   H3X15825   2.406   5.414  10.004  0.8689 -5.1690 -0.1845
  144SAPE   H3Y15826   2.251   5.518  10.040 -0.1878  0.0884 -0.1779
  144SAPE   C3415827   2.220   5.346   9.937 -0.6005  0.0912  0.2498
  144SAPE   H4X15828   2.115   5.323   9.967 -1.0027  0.0378 -1.1532
  144SAPE   H4Y15829   2.269   5.246   9.926  0.7735  0.8027 -0.3334
  144SAPE   C3515830   2.210   5.407   9.792 -0.3891  0.6479 -0.1658
  144SAPE   H5X15831   2.178   5.513   9.800  2.2692  1.6723 -2.0708
  144SAPE   H5Y15832   2.132   5.350   9.736  0.8982  0.9685 -2.3797
  144SAPE   C3615833   2.338   5.407   9.707  0.2307 -0.0157  0.8447
  144SAPE   H6X15834   2.349   5.298   9.685 -0.1787 -0.3160  2.0792
  144SAPE   H6Y15835   2.432   5.442   9.756 -0.3513 -1.8452  3.4926
  144SAPE   C3715836   2.324   5.472   9.567  0.0784  0.3776 -0.1488
  144SAPE   H7X15837   2.428   5.460   9.528  0.1131  1.2323 -0.3329
  144SAPE   H7Y15838   2.306   5.581   9.576 -4.5375 -0.2135  0.0039
  144SAPE   C3815839   2.218   5.402   9.471  0.1909  0.3105  0.6761
  144SAPE   H8X15840   2.120   5.406   9.523  0.5549  1.6455  1.3105
  144SAPE   H8Y15841   2.255   5.298   9.457 -0.3273  0.0490  1.2032
  144SAPE   C3915842   2.220   5.458   9.327  0.1564  0.1277 -0.2171
  144SAPE   H9X15843   2.201   5.568   9.322 -1.0156 -0.0947 -3.4412
  144SAPE   H9Y15844   2.136   5.419   9.265 -0.8191 -1.9651  2.2515
  144SAPE  C31015845   2.352   5.433   9.253  0.5535 -0.0905 -0.2433
  144SAPE  H10X15846   2.381   5.326   9.257 -1.1359 -0.5527  0.6589
  144SAPE  H10Y15847   2.436   5.494   9.292  0.3795  0.9316 -1.4224
  144SAPE  C31115848   2.345   5.478   9.103 -0.2572 -0.2363 -0.3447
  144SAPE  H11X15849   2.241   5.458   9.070  0.2344  0.5520 -2.5549
  144SAPE  H11Y15850   2.410   5.414   9.040 -0.5980  0.0819 -1.0335
  144SAPE  C31215851   2.356   5.628   9.072  0.3565 -0.0799  0.3657
  144SAPE  H12X15852   2.454   5.668   9.105 -0.1187  0.5692  1.0453
  144SAPE  H12Y15853   2.282   5.679   9.138 -0.0545 -1.2408  0.8170
  144SAPE  C31315854   2.350   5.660   8.921  0.0565 -0.3195  0.5970
  144SAPE  H13X15855   2.247   5.633   8.888  0.2547 -1.1100  0.6158
  144SAPE  H13Y15856   2.432   5.604   8.873 -1.3423 -0.3563 -1.9359
  144SAPE  C31415857   2.369   5.808   8.891  0.4665 -0.2895 -0.4160
  144SAPE  H14X15858   2.473   5.841   8.912 -0.3022  0.5373  2.5657
  144SAPE  H14Y15859   2.303   5.868   8.957  3.9916  0.3010  2.9838
  144SAPE  C31515860   2.339   5.838   8.740 -0.5742  0.0937 -0.4202
  144SAPE  H15X15861   2.245   5.786   8.711 -0.0341 -1.0005 -0.2590
  144SAPE  H15Y15862   2.412   5.790   8.672  0.5533 -1.3002  1.7032
  144SAPE  C31615863   2.332   5.991   8.724 -0.1179  0.4527  0.6255
  144SAPE  H16X15864   2.412   6.055   8.767 -0.0858  1.9244 -1.4582
  144SAPE  H16Y15865   2.244   6.016   8.786 -1.3825 -0.1888 -0.8214
  144SAPE  C31715866   2.318   6.027   8.574 -0.3881 -0.0918  0.4147
  144SAPE  H17X15867   2.249   5.950   8.535  0.5349 -0.8913  0.3156
  144SAPE  H17Y15868   2.419   6.025   8.528  0.1549  0.3348  1.5408
  144SAPE  C31815869   2.250   6.166   8.563 -0.1394  0.3476  0.1801
  144SAPE  H18X15870   2.305   6.238   8.627  0.7498 -1.1432  1.1752
  144SAPE  H18Y15871   2.147   6.150   8.603 -0.8775 -0.4061 -1.9109
  144SAPE  H18Z15872   2.248   6.203   8.459 -1.1007 -1.5382 -0.5094
  145SAPE     N15873   6.492   4.098  11.444 -0.0388  0.8099 -0.8341
  145SAPE   HN115874   6.507   4.181  11.505 -3.2613  1.0809 -0.1933
  145SAPE   HN215875   6.391   4.071  11.446  0.7318 -2.4832  0.6599
  145SAPE   HN315876   6.536   4.014  11.487 -1.6981 -1.2479 -2.8848
  145SAPE   C1215877   6.522   4.112  11.300 -0.2794  0.5931  0.6066
  145SAPE  H12A15878   6.462   4.035  11.248  2.6000 -0.1278 -1.9252
  145SAPE  H12B15879   6.629   4.090  11.278  0.0851  1.9974  0.8413
  145SAPE   C1115880   6.474   4.237  11.239  0.5312 -0.7563 -0.4793
  145SAPE  H11A15881   6.502   4.237  11.131 -0.9951  0.2065 -0.9049
  145SAPE  H11B15882   6.520   4.325  11.289 -0.0155 -0.5035 -0.4205
  145SAPE     P15883   6.222   4.254  11.158 -0.3456  0.1714 -0.0401
  145SAPE   O1315884   6.178   4.121  11.120 -0.3557  0.3787 -0.3603
  145SAPE   O1415885   6.117   4.349  11.196  0.1599  0.2257 -0.1356
  145SAPE   O1215886   6.331   4.248  11.269 -0.0754 -0.7810  0.6739
  145SAPE   O1115887   6.304   4.312  11.030 -0.3040 -0.3738  0.7909
  145SAPE    C115888   6.338   4.448  11.007  0.0619 -0.3373 -0.3673
  145SAPE    HA15889   6.256   4.519  11.028  1.0700  0.2654  1.9299
  145SAPE    HB15890   6.410   4.476  11.087 -2.8740  2.5322  1.4817
  145SAPE    C215891   6.404   4.457  10.868  0.2890 -0.2923  0.1552
  145SAPE    HS15892   6.443   4.561  10.859  1.0816 -0.6696 -0.8438
  145SAPE   O2115893   6.314   4.425  10.758  1.1557  0.0878  0.2874
  145SAPE   C2115894   6.210   4.504  10.735 -0.1764  0.7505  0.4442
  145SAPE   O2215895   6.180   4.595  10.802  0.1330  0.1395 -0.2667
  145SAPE   C2215896   6.140   4.469  10.608  0.6144  0.3077  0.6479
  145SAPE   H2R15897   6.206   4.406  10.545 -0.4345  0.2174 -0.3803
  145SAPE   H2S15898   6.039   4.428  10.631  0.1006  1.2293  0.1043
  145SAPE    C315899   6.534   4.368  10.855  0.0216  0.3495 -0.2717
  145SAPE    HX15900   6.491   4.266  10.864 -1.4390  1.0090  0.5172
  145SAPE    HY15901   6.619   4.383  10.925 -2.3179  0.8217  2.6565
  145SAPE   O3115902   6.579   4.372  10.721 -0.2929  0.5690  0.2858
  145SAPE   C3115903   6.655   4.472  10.680  0.1885 -0.0819  0.0942
  145SAPE   O3215904   6.706   4.557  10.760  0.4593 -0.2361 -0.0536
  145SAPE   C3215905   6.679   4.451  10.538 -0.4120 -0.6056  0.1147
  145SAPE   H2X15906   6.758   4.375  10.522  0.4988  0.1532  0.8977
  145SAPE   H2Y15907   6.724   4.543  10.494  2.1042 -0.5207  2.6409
  145SAPE   C2315908   6.120   4.595  10.522  0.1862  0.0090 -0.8198
  145SAPE   H3R15909   6.218   4.646  10.510  0.2010  0.9233  2.2730
  145SAPE   H3S15910   6.048   4.665  10.571 -1.9686 -1.4441 -1.7571
  145SAPE   C2415911   6.064   4.568  10.381 -0.2225 -0.4681 -0.2781
  145SAPE   H4R15912   6.038   4.667  10.339  1.7729  0.1716 -0.1298
  145SAPE   H4S15913   5.972   4.506  10.394 -0.0431 -0.8568 -0.8111
  145SAPE   C2515914   6.160   4.488  10.297  1.2516  0.2124  0.5340
  145SAPE   H5R15915   6.175   4.382  10.325  2.0733  0.3407  0.6102
  145SAPE   C2615916   6.229   4.530  10.193  0.6670  0.5759 -0.4353
  145SAPE   H6R15917   6.302   4.462  10.148 -0.4173 -1.5936  0.9363
  145SAPE   C2715918   6.230   4.678  10.146  0.3437 -0.0393  0.3601
  145SAPE   H7R15919   6.236   4.743  10.236 -4.4559 -0.5951  1.3478
  145SAPE   H7S15920   6.126   4.708  10.121  0.6733  1.1042  0.2866
  145SAPE   C2815921   6.331   4.742  10.046 -0.3093 -0.7427 -0.4860
  145SAPE   H8R15922   6.413   4.807  10.079 -0.5739  0.0418 -1.3167
  145SAPE   C2915923   6.326   4.744   9.912 -0.1784  0.2455 -0.6768
  145SAPE   H9R15924   6.411   4.790   9.861  1.2696  1.8719  2.8715
  145SAPE  C21015925   6.223   4.672   9.830  0.0211 -0.2845 -0.8374
  145SAPE  H10R15926   6.150   4.739   9.779 -0.8424 -1.0376 -0.6161
  145SAPE  H10S15927   6.146   4.617   9.888 -0.0390  1.3532  0.7315
  145SAPE  C21115928   6.295   4.580   9.732  0.5822 -0.0346 -0.7691
  145SAPE  H11R15929   6.321   4.481   9.771 -1.8803  0.1299  1.6119
  145SAPE  C21215930   6.330   4.624   9.610 -0.1943 -0.4236 -0.0192
  145SAPE  H12R15931   6.383   4.544   9.556 -2.0019 -2.1752  0.6900
  145SAPE  C21315932   6.326   4.757   9.542  0.3565 -0.2612  0.3387
  145SAPE  H13R15933   6.417   4.769   9.480 -0.1720  0.6871 -0.2876
  145SAPE  H13S15934   6.312   4.840   9.615 -0.7811  1.0938 -1.3233
  145SAPE  C21415935   6.203   4.770   9.462  0.6442 -0.4381  0.2482
  145SAPE  H14R15936   6.114   4.760   9.526  1.5860  1.1090  1.8966
  145SAPE  C21515937   6.191   4.797   9.324 -0.3851  0.0711 -0.2247
  145SAPE  H15R15938   6.085   4.803   9.295 -1.3499  0.4899  2.9751
  145SAPE  C21615939   6.303   4.816   9.219 -0.2178 -0.5810 -0.2188
  145SAPE  H16R15940   6.364   4.725   9.201  1.6492  0.7877 -1.2661
  145SAPE  H16S15941   6.378   4.895   9.241  0.7089 -0.7123 -2.5457
  145SAPE  C21715942   6.236   4.872   9.095 -0.8592  0.0047  0.3179
  145SAPE  H17R15943   6.187   4.967   9.124  0.8478  0.5493  1.6347
  145SAPE  H17S15944   6.153   4.804   9.066 -0.5625  0.2870 -1.2946
  145SAPE  C21815945   6.337   4.910   8.991 -0.1203 -0.0473  0.2085
  145SAPE  H18R15946   6.377   4.809   8.965 -2.2520 -1.3813  1.8017
  145SAPE  H18S15947   6.416   4.982   9.022  0.2111 -1.0250  1.7203
  145SAPE  C21915948   6.269   4.969   8.866  0.7452 -0.2078 -0.4989
  145SAPE  H19R15949   6.339   5.016   8.794 -0.6476  0.2625 -1.5934
  145SAPE  H19S15950   6.209   5.054   8.903  0.6534 -0.5586  0.1663
  145SAPE  C22015951   6.180   4.874   8.787 -0.3078  0.2876 -0.1619
  145SAPE  H20R15952   6.242   4.800   8.731 -0.5099  0.5501 -0.7440
  145SAPE  H20S15953   6.130   4.943   8.716 -0.4485 -0.9457 -1.3150
  145SAPE  H20T15954   6.112   4.817   8.853 -0.8335  1.2476  0.1478
  145SAPE   C3315955   6.551   4.404  10.456 -0.2541 -0.6552 -0.3091
  145SAPE   H3X15956   6.473   4.483  10.453  0.6778  0.3375  0.6168
  145SAPE   H3Y15957   6.511   4.313  10.505  2.7132 -1.6572  0.5225
  145SAPE   C3415958   6.594   4.381  10.303 -0.0779 -0.2828 -0.8034
  145SAPE   H4X15959   6.502   4.348  10.252 -0.6169  0.8490 -0.6036
  145SAPE   H4Y15960   6.670   4.301  10.303 -0.0478 -0.3529  1.8609
  145SAPE   C3515961   6.646   4.511  10.243 -0.0562 -0.0581 -0.3309
  145SAPE   H5X15962   6.746   4.523  10.291  0.7201  0.3577 -1.9709
  145SAPE   H5Y15963   6.577   4.593  10.271  0.3646  0.3807 -0.5706
  145SAPE   C3615964   6.663   4.488  10.088 -0.2593  0.1171 -0.0249
  145SAPE   H6X15965   6.583   4.422  10.047  0.6385 -1.4426  0.6201
  145SAPE   H6Y15966   6.754   4.429  10.062 -0.7584 -0.2589 -0.9450
  145SAPE   C3715967   6.676   4.614  10.002  0.1471 -0.7046  0.1710
  145SAPE   H7X15968   6.773   4.662  10.027  0.8103 -1.8781 -0.0476
  145SAPE   H7Y15969   6.600   4.690  10.032 -1.0861 -1.5380 -0.7202
  145SAPE   C3815970   6.666   4.593   9.849  0.2597  0.1357  0.0760
  145SAPE   H8X15971   6.660   4.692   9.799 -1.2588  0.2343  0.4028
  145SAPE   H8Y15972   6.573   4.534   9.831  1.9083 -2.3030 -1.0767
  145SAPE   C3915973   6.777   4.528   9.774 -0.4715  0.5327  0.3821
  145SAPE   H9X15974   6.785   4.418   9.788 -0.5237  0.1378 -2.1270
  145SAPE   H9Y15975   6.872   4.571   9.812 -0.7828  2.6154 -1.0630
  145SAPE  C31015976   6.752   4.559   9.620  0.8213 -0.6148 -1.0617
  145SAPE  H10X15977   6.736   4.668   9.603 -0.2747 -0.6780 -0.5581
  145SAPE  H10Y15978   6.657   4.514   9.585  0.0329 -0.5195  0.8538
  145SAPE  C31115979   6.867   4.518   9.531 -0.2165  0.5407  0.4864
  145SAPE  H11X15980   6.887   4.411   9.553 -0.5100  0.7048  1.5938
  145SAPE  H11Y15981   6.950   4.586   9.558  0.3480  0.5949 -1.2332
  145SAPE  C31215982   6.835   4.538   9.380 -0.4162 -0.0195  0.6115
  145SAPE  H12X15983   6.931   4.550   9.325 -0.3865 -0.0495  0.6562
  145SAPE  H12Y15984   6.784   4.637   9.378 -0.5035 -0.0626 -1.4355
  145SAPE  C31315985   6.753   4.446   9.294 -0.6806  0.2879 -0.0836
  145SAPE  H13X15986   6.674   4.405   9.360 -0.6453  0.3343 -0.0121
  145SAPE  H13Y15987   6.822   4.369   9.252 -4.0518 -3.2650  0.3141
  145SAPE  C31415988   6.680   4.535   9.191  0.8258  0.5784  0.1057
  145SAPE  H14X15989   6.754   4.611   9.157  2.0053 -0.4202  0.3704
  145SAPE  H14Y15990   6.591   4.581   9.239  0.1931  1.5099 -1.8521
  145SAPE  C31515991   6.630   4.449   9.077 -0.0174  0.5842  0.6722
  145SAPE  H15X15992   6.550   4.383   9.117 -2.6619  3.0524 -0.2118
  145SAPE  H15Y15993   6.717   4.389   9.043 -1.3432 -1.1878  0.2398
  145SAPE  C31615994   6.578   4.526   8.960 -0.2498 -0.6059 -0.6908
  145SAPE  H16X15995   6.501   4.598   8.993  0.8830  0.4027 -0.1826
  145SAPE  H16Y15996   6.532   4.445   8.899 -1.0153 -2.3544  2.0377
  145SAPE  C31715997   6.681   4.595   8.872  0.4615  0.1147 -0.2460
  145SAPE  H17X15998   6.766   4.523   8.872 -0.7807 -1.4111  0.9407
  145SAPE  H17Y15999   6.726   4.687   8.915 -1.8999  0.7751  0.9657
  145SAPE  C31816000   6.637   4.623   8.727  0.3586  0.4474 -0.3210
  145SAPE  H18X16001   6.598   4.529   8.682  1.1540 -0.6599  1.1909
  145SAPE  H18Y16002   6.718   4.659   8.661  2.2659 -0.8165  1.2162
  145SAPE  H18Z16003   6.556   4.699   8.736 -2.3779 -2.3185  0.4322
  146SAPE     N16004   3.008   3.782  10.842 -0.0365 -0.5071 -0.7287
  146SAPE   HN116005   3.065   3.697  10.822 -1.5731 -1.8635  0.3912
  146SAPE   HN216006   2.936   3.790  10.767  1.4467 -1.9253 -2.3873
  146SAPE   HN316007   3.074   3.860  10.823  1.2351 -0.9812  1.4014
  146SAPE   C1216008   2.959   3.782  10.980 -0.8435  0.1151  0.1217
  146SAPE  H12A16009   2.912   3.882  10.985 -0.2150  0.4777 -0.7947
  146SAPE  H12B16010   3.050   3.788  11.043 -1.5622  4.8215  1.0767
  146SAPE   C1116011   2.869   3.663  11.022  0.9743 -0.8733  0.2763
  146SAPE  H11A16012   2.771   3.672  10.971  0.3128 -1.1009  1.4743
  146SAPE  H11B16013   2.845   3.683  11.128  2.2872  0.5773  0.3376
  146SAPE     P16014   2.828   3.403  11.006 -0.1622 -0.4121  0.2624
  146SAPE   O1316015   2.816   3.369  11.151  0.0214 -0.4501  0.7545
  146SAPE   O1416016   2.703   3.432  10.936 -0.2328  0.2764 -0.3867
  146SAPE   O1216017   2.924   3.535  10.988 -0.0519  0.5719 -0.1882
  146SAPE   O1116018   2.896   3.284  10.926 -0.2270 -0.5414  0.2505
  146SAPE    C116019   2.972   3.327  10.809 -0.1656  0.2652 -0.3814
  146SAPE    HA16020   3.014   3.429  10.820  1.0486 -0.4273  2.1887
  146SAPE    HB16021   3.064   3.265  10.804  0.1154  0.6987 -0.6467
  146SAPE    C216022   2.904   3.301  10.676  0.5087 -0.2459  0.3181
  146SAPE    HS16023   2.830   3.383  10.677  0.3401 -0.3948  1.1161
  146SAPE   O2116024   2.846   3.172  10.679 -0.0443 -0.6982  0.0988
  146SAPE   C2116025   2.728   3.166  10.640  0.1092 -0.2044 -0.2371
  146SAPE   O2216026   2.657   3.258  10.598 -0.2422 -0.4599  0.5554
  146SAPE   C2216027   2.695   3.015  10.639  0.0947  0.5564  0.0694
  146SAPE   H2R16028   2.783   2.962  10.682  0.1308  0.4842 -0.0918
  146SAPE   H2S16029   2.612   2.995  10.710 -0.4049  1.9302 -0.0927
  146SAPE    C316030   2.994   3.315  10.555  0.0610  0.1684  0.8563
  146SAPE    HX16031   3.070   3.235  10.554  2.2094  2.0695  2.3683
  146SAPE    HY16032   3.052   3.409  10.567  2.0251 -1.1420  1.9939
  146SAPE   O3116033   2.910   3.309  10.436 -0.2595 -0.6095  0.0460
  146SAPE   C3116034   2.873   3.421  10.384 -0.0346 -0.7957 -0.4440
  146SAPE   O3216035   2.906   3.533  10.417 -0.0295 -0.4525 -0.5512
  146SAPE   C3216036   2.785   3.395  10.262  0.2520 -0.0882  0.1112
  146SAPE   H2X16037   2.688   3.351  10.293 -0.9975 -1.2855 -4.6503
  146SAPE   H2Y16038   2.835   3.335  10.182  3.4992 -0.1937  2.0576
  146SAPE   C2316039   2.676   2.946  10.497  0.0948  0.0162 -0.5906
  146SAPE   H3R16040   2.703   2.840  10.513  1.0592  0.2681 -0.4846
  146SAPE   H3S16041   2.758   2.988  10.435  1.4523  0.2616  1.2755
  146SAPE   C2416042   2.539   2.962  10.444  0.2336 -0.4861 -0.1180
  146SAPE   H4R16043   2.465   2.944  10.525  0.1558 -2.2224 -0.5501
  146SAPE   H4S16044   2.516   2.872  10.384  0.7587 -1.4049  1.0080
  146SAPE   C2516045   2.511   3.096  10.382 -0.0757 -0.8234  0.0219
  146SAPE   H5R16046   2.473   3.166  10.458 -0.3388 -1.5602  0.5839
  146SAPE   C2616047   2.497   3.124  10.254  0.5824  0.4941  0.0949
  146SAPE   H6R16048   2.481   3.228  10.222 -0.2273  0.3667  0.0629
  146SAPE   C2716049   2.521   3.023  10.149  0.8592  0.4993 -0.4484
  146SAPE   H7R16050   2.521   2.917  10.182 -2.1404  0.2757 -0.8644
  146SAPE   H7S16051   2.618   3.055  10.103  0.1060  0.5380 -2.0969
  146SAPE   C2816052   2.408   3.042  10.047 -0.7262  0.2775  1.3149
  146SAPE   H8R16053   2.310   3.055  10.097 -1.2578 -0.3344  0.4430
  146SAPE   C2916054   2.425   3.037   9.910  0.4243 -0.4370  0.2179
  146SAPE   H9R16055   2.333   3.066   9.857  1.2464  0.7862 -0.5755
  146SAPE  C21016056   2.546   3.008   9.825 -0.0558 -0.0228 -0.4160
  146SAPE  H10R16057   2.530   2.921   9.759 -1.5889  0.7923 -1.1835
  146SAPE  H10S16058   2.635   2.988   9.888  0.0213  1.2573 -0.0885
  146SAPE  C21116059   2.571   3.127   9.739  0.1194  0.3263  0.7852
  146SAPE  H11R16060   2.634   3.207   9.780  1.2895  1.4953 -2.9258
  146SAPE  C21216061   2.541   3.140   9.608  0.1678 -0.0174  0.2032
  146SAPE  H12R16062   2.574   3.227   9.550 -0.9813 -1.2388 -2.4552
  146SAPE  C21316063   2.462   3.050   9.519  0.1175  1.2679 -0.3491
  146SAPE  H13R16064   2.406   3.113   9.447 -1.9623  3.4956  2.9797
  146SAPE  H13S16065   2.376   3.003   9.572  0.1582  0.2012 -1.1711
  146SAPE  C21416066   2.537   2.934   9.457  0.3639 -0.1293 -0.3343
  146SAPE  H14R16067   2.517   2.839   9.508  0.4405  0.5154  0.9414
  146SAPE  C21516068   2.617   2.939   9.352 -0.8618 -0.8858  0.3283
  146SAPE  H15R16069   2.657   2.844   9.312  1.0645  0.2804 -0.6648
  146SAPE  C21616070   2.655   3.064   9.278 -0.3103  0.7002  0.5122
  146SAPE  H16R16071   2.755   3.048   9.232 -1.4465 -3.9518 -0.9430
  146SAPE  H16S16072   2.670   3.141   9.356  1.0209  1.5455 -0.5333
  146SAPE  C21716073   2.558   3.105   9.163  0.5803  0.2949 -0.3775
  146SAPE  H17R16074   2.582   3.212   9.149  1.3625  0.6991  3.2464
  146SAPE  H17S16075   2.452   3.110   9.195 -0.0560 -1.9121 -1.8828
  146SAPE  C21816076   2.554   3.019   9.033  0.7857 -0.5916 -0.5950
  146SAPE  H18R16077   2.464   3.064   8.985  0.6706  1.7753  1.6639
  146SAPE  H18S16078   2.536   2.911   9.055 -1.8645 -0.5586 -2.1044
  146SAPE  C21916079   2.678   3.029   8.937  0.0870  0.2325 -0.6290
  146SAPE  H19R16080   2.656   2.974   8.843  0.9042 -1.4651  0.1242
  146SAPE  H19S16081   2.765   2.971   8.974 -0.6429 -0.1468  0.5617
  146SAPE  C22016082   2.730   3.165   8.902  0.0815 -0.2317 -0.4640
  146SAPE  H20R16083   2.780   3.219   8.985  1.1919 -0.2687 -1.0731
  146SAPE  H20S16084   2.648   3.232   8.869 -0.3032  0.3878  1.6000
  146SAPE  H20T16085   2.804   3.164   8.818  1.3946  2.3852  0.5348
  146SAPE   C3316086   2.751   3.526  10.181  0.4126 -0.3204 -0.5783
  146SAPE   H3X16087   2.838   3.588  10.154 -1.4348  2.2351 -1.0671
  146SAPE   H3Y16088   2.671   3.585  10.232 -1.6640 -0.6955 -3.2078
  146SAPE   C3416089   2.694   3.500  10.042  0.3663  0.8816 -0.2285
  146SAPE   H4X16090   2.593   3.454  10.048 -0.1225  2.0818  1.1269
  146SAPE   H4Y16091   2.755   3.436   9.974 -0.8196  0.4591 -0.9260
  146SAPE   C3516092   2.670   3.631   9.962  0.3851  0.3156  0.1053
  146SAPE   H5X16093   2.762   3.693   9.969  0.5318  0.0289  0.7897
  146SAPE   H5Y16094   2.590   3.693  10.008  0.5890  0.7590 -0.1305
  146SAPE   C3616095   2.627   3.607   9.814  0.6273 -0.4864  0.1954
  146SAPE   H6X16096   2.567   3.695   9.781  1.9716 -0.1348 -1.4821
  146SAPE   H6Y16097   2.550   3.528   9.799 -1.4031  1.6428 -1.3941
  146SAPE   C3716098   2.740   3.605   9.711 -0.8237  0.6208  0.0036
  146SAPE   H7X16099   2.795   3.509   9.701  0.0372  1.2299 -1.4855
  146SAPE   H7Y16100   2.816   3.684   9.734  1.1418 -0.7493 -1.4768
  146SAPE   C3816101   2.698   3.644   9.563  0.4008 -0.1220 -0.3703
  146SAPE   H8X16102   2.770   3.727   9.543  1.4611 -0.9825 -0.2276
  146SAPE   H8Y16103   2.597   3.690   9.561  0.0894 -0.7219 -3.0956
  146SAPE   C3916104   2.709   3.534   9.452 -0.1139 -0.1521  0.4372
  146SAPE   H9X16105   2.636   3.455   9.477 -1.1007  1.1846  2.0522
  146SAPE   H9Y16106   2.813   3.494   9.451  0.4380  1.1658 -1.1947
  146SAPE  C31016107   2.687   3.594   9.312 -0.9254 -0.1247 -0.1109
  146SAPE  H10X16108   2.757   3.679   9.301 -1.2661  0.1640 -0.0571
  146SAPE  H10Y16109   2.581   3.628   9.315 -0.8272  0.1223  0.9519
  146SAPE  C31116110   2.717   3.490   9.198  0.3527 -0.2114  1.1424
  146SAPE  H11X16111   2.648   3.404   9.214  0.9519 -1.0678 -0.5370
  146SAPE  H11Y16112   2.816   3.441   9.211 -1.9013 -5.2475  1.7942
  146SAPE  C31216113   2.695   3.545   9.050 -0.3320  0.4544  0.3834
  146SAPE  H12X16114   2.763   3.501   8.974 -0.2285  1.0889  0.1032
  146SAPE  H12Y16115   2.713   3.654   9.048 -0.5311  0.4792 -0.8197
  146SAPE  C31316116   2.554   3.508   9.001 -0.2995  0.0342  0.0790
  146SAPE  H13X16117   2.483   3.554   9.073  2.0391  0.2899  2.3896
  146SAPE  H13Y16118   2.532   3.401   9.019 -0.0872 -0.0405 -0.0980
  146SAPE  C31416119   2.527   3.520   8.852  0.1753  0.0444  0.8932
  146SAPE  H14X16120   2.416   3.519   8.844  0.1483 -1.5431  1.1151
  146SAPE  H14Y16121   2.575   3.438   8.795  2.4290  0.9267  1.4078
  146SAPE  C31516122   2.554   3.660   8.786 -1.1636  0.0054  0.5207
  146SAPE  H15X16123   2.523   3.743   8.853 -0.1287  2.5622 -1.9766
  146SAPE  H15Y16124   2.486   3.659   8.698  0.3766 -2.5103 -0.7366
  146SAPE  C31616125   2.697   3.687   8.755 -1.0961 -0.7019  0.0944
  146SAPE  H16X16126   2.745   3.607   8.694 -3.0528 -0.6620 -1.6023
  146SAPE  H16Y16127   2.757   3.701   8.848 -0.5758 -1.1641 -0.1597
  146SAPE  C31716128   2.704   3.826   8.682  0.2314 -0.1411  0.7640
  146SAPE  H17X16129   2.638   3.895   8.738  0.5303  0.5888  0.2277
  146SAPE  H17Y16130   2.653   3.810   8.584  0.5686 -0.2512  0.6054
  146SAPE  C31816131   2.826   3.909   8.658 -0.1126 -0.2504  0.2022
  146SAPE  H18X16132   2.861   3.958   8.751 -0.1589  1.0189 -0.4317
  146SAPE  H18Y16133   2.796   3.988   8.585 -0.9393  0.4167  1.2210
  146SAPE  H18Z16134   2.912   3.863   8.605 -0.3863 -1.2472  0.5982
  147SAPE     N16135   1.035   6.321   6.239  0.1560 -1.2123  0.3891
  147SAPE   HN116136   1.001   6.223   6.236 -0.1699 -1.0838 -0.3707
  147SAPE   HN216137   1.015   6.352   6.336 -1.9554  2.7121 -1.0472
  147SAPE   HN316138   0.968   6.376   6.182  0.0041 -1.6058  0.1870
  147SAPE   C1216139   1.182   6.344   6.214 -0.7621 -0.5093 -0.3575
  147SAPE  H12A16140   1.203   6.453   6.215  0.1574 -0.6782  0.6609
  147SAPE  H12B16141   1.210   6.308   6.112  0.8633  1.5019 -0.6977
  147SAPE   C1116142   1.263   6.267   6.310 -0.4176  0.4856 -0.2330
  147SAPE  H11A16143   1.233   6.289   6.415  1.3493 -3.2291  1.2251
  147SAPE  H11B16144   1.374   6.265   6.305 -0.4253 -1.7545 -0.3861
  147SAPE     P16145   1.311   6.013   6.237 -0.2636  0.1773 -0.3832
  147SAPE   O1316146   1.235   5.889   6.259 -0.0106 -0.4982  0.2633
  147SAPE   O1416147   1.357   6.035   6.098  0.0415  0.1000  0.2241
  147SAPE   O1216148   1.225   6.131   6.291  0.1570  0.0667  0.0455
  147SAPE   O1116149   1.440   6.019   6.325 -0.4324 -0.1272  0.4159
  147SAPE    C116150   1.432   6.030   6.468  0.7783  0.2153 -0.0748
  147SAPE    HA16151   1.365   6.116   6.492  1.7348  0.7909  0.6166
  147SAPE    HB16152   1.383   5.942   6.515 -0.0565  0.7712  0.1076
  147SAPE    C216153   1.572   6.048   6.536  0.0056 -0.1637  0.4067
  147SAPE    HS16154   1.622   6.111   6.459  1.8210 -1.3562  0.5442
  147SAPE   O2116155   1.632   5.918   6.549 -0.4810 -0.3464 -0.3194
  147SAPE   C2116156   1.762   5.920   6.549 -0.8370  0.4616  0.0181
  147SAPE   O2216157   1.835   6.007   6.502 -0.4833  0.7537 -0.4038
  147SAPE   C2216158   1.812   5.788   6.585 -0.8120  0.6635 -0.5519
  147SAPE   H2R16159   1.721   5.736   6.621 -0.7883  1.3182  0.4799
  147SAPE   H2S16160   1.854   5.729   6.501  3.4720  0.5869  1.3812
  147SAPE    C316161   1.566   6.131   6.662  0.0511  0.2695  0.2133
  147SAPE    HX16162   1.509   6.086   6.747 -0.0171  0.7220  0.4090
  147SAPE    HY16163   1.518   6.230   6.644 -0.1607  1.2287  4.7467
  147SAPE   O3116164   1.697   6.149   6.723  0.2559  0.0131  0.5951
  147SAPE   C3116165   1.701   6.218   6.834  0.9206 -0.6618 -0.4549
  147SAPE   O3216166   1.606   6.264   6.895  0.1158  0.1871 -0.2120
  147SAPE   C3216167   1.841   6.209   6.889  0.2992 -0.5432  0.4933
  147SAPE   H2X16168   1.913   6.208   6.804 -1.8018  0.5861 -1.3797
  147SAPE   H2Y16169   1.844   6.109   6.938  1.7168  0.3758  2.4073
  147SAPE   C2316170   1.925   5.796   6.695  0.7755  0.3713  0.3285
  147SAPE   H3R16171   1.885   5.860   6.777 -0.0908 -0.3512  0.4852
  147SAPE   H3S16172   2.012   5.838   6.640 -0.5991 -0.4818 -2.6882
  147SAPE   C2416173   1.950   5.653   6.744 -0.0999  0.0499 -0.0126
  147SAPE   H4R16174   1.965   5.599   6.648 -0.4367  0.3557 -0.2417
  147SAPE   H4S16175   1.860   5.606   6.789 -0.7568 -0.3626 -1.6771
  147SAPE   C2516176   2.073   5.636   6.831  0.9355 -0.5740  0.2638
  147SAPE   H5R16177   2.162   5.614   6.770  0.2039  1.4605 -1.6929
  147SAPE   C2616178   2.083   5.660   6.966 -0.0225 -0.6131  0.7172
  147SAPE   H6R16179   2.179   5.643   7.017  0.3654 -1.7068 -0.3141
  147SAPE   C2716180   1.966   5.689   7.058 -0.0154  0.6101  0.5230
  147SAPE   H7R16181   1.867   5.703   7.009  0.2075  0.5573  0.0504
  147SAPE   H7S16182   1.978   5.777   7.124 -1.6709  0.2304  1.3673
  147SAPE   C2816183   1.953   5.558   7.142 -1.2556 -0.5432  0.5568
  147SAPE   H8R16184   1.889   5.482   7.096 -2.2052  1.0426 -0.8580
  147SAPE   C2916185   2.008   5.546   7.264 -0.8356  0.0581  0.1718
  147SAPE   H9R16186   1.995   5.445   7.306  1.4792 -1.3956 -2.2966
  147SAPE  C21016187   2.086   5.646   7.341  0.2396 -0.2270 -0.0736
  147SAPE  H10R16188   2.006   5.720   7.363 -2.0965 -2.0117 -2.1082
  147SAPE  H10S16189   2.165   5.694   7.278  0.5788  1.7180  1.6952
  147SAPE  C21116190   2.147   5.592   7.470 -0.1180 -0.0918  1.2994
  147SAPE  H11R16191   2.234   5.527   7.453 -0.4548  0.3185 -3.0525
  147SAPE  C21216192   2.105   5.619   7.591  0.3669  0.0521  0.1662
  147SAPE  H12R16193   2.153   5.562   7.672  0.4891  0.7062  0.5615
  147SAPE  C21316194   2.004   5.722   7.640  0.2708 -0.6695 -0.0039
  147SAPE  H13R16195   1.914   5.674   7.686 -0.3714  0.5194  0.0241
  147SAPE  H13S16196   1.962   5.781   7.555  1.1365  1.5506  1.0359
  147SAPE  C21416197   2.067   5.820   7.739 -0.0868  0.0054 -0.9427
  147SAPE  H14R16198   2.144   5.885   7.695  2.3842 -1.0616  1.5530
  147SAPE  C21516199   2.029   5.847   7.867  0.1457 -0.5950 -1.2533
  147SAPE  H15R16200   2.098   5.910   7.924 -0.4338 -4.2258  4.3518
  147SAPE  C21616201   1.921   5.787   7.959 -0.1504 -1.1024  0.0336
  147SAPE  H16R16202   1.928   5.676   7.949 -1.5322 -1.1741 -0.3158
  147SAPE  H16S16203   1.816   5.805   7.928  0.1131  0.5061 -0.0084
  147SAPE  C21716204   1.916   5.829   8.107 -0.4587 -0.5127 -0.3921
  147SAPE  H17R16205   2.019   5.822   8.149 -0.1734  0.4726 -0.9092
  147SAPE  H17S16206   1.847   5.762   8.163 -0.2374  0.4250  1.0787
  147SAPE  C21816207   1.864   5.970   8.127  0.6821 -0.5190 -0.5871
  147SAPE  H18R16208   1.755   5.973   8.109  0.8085 -1.2385 -1.5444
  147SAPE  H18S16209   1.913   6.039   8.055  0.3906 -1.6556 -1.9230
  147SAPE  C21916210   1.887   6.027   8.269  0.2679 -0.5740  0.7501
  147SAPE  H19R16211   1.832   6.122   8.288  1.2293 -0.1576  1.5193
  147SAPE  H19S16212   1.992   6.063   8.278 -0.3391  1.1352  1.6092
  147SAPE  C22016213   1.854   5.927   8.386  0.6411  0.3425  0.3464
  147SAPE  H20R16214   1.746   5.899   8.388  1.0956 -1.8139 -1.0963
  147SAPE  H20S16215   1.882   5.963   8.487 -2.3624 -0.4729  1.5835
  147SAPE  H20T16216   1.911   5.832   8.370 -0.2267  0.1786 -2.3402
  147SAPE   C3316217   1.888   6.310   6.993  0.0616  0.0080 -0.3980
  147SAPE   H3X16218   1.858   6.414   6.967 -0.0347 -0.0003 -0.3178
  147SAPE   H3Y16219   1.999   6.309   7.003 -0.0171 -0.2953  0.5419
  147SAPE   C3416220   1.828   6.267   7.130  0.0114 -0.1156 -0.1569
  147SAPE   H4X16221   1.882   6.180   7.172 -0.2498  0.4384  1.3838
  147SAPE   H4Y16222   1.717   6.253   7.126 -0.0731  0.8164 -2.1416
  147SAPE   C3516223   1.861   6.376   7.235 -0.5680 -0.6962 -0.2922
  147SAPE   H5X16224   1.856   6.480   7.197  0.0813 -0.8600 -0.8553
  147SAPE   H5Y16225   1.964   6.359   7.273 -1.0441 -1.2359  0.7920
  147SAPE   C3616226   1.760   6.373   7.351  0.3910 -0.2386 -0.0718
  147SAPE   H6X16227   1.762   6.274   7.401 -0.6462 -1.1409 -1.7151
  147SAPE   H6Y16228   1.662   6.378   7.299  0.6580 -2.8055 -0.9783
  147SAPE   C3716229   1.775   6.494   7.446  0.3553  0.7299  0.2853
  147SAPE   H7X16230   1.787   6.593   7.397 -4.4938  1.1556 -0.5784
  147SAPE   H7Y16231   1.864   6.480   7.511 -0.9230  1.2385  2.2347
  147SAPE   C3816232   1.651   6.504   7.533  0.4281 -0.6530  0.2262
  147SAPE   H8X16233   1.607   6.404   7.553  0.8325 -0.6537  1.1574
  147SAPE   H8Y16234   1.567   6.554   7.480  0.0320 -0.1705  1.2880
  147SAPE   C3916235   1.681   6.575   7.662 -0.2943  0.1643  0.0442
  147SAPE   H9X16236   1.721   6.675   7.635  0.0506  1.3533  4.2748
  147SAPE   H9Y16237   1.746   6.512   7.726 -1.5616  0.8998  2.1635
  147SAPE  C31016238   1.552   6.604   7.743  0.5700 -0.7472  0.4521
  147SAPE  H10X16239   1.499   6.509   7.766  0.0745 -0.2804  1.3113
  147SAPE  H10Y16240   1.492   6.670   7.677  0.7495 -1.8201 -0.8178
  147SAPE  C31116241   1.573   6.677   7.871 -0.3370 -0.3697  0.1989
  147SAPE  H11X16242   1.621   6.776   7.857 -1.8384  0.3976  0.2429
  147SAPE  H11Y16243   1.620   6.617   7.952 -1.2361  0.7360  1.6036
  147SAPE  C31216244   1.435   6.706   7.940 -0.9740  0.6111  0.3467
  147SAPE  H12X16245   1.461   6.752   8.038  1.9890  0.1824 -0.1442
  147SAPE  H12Y16246   1.385   6.607   7.954  1.3207 -0.8350 -1.0692
  147SAPE  C31316247   1.344   6.792   7.859  0.3744  1.1981  0.1502
  147SAPE  H13X16248   1.316   6.729   7.772  1.6805  0.0863  0.5063
  147SAPE  H13Y16249   1.402   6.880   7.822  1.0278 -0.1361 -2.1922
  147SAPE  C31416250   1.217   6.824   7.941  0.0695 -0.3445  0.9135
  147SAPE  H14X16251   1.197   6.743   8.015 -3.8869  0.2604  0.7596
  147SAPE  H14Y16252   1.135   6.827   7.865  0.1137 -0.6627  0.8516
  147SAPE  C31516253   1.212   6.966   7.996  0.0503  0.2296  0.8483
  147SAPE  H15X16254   1.107   7.001   8.002 -0.1942 -0.5671  1.3864
  147SAPE  H15Y16255   1.265   7.040   7.932 -2.5147  1.3886 -0.0383
  147SAPE  C31616256   1.282   6.979   8.135 -0.2781  0.2801  0.0958
  147SAPE  H16X16257   1.288   7.088   8.156 -1.7404  0.2551  0.7972
  147SAPE  H16Y16258   1.387   6.945   8.126 -0.2831 -0.0624  1.2061
  147SAPE  C31716259   1.216   6.895   8.247  0.5121 -0.5132  0.2037
  147SAPE  H17X16260   1.190   6.789   8.225 -3.3743 -0.2747  2.6930
  147SAPE  H17Y16261   1.112   6.936   8.251 -0.1610 -1.7693 -2.2122
  147SAPE  C31816262   1.284   6.899   8.384 -0.1167  0.3933 -0.6630
  147SAPE  H18X16263   1.388   6.864   8.365 -0.4959 -0.4644 -1.2195
  147SAPE  H18Y16264   1.231   6.831   8.453  0.2938 -1.6341 -2.2606
  147SAPE  H18Z16265   1.299   7.004   8.418  2.3288  0.3413 -1.3581
  148SAPE     N16266   6.375   6.001   6.529  0.1893  0.0559  0.0097
  148SAPE   HN116267   6.361   6.037   6.625  0.7574  1.2904 -0.3528
  148SAPE   HN216268   6.289   5.948   6.505 -0.8043  2.1449 -1.3744
  148SAPE   HN316269   6.452   5.931   6.534  0.8548  0.8706  1.8263
  148SAPE   C1216270   6.390   6.106   6.424 -0.4745  0.1280 -0.0520
  148SAPE  H12A16271   6.313   6.185   6.439 -0.7574  0.2157 -1.7774
  148SAPE  H12B16272   6.371   6.054   6.328 -0.8617  1.5260 -0.7579
  148SAPE   C1116273   6.527   6.171   6.415 -0.3546  0.0719  0.0581
  148SAPE  H11A16274   6.527   6.251   6.337  0.5817 -0.4002 -0.4460
  148SAPE  H11B16275   6.617   6.109   6.393 -0.2909 -0.5011  1.7774
  148SAPE     P16276   6.522   6.361   6.594 -0.2305  0.2426  0.3120
  148SAPE   O1316277   6.602   6.375   6.714 -0.1957  0.1034  0.0891
  148SAPE   O1416278   6.537   6.464   6.486 -0.2511 -0.0055  0.3619
  148SAPE   O1216279   6.567   6.229   6.535  0.4409 -0.1417 -0.3813
  148SAPE   O1116280   6.371   6.335   6.631 -0.3947  0.0475  0.2055
  148SAPE    C116281   6.266   6.432   6.638  0.9671  0.3689  1.1146
  148SAPE    HA16282   6.308   6.521   6.689  1.2067  0.3213  1.0012
  148SAPE    HB16283   6.238   6.454   6.533  1.6873 -2.1545  0.3152
  148SAPE    C216284   6.141   6.392   6.725  0.1119  0.0757  1.1747
  148SAPE    HS16285   6.087   6.487   6.744  0.3103  0.5238 -0.3494
  148SAPE   O2116286   6.186   6.337   6.841  0.3749  0.8352 -0.0099
  148SAPE   C2116287   6.225   6.419   6.940 -0.1614  0.0691  0.6290
  148SAPE   O2216288   6.213   6.540   6.936  0.3653  0.2546 -0.5974
  148SAPE   C2216289   6.272   6.348   7.068  0.1918 -0.5677  0.4832
  148SAPE   H2R16290   6.235   6.411   7.151  1.2519 -0.9468  1.2669
  148SAPE   H2S16291   6.218   6.251   7.063  0.0152 -0.5157  1.2819
  148SAPE    C316292   6.051   6.296   6.645  0.4770 -0.0344  0.4669
  148SAPE    HX16293   6.117   6.220   6.597 -1.0241 -0.5496 -0.8533
  148SAPE    HY16294   6.007   6.352   6.560 -1.3088 -0.7318  0.8831
  148SAPE   O3116295   5.939   6.247   6.728 -0.3884  0.2443 -0.3763
  148SAPE   C3116296   5.958   6.142   6.807  0.1887 -0.0417 -0.0760
  148SAPE   O3216297   6.053   6.070   6.804  0.0837 -0.3719  0.3923
  148SAPE   C3216298   5.844   6.134   6.911  0.0279  0.0181  0.0932
  148SAPE   H2X16299   5.747   6.142   6.857 -1.0639  0.1367  2.0156
  148SAPE   H2Y16300   5.862   6.210   6.989  2.9994 -1.0464  0.5922
  148SAPE   C2316301   6.430   6.344   7.074  0.0965 -0.0563  0.3092
  148SAPE   H3R16302   6.469   6.447   7.063  0.4620 -0.3374 -1.2843
  148SAPE   H3S16303   6.468   6.289   6.984  1.1611  0.7381  0.2552
  148SAPE   C2416304   6.494   6.261   7.192  0.3823  0.8732  0.1576
  148SAPE   H4R16305   6.604   6.260   7.180  0.4738  0.4399  0.9773
  148SAPE   H4S16306   6.457   6.157   7.175  2.7439  0.3509 -2.6010
  148SAPE   C2516307   6.450   6.339   7.320 -0.0029 -0.0741  0.3516
  148SAPE   H5R16308   6.444   6.449   7.317 -0.1330 -0.0939 -0.3955
  148SAPE   C2616309   6.425   6.291   7.445  0.1799  0.1254 -0.1859
  148SAPE   H6R16310   6.400   6.360   7.528 -2.1235 -0.9131  0.0642
  148SAPE   C2716311   6.422   6.146   7.488  0.4163  0.1155 -0.3057
  148SAPE   H7R16312   6.397   6.075   7.406 -0.8258 -0.4908  0.5742
  148SAPE   H7S16313   6.335   6.129   7.555 -0.9011  2.2825 -1.3233
  148SAPE   C2816314   6.551   6.101   7.544  0.0676  0.7420 -0.4200
  148SAPE   H8R16315   6.631   6.102   7.469 -0.8112 -1.8445 -1.5026
  148SAPE   C2916316   6.577   6.057   7.675  0.0287  0.0728  1.1577
  148SAPE   H9R16317   6.678   6.027   7.705 -0.1093  0.4909  2.0841
  148SAPE  C21016318   6.476   6.053   7.784  0.1438  1.1009  0.2364
  148SAPE  H10R16319   6.375   6.053   7.740  0.6833  0.9203 -1.0539
  148SAPE  H10S16320   6.470   6.151   7.836  0.6518  1.0478  0.4051
  148SAPE  C21116321   6.501   5.925   7.875  0.3235 -0.7151  0.5955
  148SAPE  H11R16322   6.526   5.833   7.821 -1.4816 -1.7687  1.4656
  148SAPE  C21216323   6.498   5.930   8.008 -0.0715  0.0943  0.0285
  148SAPE  H12R16324   6.531   5.843   8.067  1.3838 -0.3838 -1.4164
  148SAPE  C21316325   6.466   6.052   8.096 -0.0625 -0.0236 -0.1803
  148SAPE  H13R16326   6.356   6.057   8.107  0.1373  0.1081  2.1914
  148SAPE  H13S16327   6.487   6.144   8.038 -1.5592 -0.6710 -1.8782
  148SAPE  C21416328   6.531   6.070   8.231 -0.2431 -0.8072 -0.6965
  148SAPE  H14R16329   6.637   6.045   8.247 -0.3638 -0.5045  0.7171
  148SAPE  C21516330   6.473   6.129   8.339 -0.1703 -0.0196  0.3402
  148SAPE  H15R16331   6.545   6.139   8.422  1.7139  0.9013 -1.3405
  148SAPE  C21616332   6.338   6.192   8.366 -0.1541 -0.1673 -0.1827
  148SAPE  H16R16333   6.262   6.169   8.288  0.0458  1.3526 -0.8643
  148SAPE  H16S16334   6.345   6.300   8.390 -1.2429 -0.1912  0.3052
  148SAPE  C21716335   6.272   6.112   8.482  0.0576  0.9574 -0.1932
  148SAPE  H17R16336   6.179   6.157   8.523 -0.7227  0.5558 -1.4467
  148SAPE  H17S16337   6.343   6.102   8.566  1.7542  0.0463 -1.6459
  148SAPE  C21816338   6.215   5.971   8.438 -0.3379 -0.2404  0.0863
  148SAPE  H18R16339   6.296   5.897   8.457 -0.7599 -1.4644 -2.4580
  148SAPE  H18S16340   6.189   5.967   8.330 -2.0638 -2.3550  0.5335
  148SAPE  C21916341   6.094   5.933   8.524 -1.0986  0.6572 -0.3858
  148SAPE  H19R16342   6.026   6.020   8.539 -3.4676 -1.1782  0.2309
  148SAPE  H19S16343   6.107   5.913   8.633 -0.4437 -1.5328 -0.8316
  148SAPE  C22016344   6.006   5.820   8.461  0.3295 -0.7706  0.1116
  148SAPE  H20R16345   6.056   5.721   8.460  1.6891 -0.1145  0.1896
  148SAPE  H20S16346   5.987   5.852   8.357  0.8847 -0.1918  0.1778
  148SAPE  H20T16347   5.912   5.819   8.520 -0.4158  1.2154 -0.9458
  148SAPE   C3316348   5.846   6.005   6.996 -0.2771  0.5746 -0.6024
  148SAPE   H3X16349   5.947   6.008   7.042 -0.5846  1.8594  0.0414
  148SAPE   H3Y16350   5.852   5.909   6.941 -0.1753 -0.4273  1.0779
  148SAPE   C3416351   5.748   5.988   7.109  0.1837 -0.0980  0.3002
  148SAPE   H4X16352   5.644   6.012   7.079  0.0127  0.3105  1.1778
  148SAPE   H4Y16353   5.768   6.068   7.183 -1.5345 -1.5658  2.4872
  148SAPE   C3516354   5.750   5.856   7.193 -0.0711 -0.0834  0.2983
  148SAPE   H5X16355   5.841   5.840   7.256 -0.5815  0.4419  1.1897
  148SAPE   H5Y16356   5.745   5.767   7.126 -2.4821 -0.5110  0.9754
  148SAPE   C3616357   5.624   5.849   7.282 -0.1435 -0.0361  0.3536
  148SAPE   H6X16358   5.541   5.841   7.209 -1.4857  0.1160  1.8180
  148SAPE   H6Y16359   5.618   5.943   7.340 -0.7893  0.1916 -0.0688
  148SAPE   C3716360   5.605   5.731   7.374  0.1924  0.9963  0.0730
  148SAPE   H7X16361   5.608   5.639   7.312  1.4733  0.8260  0.3544
  148SAPE   H7Y16362   5.501   5.728   7.413  0.7675 -0.8751  1.6621
  148SAPE   C3816363   5.708   5.727   7.484  0.0421  0.5237 -0.7774
  148SAPE   H8X16364   5.707   5.819   7.546  1.8379  0.5634 -0.7441
  148SAPE   H8Y16365   5.815   5.715   7.455  1.2308  2.3738  2.3209
  148SAPE   C3916366   5.680   5.622   7.592  0.5268  0.4088  0.1742
  148SAPE   H9X16367   5.651   5.520   7.560 -1.4880  0.0405  2.8208
  148SAPE   H9Y16368   5.585   5.656   7.639 -1.2147 -0.0623 -2.7134
  148SAPE  C31016369   5.786   5.612   7.696 -0.5033 -0.6163  0.3616
  148SAPE  H10X16370   5.810   5.712   7.739 -0.2855 -0.3033 -0.4637
  148SAPE  H10Y16371   5.873   5.568   7.643 -1.1237  0.9606 -2.1402
  148SAPE  C31116372   5.748   5.521   7.815  0.1772 -0.3179  0.3158
  148SAPE  H11X16373   5.755   5.417   7.777  0.2296 -0.3879  0.5174
  148SAPE  H11Y16374   5.640   5.540   7.834  0.4639  2.8469 -0.5769
  148SAPE  C31216375   5.842   5.529   7.936  0.0704 -0.1708 -0.5014
  148SAPE  H12X16376   5.833   5.633   7.974 -1.3033  0.0200 -1.3264
  148SAPE  H12Y16377   5.946   5.518   7.897  0.4724  1.8434 -0.1030
  148SAPE  C31316378   5.805   5.440   8.061  0.2693  0.3261  0.6867
  148SAPE  H13X16379   5.797   5.334   8.028  0.5689  0.6489 -0.4550
  148SAPE  H13Y16380   5.708   5.479   8.097 -0.8165 -0.5534 -1.1332
  148SAPE  C31416381   5.909   5.464   8.176  0.1704 -0.5121  0.1981
  148SAPE  H14X16382   5.911   5.571   8.203 -4.1080 -0.4789  0.9780
  148SAPE  H14Y16383   6.014   5.445   8.144 -0.1581 -0.1802 -1.1096
  148SAPE  C31516384   5.893   5.385   8.306  0.6880  0.6007 -0.2901
  148SAPE  H15X16385   5.883   5.278   8.280  0.8631  0.7523 -0.9930
  148SAPE  H15Y16386   5.796   5.421   8.349 -0.3032 -1.2238 -0.9081
  148SAPE  C31616387   6.009   5.401   8.401 -0.4089 -0.2942  0.4193
  148SAPE  H16X16388   6.035   5.508   8.386 -1.6570 -0.0781 -0.3881
  148SAPE  H16Y16389   6.096   5.340   8.371 -1.2300 -1.6946  0.8244
  148SAPE  C31716390   5.965   5.358   8.545 -0.2153 -0.2128  0.1114
  148SAPE  H17X16391   5.888   5.279   8.536 -0.6581  0.3325 -1.1047
  148SAPE  H17Y16392   5.927   5.449   8.597 -1.9004 -0.3440 -0.8381
  148SAPE  C31816393   6.074   5.315   8.635 -0.2964  0.2696 -0.3482
  148SAPE  H18X16394   6.151   5.392   8.655 -0.5900  0.3984  0.3317
  148SAPE  H18Y16395   6.141   5.237   8.596 -1.0749 -0.8262  0.4384
  148SAPE  H18Z16396   6.024   5.279   8.727  0.3865  2.7407  1.1100
  149SAPE     N16397   6.613   5.428   6.313  0.6805  0.1485 -0.4100
  149SAPE   HN116398   6.526   5.392   6.271 -2.0612  3.3187  2.0187
  149SAPE   HN216399   6.642   5.510   6.256  2.4992  1.0989  1.7092
  149SAPE   HN316400   6.686   5.354   6.305  1.2522  0.7983 -1.4654
  149SAPE   C1216401   6.574   5.472   6.450 -0.6313 -0.5571  0.5070
  149SAPE  H12A16402   6.542   5.380   6.503  1.5976 -0.4285  2.2039
  149SAPE  H12B16403   6.482   5.533   6.437  0.0466 -0.0396 -2.6731
  149SAPE   C1116404   6.692   5.529   6.521 -0.6133 -0.1633 -0.3631
  149SAPE  H11A16405   6.782   5.464   6.515  1.1736  1.9932  1.0135
  149SAPE  H11B16406   6.659   5.531   6.627 -0.8792 -1.3145 -0.4108
  149SAPE     P16407   6.700   5.791   6.525  0.4970  0.1520  0.4489
  149SAPE   O1316408   6.787   5.896   6.473 -0.2640 -0.8611 -0.2353
  149SAPE   O1416409   6.554   5.827   6.497  0.2042  0.7341 -0.3515
  149SAPE   O1216410   6.731   5.649   6.468 -0.1217 -0.1047 -0.0942
  149SAPE   O1116411   6.729   5.780   6.679 -0.1346 -0.0568  0.2437
  149SAPE    C116412   6.632   5.808   6.776 -0.0840 -0.6007 -0.4487
  149SAPE    HA16413   6.606   5.916   6.778  1.3786 -0.1790 -1.7308
  149SAPE    HB16414   6.534   5.757   6.770 -1.7872  2.2623  0.8432
  149SAPE    C216415   6.668   5.776   6.924  0.2575 -1.0571  0.8040
  149SAPE    HS16416   6.569   5.769   6.974 -0.1678 -0.0535  0.1525
  149SAPE   O2116417   6.748   5.889   6.969 -0.2425 -0.0175 -0.4793
  149SAPE   C2116418   6.777   5.886   7.097 -0.1679  0.3407 -0.1184
  149SAPE   O2216419   6.751   5.799   7.177  0.3552  0.4736  0.2164
  149SAPE   C2216420   6.825   6.024   7.136 -0.2029 -0.3020 -0.1855
  149SAPE   H2R16421   6.903   6.051   7.061 -0.4205  0.9760  0.0294
  149SAPE   H2S16422   6.736   6.089   7.120 -0.3981 -1.1861 -3.5680
  149SAPE    C316423   6.746   5.640   6.917  0.1595 -0.2230  0.1177
  149SAPE    HX16424   6.837   5.671   6.860  0.7220 -0.6708  0.7567
  149SAPE    HY16425   6.690   5.562   6.861 -0.3190 -0.2756  0.6680
  149SAPE   O3116426   6.803   5.589   7.040 -0.4943 -0.6930 -0.2002
  149SAPE   C3116427   6.715   5.510   7.110  0.2349  0.6486  0.1974
  149SAPE   O3216428   6.615   5.462   7.059  0.1963 -0.3557  0.0352
  149SAPE   C3216429   6.754   5.495   7.256 -0.4255  0.4795  0.0079
  149SAPE   H2X16430   6.829   5.574   7.279 -0.7712  1.0071 -0.6600
  149SAPE   H2Y16431   6.798   5.393   7.271 -1.9397 -0.2229 -0.1608
  149SAPE   C2316432   6.881   6.023   7.280 -0.7365 -0.6074 -0.0761
  149SAPE   H3R16433   6.953   5.939   7.290  2.7766  2.0565 -0.9562
  149SAPE   H3S16434   6.791   6.021   7.344 -0.8059  0.0657 -0.1525
  149SAPE   C2416435   6.966   6.149   7.320  0.4906  0.1397  0.4037
  149SAPE   H4R16436   7.063   6.153   7.267  0.9100 -2.9958  0.7647
  149SAPE   H4S16437   6.992   6.140   7.427  0.3640 -2.1060  0.2868
  149SAPE   C2516438   6.888   6.278   7.299  0.5130  0.2568  0.2093
  149SAPE   H5R16439   6.875   6.314   7.195  1.0670 -2.1345 -0.7371
  149SAPE   C2616440   6.834   6.354   7.393  0.5572  0.0299  0.4727
  149SAPE   H6R16441   6.800   6.453   7.359 -1.2175  0.1447  2.3346
  149SAPE   C2716442   6.821   6.325   7.539  0.3116 -0.1478 -0.5623
  149SAPE   H7R16443   6.821   6.215   7.558 -0.1458 -0.0961 -0.2326
  149SAPE   H7S16444   6.726   6.359   7.587  1.7665  1.2219  1.5249
  149SAPE   C2816445   6.927   6.403   7.616  0.0975  0.0277  0.5288
  149SAPE   H8R16446   7.016   6.422   7.554 -0.1269 -0.0182  0.1879
  149SAPE   C2916447   6.923   6.448   7.746  0.3676 -0.6848  0.1868
  149SAPE   H9R16448   7.021   6.489   7.777  1.2623 -3.0795  0.7236
  149SAPE  C21016449   6.811   6.438   7.847 -0.0652 -0.9511  0.5000
  149SAPE  H10R16450   6.715   6.468   7.799 -0.2338 -2.6493 -0.2986
  149SAPE  H10S16451   6.827   6.521   7.920  2.1760 -1.5491  0.7356
  149SAPE  C21116452   6.806   6.303   7.902  0.0474  0.2142 -0.1889
  149SAPE  H11R16453   6.815   6.222   7.828 -1.1593 -1.5111  1.4397
  149SAPE  C21216454   6.784   6.277   8.032 -0.0692 -0.0216 -0.1055
  149SAPE  H12R16455   6.755   6.175   8.060 -2.1440  1.2139  2.6371
  149SAPE  C21316456   6.759   6.373   8.140 -0.1089 -0.0055 -0.5056
  149SAPE  H13R16457   6.666   6.429   8.116  1.1237  2.5708  0.3485
  149SAPE  H13S16458   6.833   6.455   8.127 -1.0270  0.5074 -3.1001
  149SAPE  C21416459   6.753   6.314   8.281 -0.2210  0.1816 -0.0571
  149SAPE  H14R16460   6.765   6.205   8.281  0.5299  0.2597 -0.2345
  149SAPE  C21516461   6.756   6.388   8.389  0.1099 -0.4562  0.1558
  149SAPE  H15R16462   6.769   6.334   8.484  1.2769 -0.8639 -0.2085
  149SAPE  C21616463   6.767   6.534   8.385 -0.2893 -0.0251  0.3607
  149SAPE  H16R16464   6.665   6.575   8.397 -0.6858 -1.2667  1.4415
  149SAPE  H16S16465   6.810   6.582   8.294  0.4049 -0.6213  0.3633
  149SAPE  C21716466   6.849   6.597   8.499 -0.3352  0.4881 -0.1882
  149SAPE  H17R16467   6.954   6.591   8.464  0.0527  1.1079  0.8337
  149SAPE  H17S16468   6.846   6.529   8.587  0.5170 -1.7231 -1.7764
  149SAPE  C21816469   6.822   6.735   8.548 -0.5027 -0.4638  0.0346
  149SAPE  H18R16470   6.719   6.735   8.589  0.0396  0.7800  1.4718
  149SAPE  H18S16471   6.810   6.806   8.463 -1.3092 -0.6233  0.0009
  149SAPE  C21916472   6.922   6.777   8.661  0.1969 -0.0409  1.5020
  149SAPE  H19R16473   7.022   6.787   8.612 -0.8867 -0.6610 -1.0082
  149SAPE  H19S16474   6.940   6.690   8.728 -2.3257 -1.4869  0.4321
  149SAPE  C22016475   6.900   6.901   8.743 -0.3710  0.4532 -0.5755
  149SAPE  H20R16476   6.851   6.876   8.839 -1.0711 -0.1895 -1.0991
  149SAPE  H20S16477   6.837   6.975   8.689 -1.0901  0.3335  0.0809
  149SAPE  H20T16478   6.993   6.962   8.752  0.6928 -1.2959  0.8978
  149SAPE   C3316479   6.633   5.500   7.351  0.9106 -0.1285 -0.0354
  149SAPE   H3X16480   6.558   5.427   7.314  1.8680 -0.0416 -2.3166
  149SAPE   H3Y16481   6.583   5.598   7.360  2.4653  0.5528  2.1181
  149SAPE   C3416482   6.670   5.462   7.494  0.6680  0.0109  0.3400
  149SAPE   H4X16483   6.761   5.523   7.513 -0.4553  2.2740 -0.9815
  149SAPE   H4Y16484   6.678   5.352   7.494 -1.5341 -0.1979  0.8918
  149SAPE   C3516485   6.561   5.502   7.592 -0.3973 -1.4062 -0.3600
  149SAPE   H5X16486   6.469   5.449   7.563 -0.1880 -1.1530 -1.5110
  149SAPE   H5Y16487   6.536   5.607   7.567  0.9624 -0.5533  1.5813
  149SAPE   C3616488   6.599   5.491   7.742  0.1958 -0.3315 -0.1517
  149SAPE   H6X16489   6.688   5.555   7.761  0.7723 -0.9006 -0.9001
  149SAPE   H6Y16490   6.626   5.385   7.760  0.0877 -0.2356  0.5987
  149SAPE   C3716491   6.479   5.510   7.824 -0.1011  0.0134  0.3829
  149SAPE   H7X16492   6.400   5.441   7.787 -1.2517  0.2928  2.1877
  149SAPE   H7Y16493   6.448   5.616   7.812  1.1057  0.2097 -1.4226
  149SAPE   C3816494   6.499   5.493   7.974  0.2570  0.3468 -0.5847
  149SAPE   H8X16495   6.587   5.560   7.985  0.7156 -0.1023 -1.3882
  149SAPE   H8Y16496   6.540   5.393   8.001  0.9226  1.2741  2.1127
  149SAPE   C3916497   6.387   5.534   8.065  0.5761  0.0476  0.4875
  149SAPE   H9X16498   6.301   5.464   8.060  0.1585  0.4172  2.0333
  149SAPE   H9Y16499   6.340   5.628   8.030  1.5125  0.3634  0.0404
  149SAPE  C31016500   6.434   5.553   8.213 -0.5978 -0.4100 -0.0272
  149SAPE  H10X16501   6.515   5.629   8.207 -0.9866  0.0467  0.3049
  149SAPE  H10Y16502   6.482   5.461   8.252  3.6134  1.5918 -0.0010
  149SAPE  C31116503   6.326   5.607   8.318  0.4434 -0.4489  0.2544
  149SAPE  H11X16504   6.229   5.568   8.280  1.5450 -1.2710 -1.9018
  149SAPE  H11Y16505   6.318   5.718   8.320  0.8088 -0.4007  2.7372
  149SAPE  C31216506   6.346   5.550   8.460  0.6949  0.1673  0.0477
  149SAPE  H12X16507   6.382   5.446   8.445 -1.4519 -0.4481 -1.2533
  149SAPE  H12Y16508   6.253   5.546   8.522  1.0179  1.7397  0.6888
  149SAPE  C31316509   6.457   5.637   8.527 -0.2191 -0.7128 -0.1207
  149SAPE  H13X16510   6.424   5.741   8.510  0.5827 -0.2932  0.7544
  149SAPE  H13Y16511   6.558   5.634   8.482  0.8146 -0.0889  2.0033
  149SAPE  C31416512   6.469   5.609   8.678  0.2154  0.2938 -0.9712
  149SAPE  H14X16513   6.485   5.499   8.684  1.8559  0.4603 -1.6709
  149SAPE  H14Y16514   6.377   5.640   8.732  0.0148 -2.7022  0.6208
  149SAPE  C31516515   6.588   5.685   8.745  0.3634  0.2804 -0.6032
  149SAPE  H15X16516   6.659   5.733   8.674  0.1187  0.7654 -0.5212
  149SAPE  H15Y16517   6.651   5.616   8.806 -0.1136 -1.3769 -1.9112
  149SAPE  C31616518   6.537   5.808   8.827  0.2383  0.7795 -0.1421
  149SAPE  H16X16519   6.466   5.776   8.907 -1.5808 -0.6767 -2.2034
  149SAPE  H16Y16520   6.497   5.884   8.757 -2.1502 -1.5016 -1.4349
  149SAPE  C31716521   6.650   5.857   8.913  0.1669 -0.2400 -0.0400
  149SAPE  H17X16522   6.722   5.912   8.849 -1.7088  1.0477 -1.1735
  149SAPE  H17Y16523   6.699   5.771   8.962  0.0005  1.0029  2.4592
  149SAPE  C31816524   6.607   5.947   9.025  0.4297 -0.7398 -0.2360
  149SAPE  H18X16525   6.688   5.988   9.090  1.0147 -2.9036  0.4870
  149SAPE  H18Y16526   6.532   5.900   9.093  1.0433 -2.2818 -0.5767
  149SAPE  H18Z16527   6.552   6.032   8.981 -0.3277 -0.3092  1.4591
  150SAPE     N16528   6.797   6.114   6.615  0.0446  0.4274  0.3276
  150SAPE   HN116529   6.835   6.036   6.557 -0.0545  1.3162 -0.9556
  150SAPE   HN216530   6.762   6.061   6.698  1.7230  0.1520  0.8990
  150SAPE   HN316531   6.718   6.165   6.570  1.3859  1.3953 -0.9996
  150SAPE   C1216532   6.911   6.206   6.640  0.3225 -0.3194  0.4374
  150SAPE  H12A16533   6.978   6.156   6.713  0.5203 -0.3284  0.2511
  150SAPE  H12B16534   6.870   6.306   6.666 -0.5343 -0.1644 -1.3531
  150SAPE   C1116535   6.983   6.222   6.500  0.3282  1.0288 -0.3032
  150SAPE  H11A16536   7.020   6.123   6.463 -1.0578  0.5846 -0.5571
  150SAPE  H11B16537   7.077   6.279   6.512  0.3381  0.6448  1.7811
  150SAPE     P16538   6.946   6.373   6.291 -0.4171  0.5471  0.0126
  150SAPE   O1316539   7.060   6.327   6.218  0.4373  0.1003  0.2422
  150SAPE   O1416540   6.837   6.420   6.211  0.1320 -0.1267  0.5076
  150SAPE   O1216541   6.894   6.269   6.402  0.8874 -0.2012 -0.4841
  150SAPE   O1116542   6.992   6.507   6.372  0.2814 -0.0100 -0.7658
  150SAPE    C116543   6.896   6.553   6.469  0.6519 -0.4280 -0.2695
  150SAPE    HA16544   6.793   6.522   6.440  0.2669  0.0989  0.5199
  150SAPE    HB16545   6.921   6.517   6.571  2.3158 -3.8317 -1.6928
  150SAPE    C216546   6.897   6.711   6.481  0.4739  0.6056 -0.6058
  150SAPE    HS16547   6.875   6.761   6.384  0.1031 -0.8446 -1.2846
  150SAPE   O2116548   7.020   6.755   6.534  0.4530  0.2768  0.3783
  150SAPE   C2116549   7.082   6.851   6.473 -1.3039 -0.1598  0.0078
  150SAPE   O2216550   7.039   6.923   6.387  0.6768 -0.4548  0.2016
  150SAPE   C2216551   7.216   6.864   6.544  0.6345  1.0332  0.7765
  150SAPE   H2R16552   7.194   6.848   6.652  1.4007 -0.5543  0.7196
  150SAPE   H2S16553   7.282   6.781   6.511  0.7296  0.8580  1.3953
  150SAPE    C316554   6.785   6.761   6.581  0.0581 -0.3198 -0.2376
  150SAPE    HX16555   6.680   6.754   6.545 -0.8603  3.3383  1.3400
  150SAPE    HY16556   6.795   6.871   6.588  1.7441 -0.5033  0.9462
  150SAPE   O3116557   6.793   6.702   6.711 -0.0504  0.1337 -0.6667
  150SAPE   C3116558   6.688   6.724   6.793  0.1221 -0.3367  0.3237
  150SAPE   O3216559   6.598   6.805   6.768 -0.0880 -0.1560 -0.1193
  150SAPE   C3216560   6.681   6.631   6.915  1.1787 -0.7212 -0.1278
  150SAPE   H2X16561   6.776   6.593   6.957  0.8768 -1.9864 -0.5400
  150SAPE   H2Y16562   6.605   6.555   6.885  0.3599 -0.3036  0.8182
  150SAPE   C2316563   7.273   7.007   6.526  0.6685  0.4362  0.5984
  150SAPE   H3R16564   7.289   7.030   6.418  0.7946  0.9064  0.7157
  150SAPE   H3S16565   7.380   7.008   6.553  1.1182 -0.0870 -1.0528
  150SAPE   C2416566   7.208   7.111   6.611 -0.2414 -0.2281  0.9357
  150SAPE   H4R16567   7.101   7.109   6.582 -0.2832 -0.8756  1.1340
  150SAPE   H4S16568   7.259   7.205   6.580 -3.3946  1.6761  1.0311
  150SAPE   C2516569   7.238   7.095   6.758 -0.0848  0.2826  0.1018
  150SAPE   H5R16570   7.347   7.109   6.766 -0.0540 -0.0280  0.2219
  150SAPE   C2616571   7.153   7.091   6.862 -0.3165 -0.0756  0.3217
  150SAPE   H6R16572   7.183   7.077   6.967 -1.3564  1.8223  0.9224
  150SAPE   C2716573   7.006   7.094   6.836  0.0106  0.4307 -0.3105
  150SAPE   H7R16574   6.984   7.073   6.729  1.4584 -2.6135 -0.1286
  150SAPE   H7S16575   6.963   7.196   6.846 -1.2018 -0.1255  0.5510
  150SAPE   C2816576   6.929   6.993   6.920  0.1679 -0.1866 -0.3093
  150SAPE   H8R16577   6.896   6.900   6.871  0.3368 -0.8895  0.8880
  150SAPE   C2916578   6.913   6.999   7.051 -0.2711 -0.2560 -0.0680
  150SAPE   H9R16579   6.855   6.923   7.106 -0.4657  0.6445  1.0101
  150SAPE  C21016580   6.968   7.111   7.137  0.1338 -0.2830  0.9254
  150SAPE  H10R16581   6.997   7.206   7.087 -1.5920 -0.0843  0.2688
  150SAPE  H10S16582   7.059   7.070   7.187 -1.7175 -3.8299  1.7485
  150SAPE  C21116583   6.869   7.145   7.250  0.7374 -0.2217 -0.4706
  150SAPE  H11R16584   6.771   7.179   7.214  1.3783  2.3580  0.0128
  150SAPE  C21216585   6.880   7.136   7.382 -0.1052  0.0865  0.0140
  150SAPE  H12R16586   6.787   7.162   7.436  0.2642 -0.2073  0.8020
  150SAPE  C21316587   6.992   7.083   7.465  0.4510  0.4121 -0.2035
  150SAPE  H13R16588   7.012   7.165   7.538 -0.1535 -0.3906  0.9047
  150SAPE  H13S16589   7.087   7.082   7.408  1.0088 -0.2004  0.7078
  150SAPE  C21416590   6.953   6.953   7.529  0.0401 -0.1571  0.1927
  150SAPE  H14R16591   6.887   6.884   7.474 -1.6092  1.3780  0.1659
  150SAPE  C21516592   6.980   6.920   7.653  0.4960 -0.1887  0.4977
  150SAPE  H15R16593   6.950   6.823   7.697  0.8238 -0.7138 -0.4173
  150SAPE  C21616594   7.069   6.995   7.747 -0.1351  0.1414  0.0201
  150SAPE  H16R16595   7.121   7.079   7.696  0.4722 -0.9193 -1.1742
  150SAPE  H16S16596   7.154   6.928   7.771 -1.9580 -2.1235  0.5299
  150SAPE  C21716597   7.000   7.032   7.873  0.3737 -0.1196 -0.0656
  150SAPE  H17R16598   7.070   7.061   7.953 -0.1482  0.1089  0.3161
  150SAPE  H17S16599   6.948   6.945   7.917  2.1448 -0.7495  0.8287
  150SAPE  C21816600   6.885   7.139   7.858 -0.6289 -0.0323 -0.8991
  150SAPE  H18R16601   6.805   7.104   7.788  0.1469 -2.4151 -0.7066
  150SAPE  H18S16602   6.927   7.231   7.811 -0.4631  0.4704  0.2192
  150SAPE  C21916603   6.819   7.193   7.986  0.0630 -0.3839  0.6847
  150SAPE  H19R16604   6.876   7.286   8.008  0.1185  0.1518 -1.5234
  150SAPE  H19S16605   6.819   7.115   8.066  0.9835 -1.2081 -0.0908
  150SAPE  C22016606   6.672   7.215   7.959 -0.2019 -0.4045 -0.5592
  150SAPE  H20R16607   6.648   7.293   7.884  2.1487  1.0974  0.1244
  150SAPE  H20S16608   6.623   7.249   8.052 -0.1018  0.2227 -0.7334
  150SAPE  H20T16609   6.632   7.120   7.919  0.2739 -1.4691  1.3508
  150SAPE   C3316610   6.608   6.700   7.039 -0.2818 -0.5695 -0.1723
  150SAPE   H3X16611   6.506   6.658   7.047 -0.0526 -1.4968 -1.8026
  150SAPE   H3Y16612   6.607   6.810   7.024  0.2966 -0.6982 -1.2403
  150SAPE   C3416613   6.672   6.666   7.174 -0.1141  0.7156  0.7623
  150SAPE   H4X16614   6.779   6.697   7.169  1.0225 -2.9282 -0.4249
  150SAPE   H4Y16615   6.671   6.556   7.187  0.8983  0.5509 -0.3597
  150SAPE   C3516616   6.604   6.724   7.295 -0.4965 -0.0505 -0.3367
  150SAPE   H5X16617   6.498   6.692   7.284 -0.1770 -0.5424 -2.2867
  150SAPE   H5Y16618   6.611   6.834   7.290 -0.6486  0.0922  1.6376
  150SAPE   C3616619   6.661   6.683   7.431  1.1809 -0.1127  0.1879
  150SAPE   H6X16620   6.772   6.689   7.429  1.3003 -0.8799  2.0483
  150SAPE   H6Y16621   6.626   6.582   7.461 -0.4453  0.2518 -0.3725
  150SAPE   C3716622   6.608   6.773   7.544 -0.2884  0.4517  0.4411
  150SAPE   H7X16623   6.501   6.775   7.517 -0.1844 -1.4099 -0.2856
  150SAPE   H7Y16624   6.653   6.870   7.516  1.8817 -0.5668  0.1375
  150SAPE   C3816625   6.646   6.715   7.680  0.4325  0.2443 -0.0315
  150SAPE   H8X16626   6.753   6.683   7.684  0.2494 -0.7646 -1.9433
  150SAPE   H8Y16627   6.592   6.619   7.694  0.9051 -0.4454 -2.4785
  150SAPE   C3916628   6.605   6.811   7.790  0.2136 -0.0842 -0.0795
  150SAPE   H9X16629   6.495   6.820   7.801  0.4229  1.4907  0.9730
  150SAPE   H9Y16630   6.647   6.911   7.768  0.3840  0.1162  1.0879
  150SAPE  C31016631   6.667   6.762   7.925  0.0127 -0.1512  0.5370
  150SAPE  H10X16632   6.777   6.775   7.925  0.3162 -2.0202 -2.1182
  150SAPE  H10Y16633   6.643   6.655   7.939  2.5955 -0.7357  1.0390
  150SAPE  C31116634   6.622   6.848   8.047  0.2737 -0.0011 -0.0892
  150SAPE  H11X16635   6.512   6.854   8.033  0.1839 -1.5426 -0.2759
  150SAPE  H11Y16636   6.662   6.951   8.040  1.3518 -0.3151  0.9770
  150SAPE  C31216637   6.668   6.783   8.184  0.3950  0.0059  0.3219
  150SAPE  H12X16638   6.778   6.796   8.191  0.4712 -0.3467 -0.1870
  150SAPE  H12Y16639   6.636   6.679   8.164  0.2372 -0.1050  1.1429
  150SAPE  C31316640   6.594   6.843   8.299 -0.0947  0.0985  0.2436
  150SAPE  H13X16641   6.616   6.784   8.390 -1.1784 -2.6630 -1.1738
  150SAPE  H13Y16642   6.485   6.838   8.278  0.0303 -0.9582 -0.1788
  150SAPE  C31416643   6.627   6.988   8.310 -0.7332  0.1624  0.0693
  150SAPE  H14X16644   6.623   7.049   8.217  0.4687  2.0416  1.1620
  150SAPE  H14Y16645   6.736   6.996   8.332 -0.4589  0.8264 -1.4150
  150SAPE  C31516646   6.558   7.059   8.424  0.1032 -0.1881 -1.0548
  150SAPE  H15X16647   6.534   6.990   8.508  0.2727  0.0822 -0.7798
  150SAPE  H15Y16648   6.466   7.107   8.384 -1.4754 -1.9521  0.2850
  150SAPE  C31616649   6.641   7.174   8.489 -0.4764  0.3557  0.1129
  150SAPE  H16X16650   6.673   7.243   8.408  0.4894 -1.2892 -0.9833
  150SAPE  H16Y16651   6.728   7.117   8.528  0.0624 -0.1233 -1.6631
  150SAPE  C31716652   6.568   7.249   8.609  0.1712  0.2917  0.5842
  150SAPE  H17X16653   6.482   7.303   8.563 -0.0756 -2.0203 -1.9779
  150SAPE  H17Y16654   6.638   7.328   8.645 -0.6601  1.0042  0.6601
  150SAPE  C31816655   6.521   7.157   8.721 -0.7522 -0.1316 -0.3271
  150SAPE  H18X16656   6.452   7.074   8.693 -0.9079 -0.1315  0.0489
  150SAPE  H18Y16657   6.479   7.216   8.805  2.3382  0.0196  1.2470
  150SAPE  H18Z16658   6.611   7.107   8.763 -0.6239  0.1664 -0.2460
  151SAPE     N16659   0.811   5.698   6.372  0.6879 -0.2777 -0.8309
  151SAPE   HN116660   0.903   5.707   6.421 -0.0025  0.1804  0.4251
  151SAPE   HN216661   0.805   5.752   6.284 -0.7691  1.0030  0.0033
  151SAPE   HN316662   0.737   5.738   6.434  0.0991 -2.7719  0.1669
  151SAPE   C1216663   0.775   5.556   6.335  0.0489  0.3990 -0.1637
  151SAPE  H12A16664   0.819   5.492   6.415 -0.5178 -0.7031 -0.7126
  151SAPE  H12B16665   0.819   5.526   6.237 -0.7938  0.2857 -0.5217
  151SAPE   C1116666   0.628   5.520   6.333  0.8750 -0.1650 -0.3168
  151SAPE  H11A16667   0.591   5.541   6.436 -0.0580  0.8578 -0.8403
  151SAPE  H11B16668   0.602   5.413   6.322 -2.5251  0.5862 -0.7628
  151SAPE     P16669   0.410   5.610   6.256  0.1686  0.5746 -0.3662
  151SAPE   O1316670   0.344   5.682   6.147 -0.4652  0.0290 -0.2864
  151SAPE   O1416671   0.357   5.477   6.293  0.0622 -0.2848  0.7638
  151SAPE   O1216672   0.563   5.599   6.236 -0.5772 -0.0601 -0.1054
  151SAPE   O1116673   0.406   5.699   6.393 -0.2630 -0.6776  0.6562
  151SAPE    C116674   0.278   5.751   6.444  0.1972  0.2209  0.2976
  151SAPE    HA16675   0.290   5.860   6.463 -0.2172  0.1361  1.0807
  151SAPE    HB16676   0.190   5.732   6.378 -0.0849 -0.5020  0.8783
  151SAPE    C216677   0.241   5.698   6.584 -0.5279  0.3434  0.1717
  151SAPE    HS16678   0.140   5.724   6.622  0.1279 -2.0635  4.1822
  151SAPE   O2116679   0.340   5.759   6.677 -0.2839  0.0342  0.3965
  151SAPE   C2116680   0.300   5.872   6.739  0.4219  0.1309  0.0845
  151SAPE   O2216681   0.200   5.937   6.715  0.0234  0.8951  0.1273
  151SAPE   C2216682   0.400   5.917   6.842 -0.0631  0.4456 -0.1421
  151SAPE   H2R16683   0.490   5.854   6.834  1.0313  2.1335 -2.4764
  151SAPE   H2S16684   0.443   6.014   6.809  0.5624 -0.0676 -0.8588
  151SAPE    C316685   0.260   5.548   6.586 -0.1694  0.1095 -0.3179
  151SAPE    HX16686   0.366   5.521   6.570  0.3257  1.8874 -0.2903
  151SAPE    HY16687   0.210   5.509   6.494 -0.7625  1.8310 -0.7813
  151SAPE   O3116688   0.208   5.495   6.711  0.2884  0.1074  0.1874
  151SAPE   C3116689   0.290   5.416   6.778 -0.6500  0.3819  0.7760
  151SAPE   O3216690   0.403   5.383   6.741 -0.3158 -0.2980 -0.2735
  151SAPE   C3216691   0.212   5.367   6.891  0.6074 -0.5189  0.2122
  151SAPE   H2X16692   0.122   5.324   6.843  1.2758  0.5895 -2.1719
  151SAPE   H2Y16693   0.180   5.448   6.960 -2.2823  0.0171 -1.5824
  151SAPE   C2316694   0.349   5.921   6.985 -0.0723 -0.6413 -0.0975
  151SAPE   H3R16695   0.263   5.991   6.992 -0.4417 -1.1536  0.6014
  151SAPE   H3S16696   0.426   5.966   7.050 -1.4563  1.2823  0.3009
  151SAPE   C2416697   0.305   5.789   7.043 -0.5563  0.3415 -0.5598
  151SAPE   H4R16698   0.243   5.735   6.969 -1.6497  0.5322  0.1932
  151SAPE   H4S16699   0.250   5.824   7.133  0.5327 -0.8975  0.6285
  151SAPE   C2516700   0.423   5.699   7.082  0.1812 -0.3111 -0.1324
  151SAPE   H5R16701   0.499   5.693   7.003  0.8749 -0.0513  0.5053
  151SAPE   C2616702   0.449   5.638   7.195 -0.3003  0.1026  0.0623
  151SAPE   H6R16703   0.546   5.587   7.200 -0.2025  0.3728  1.0604
  151SAPE   C2716704   0.357   5.640   7.316  0.0911  0.6230  0.2955
  151SAPE   H7R16705   0.290   5.553   7.303  1.4659 -0.3419 -0.4996
  151SAPE   H7S16706   0.287   5.727   7.315  0.0596  0.7091  2.7768
  151SAPE   C2816707   0.416   5.645   7.456  0.4001 -0.0316 -0.3654
  151SAPE   H8R16708   0.525   5.646   7.463  0.3791 -1.2533  0.3537
  151SAPE   C2916709   0.345   5.632   7.572 -0.0559  0.1599  0.5480
  151SAPE   H9R16710   0.388   5.639   7.673 -1.6873  3.0341  1.1769
  151SAPE  C21016711   0.199   5.610   7.583  0.7362 -0.3785  0.2770
  151SAPE  H10R16712   0.175   5.568   7.683 -1.4384  3.0211  1.3419
  151SAPE  H10S16713   0.167   5.535   7.507  0.0412  1.5077 -1.3905
  151SAPE  C21116714   0.103   5.726   7.571 -0.0467 -0.0099 -1.0914
  151SAPE  H11R16715   0.067   5.738   7.468 -0.0468 -1.1162 -1.2316
  151SAPE  C21216716   0.074   5.818   7.669  0.5797  0.4995  0.1789
  151SAPE  H12R16717   0.007   5.902   7.645  0.0386  0.1092  0.3187
  151SAPE  C21316718   0.125   5.826   7.811  0.1527  0.3020  0.0527
  151SAPE  H13R16719   0.139   5.928   7.853 -2.2627  0.1956  1.2441
  151SAPE  H13S16720   0.224   5.776   7.810 -1.1676 -2.5214 -0.0547
  151SAPE  C21416721   0.048   5.732   7.904 -0.4337  0.3442 -0.8940
  151SAPE  H14R16722   0.006   5.647   7.849 -2.1158 -0.3723  1.3610
  151SAPE  C21516723   0.026   5.734   8.044 -0.6975  0.2596  0.2261
  151SAPE  H15R16724  -0.035   5.652   8.084 -1.5940  1.9053  2.4780
  151SAPE  C21616725   0.079   5.843   8.139 -0.2280 -0.1736  1.0227
  151SAPE  H16R16726   0.028   5.940   8.123  2.5847  1.3666  0.8957
  151SAPE  H16S16727   0.185   5.866   8.115  0.2929 -1.6305  1.7704
  151SAPE  C21716728   0.082   5.789   8.284  0.6898  0.0778  0.1485
  151SAPE  H17R16729   0.167   5.718   8.287  1.1741  0.6730  2.9085
  151SAPE  H17S16730  -0.016   5.742   8.304  0.2470  1.1719  0.6596
  151SAPE  C21816731   0.098   5.905   8.387 -0.1797 -0.2607  0.1630
  151SAPE  H18R16732   0.013   5.971   8.360 -1.9074 -2.0623  1.0128
  151SAPE  H18S16733   0.194   5.957   8.365  1.0421 -2.2341  0.6281
  151SAPE  C21916734   0.096   5.871   8.535  0.2362 -0.8573  0.7273
  151SAPE  H19R16735   0.188   5.814   8.560  1.5736  0.8003 -0.2228
  151SAPE  H19S16736   0.003   5.811   8.550 -0.4244 -0.1711 -0.5119
  151SAPE  C22016737   0.088   5.991   8.630 -0.1169 -0.5095  0.0381
  151SAPE  H20R16738  -0.008   6.047   8.617  1.4530  2.4246  0.1423
  151SAPE  H20S16739   0.113   5.964   8.734  1.0343  1.3858  0.2972
  151SAPE  H20T16740   0.171   6.057   8.596  0.4838 -0.4880  1.4988
  151SAPE   C3316741   0.288   5.270   6.985 -0.5097 -0.2849  0.0237
  151SAPE   H3X16742   0.389   5.307   7.011 -0.3284 -1.9594  1.9541
  151SAPE   H3Y16743   0.288   5.169   6.938 -1.5524 -1.0452  1.5541
  151SAPE   C3416744   0.207   5.268   7.120 -0.8456 -0.2275  0.2471
  151SAPE   H4X16745   0.105   5.231   7.096 -0.7708 -0.1951 -0.1294
  151SAPE   H4Y16746   0.195   5.367   7.169  1.1651 -0.3573  1.1016
  151SAPE   C3516747   0.277   5.172   7.226  0.5481 -0.4360  0.6748
  151SAPE   H5X16748   0.343   5.099   7.173  1.6354  0.3847  0.8625
  151SAPE   H5Y16749   0.204   5.118   7.289 -1.6805  1.8062  0.2038
  151SAPE   C3616750   0.359   5.252   7.324 -0.1064 -0.5449 -0.9337
  151SAPE   H6X16751   0.293   5.308   7.393 -0.5230  0.6903 -2.2856
  151SAPE   H6Y16752   0.425   5.328   7.275  0.8999 -0.3962  0.5766
  151SAPE   C3716753   0.453   5.149   7.399 -0.1555 -0.4644  0.1221
  151SAPE   H7X16754   0.521   5.098   7.329  0.6348  0.3766  0.2573
  151SAPE   H7Y16755   0.381   5.078   7.445  1.0336 -1.7407  0.0604
  151SAPE   C3816756   0.534   5.221   7.506  0.3103  0.4296 -0.0456
  151SAPE   H8X16757   0.585   5.152   7.577  2.1334  0.9013 -0.8285
  151SAPE   H8Y16758   0.473   5.288   7.569  0.6775  1.2328 -0.5362
  151SAPE   C3916759   0.636   5.315   7.443  0.3328 -0.3536  0.3840
  151SAPE   H9X16760   0.576   5.400   7.406  1.2309  0.1168 -0.0351
  151SAPE   H9Y16761   0.686   5.273   7.353 -0.5297  1.1210 -0.8278
  151SAPE  C31016762   0.736   5.359   7.544 -0.0888 -0.4523 -0.0530
  151SAPE  H10X16763   0.811   5.427   7.497 -1.9553  2.3099  0.6904
  151SAPE  H10Y16764   0.782   5.271   7.592 -0.2622  0.1648  1.2758
  151SAPE  C31116765   0.678   5.429   7.669  1.1506  0.3438 -0.0091
  151SAPE  H11X16766   0.618   5.350   7.720  0.4318  1.5055  1.0447
  151SAPE  H11Y16767   0.608   5.512   7.643 -0.3293 -0.9709 -0.3503
  151SAPE  C31216768   0.790   5.471   7.769 -0.0260  0.1777  0.1991
  151SAPE  H12X16769   0.841   5.560   7.725  3.4812 -1.8146 -0.1176
  151SAPE  H12Y16770   0.861   5.386   7.762  0.5475  0.5938  0.9233
  151SAPE  C31316771   0.722   5.491   7.901  0.6270  0.2066  0.1080
  151SAPE  H13X16772   0.679   5.394   7.936 -0.6641  1.3539  1.8744
  151SAPE  H13Y16773   0.645   5.570   7.891  1.3794  0.7565 -1.7774
  151SAPE  C31416774   0.812   5.537   8.016  0.2381 -0.3684  0.1673
  151SAPE  H14X16775   0.901   5.473   8.032  2.5220  2.8535  1.5835
  151SAPE  H14Y16776   0.763   5.539   8.116  2.1246  1.6861  1.1294
  151SAPE  C31516777   0.863   5.680   7.990  0.3895 -0.5580 -0.7669
  151SAPE  H15X16778   0.778   5.751   7.979  2.5396  2.1862 -0.7278
  151SAPE  H15Y16779   0.911   5.674   7.890  0.1751 -0.5241 -0.8716
  151SAPE  C31616780   0.973   5.716   8.088 -0.2163  0.3308 -1.2453
  151SAPE  H16X16781   1.075   5.676   8.069  0.3807  1.6898 -0.9710
  151SAPE  H16Y16782   0.937   5.670   8.183 -1.1021 -0.6951 -2.0430
  151SAPE  C31716783   0.987   5.871   8.115 -0.0884  0.5129  0.7438
  151SAPE  H17X16784   0.888   5.909   8.145 -0.2067  0.9898 -0.2138
  151SAPE  H17Y16785   1.014   5.916   8.017 -2.5897 -1.0128 -0.7534
  151SAPE  C31816786   1.083   5.915   8.221  0.4287  0.4936  0.0560
  151SAPE  H18X16787   1.074   6.022   8.250 -2.8605  0.2391  0.3768
  151SAPE  H18Y16788   1.188   5.909   8.186  0.2387  0.4856 -0.5211
  151SAPE  H18Z16789   1.075   5.856   8.315 -0.0798  0.4355 -0.0219
  152SAPE     N16790   5.345   1.396   6.115  0.1408  0.2364  0.0773
  152SAPE   HN116791   5.410   1.408   6.035  0.0874 -3.8820 -0.8244
  152SAPE   HN216792   5.396   1.338   6.185  2.5686  0.8958 -1.0309
  152SAPE   HN316793   5.268   1.342   6.070  2.2908 -0.1114 -3.5892
  152SAPE   C1216794   5.300   1.521   6.190 -0.1869 -0.5270  0.3025
  152SAPE  H12A16795   5.210   1.489   6.248  0.3266  0.3474  1.6380
  152SAPE  H12B16796   5.261   1.594   6.116 -0.4476 -1.5953 -0.6413
  152SAPE   C1116797   5.398   1.566   6.299  0.6806  0.4084  0.4393
  152SAPE  H11A16798   5.404   1.480   6.368  1.8806 -1.5491 -1.9296
  152SAPE  H11B16799   5.350   1.652   6.350 -1.9579 -0.3883 -0.5461
  152SAPE     P16800   5.591   1.737   6.240  0.2935  0.3591 -0.4521
  152SAPE   O1316801   5.729   1.720   6.205 -0.0626 -0.0855 -0.0847
  152SAPE   O1416802   5.496   1.823   6.162 -0.0242 -0.1658  0.0488
  152SAPE   O1216803   5.530   1.589   6.252  0.3238 -0.3282  0.9151
  152SAPE   O1116804   5.593   1.785   6.391  0.6197 -0.8290 -0.3396
  152SAPE    C116805   5.644   1.705   6.494 -0.3688  0.0243 -0.2426
  152SAPE    HA16806   5.647   1.595   6.474 -2.4552 -0.5872  2.3364
  152SAPE    HB16807   5.752   1.730   6.499 -0.1465 -0.4517 -1.9295
  152SAPE    C216808   5.575   1.727   6.629 -0.3785 -0.1767  0.5769
  152SAPE    HS16809   5.540   1.833   6.630  1.9912  0.7143  3.1297
  152SAPE   O2116810   5.673   1.725   6.745 -0.0882  0.5956 -0.1024
  152SAPE   C2116811   5.753   1.619   6.750 -0.1067 -0.2752 -0.1128
  152SAPE   O2216812   5.770   1.531   6.671 -0.0596 -0.0271  0.4007
  152SAPE   C2216813   5.818   1.623   6.884 -0.1592  0.2256  0.2039
  152SAPE   H2R16814   5.901   1.550   6.869 -0.3948  0.0489 -0.2970
  152SAPE   H2S16815   5.872   1.718   6.902  0.1220  0.4557 -1.6108
  152SAPE    C316816   5.452   1.633   6.659 -0.4288  0.6953  0.0039
  152SAPE    HX16817   5.484   1.526   6.663 -0.7465  0.5697 -0.7135
  152SAPE    HY16818   5.387   1.644   6.569 -0.8575 -2.6432 -0.2367
  152SAPE   O3116819   5.383   1.671   6.779  0.5166  0.7317  0.4378
  152SAPE   C3116820   5.375   1.576   6.869  0.0024 -0.6297  0.5568
  152SAPE   O3216821   5.431   1.465   6.863  0.3186 -0.0498  0.5321
  152SAPE   C3216822   5.296   1.639   6.986 -0.3355  0.3364 -0.8044
  152SAPE   H2X16823   5.189   1.641   6.955 -0.5486 -1.2793 -0.2231
  152SAPE   H2Y16824   5.340   1.741   6.999 -0.3375  0.2666 -0.2530
  152SAPE   C2316825   5.731   1.596   7.007  0.7921 -0.4039 -0.5516
  152SAPE   H3R16826   5.681   1.497   6.992  0.8798 -0.4848 -0.3088
  152SAPE   H3S16827   5.649   1.671   7.006 -0.5131 -1.7423  0.4664
  152SAPE   C2416828   5.803   1.596   7.140 -0.1556 -0.0324 -0.4081
  152SAPE   H4R16829   5.880   1.515   7.141 -1.1354 -0.9971  0.5080
  152SAPE   H4S16830   5.727   1.564   7.214  0.8739 -2.1127 -0.1763
  152SAPE   C2516831   5.871   1.727   7.175  0.0205  0.3356 -0.2501
  152SAPE   H5R16832   5.929   1.781   7.098  0.7412  1.6905  1.1795
  152SAPE   C2616833   5.852   1.793   7.291 -0.3302  0.1125  0.6340
  152SAPE   H6R16834   5.908   1.888   7.299  1.2780 -0.4991 -2.0977
  152SAPE   C2716835   5.754   1.762   7.402 -0.0003  0.4063  0.3235
  152SAPE   H7R16836   5.697   1.669   7.383  0.0447 -0.3601  3.3926
  152SAPE   H7S16837   5.675   1.839   7.406 -0.5817 -0.2254  2.0259
  152SAPE   C2816838   5.816   1.755   7.537  0.2373 -0.5179 -0.1382
  152SAPE   H8R16839   5.922   1.724   7.535  0.8491  1.4513 -1.0494
  152SAPE   C2916840   5.753   1.797   7.653 -0.1569  0.4367  0.0943
  152SAPE   H9R16841   5.805   1.782   7.749  0.1454 -1.1864 -0.2875
  152SAPE  C21016842   5.610   1.845   7.677 -0.3227  0.3842 -0.9946
  152SAPE  H10R16843   5.545   1.848   7.587 -2.1303 -2.8622  0.0146
  152SAPE  H10S16844   5.614   1.943   7.729  0.5025 -0.5047  0.6967
  152SAPE  C21116845   5.534   1.742   7.763 -0.5168 -1.0837  0.4636
  152SAPE  H11R16846   5.505   1.649   7.711  0.2800 -0.3635 -1.3886
  152SAPE  C21216847   5.535   1.749   7.892  0.5055  0.4845 -0.6711
  152SAPE  H12R16848   5.473   1.675   7.945  2.2024 -0.4043  0.1355
  152SAPE  C21316849   5.604   1.851   7.981 -0.6720  0.0484 -0.6522
  152SAPE  H13R16850   5.551   1.948   7.988 -0.8089 -0.1167  0.7429
  152SAPE  H13S16851   5.704   1.880   7.943 -0.3612 -0.7562 -0.4786
  152SAPE  C21416852   5.631   1.788   8.111 -0.1300  0.6112 -0.9575
  152SAPE  H14R16853   5.705   1.708   8.124 -0.2340  0.5661 -0.6254
  152SAPE  C21516854   5.578   1.839   8.230  0.0132 -0.7205 -1.0737
  152SAPE  H15R16855   5.611   1.792   8.324 -2.0901  1.0066  0.6717
  152SAPE  C21616856   5.479   1.945   8.249  0.9927  0.5279 -0.4113
  152SAPE  H16R16857   5.452   1.978   8.146  1.4457 -0.1593 -0.7593
  152SAPE  H16S16858   5.519   2.034   8.304  0.3291  1.6067 -1.6127
  152SAPE  C21716859   5.354   1.893   8.325 -0.2281 -0.5652  0.0045
  152SAPE  H17R16860   5.322   1.803   8.268  1.2082 -1.6544  0.8066
  152SAPE  H17S16861   5.281   1.975   8.312 -0.1612 -0.2728  1.3135
  152SAPE  C21816862   5.366   1.879   8.477  0.0518 -0.7960  0.2183
  152SAPE  H18R16863   5.401   1.977   8.514 -1.1745 -0.3417  0.2306
  152SAPE  H18S16864   5.439   1.798   8.501 -0.2823 -1.8045 -1.9302
  152SAPE  C21916865   5.243   1.844   8.552  0.5442  0.6766 -0.6532
  152SAPE  H19R16866   5.202   1.743   8.528  1.7791 -0.0820  0.3305
  152SAPE  H19S16867   5.160   1.912   8.521 -1.1761 -0.3205  1.4683
  152SAPE  C22016868   5.249   1.853   8.707 -0.3833 -0.0809  0.5978
  152SAPE  H20R16869   5.166   1.810   8.767 -0.5935  1.6906  1.6389
  152SAPE  H20S16870   5.263   1.958   8.742 -1.0849 -0.1557  1.1185
  152SAPE  H20T16871   5.342   1.796   8.725 -0.8830 -1.5920 -1.2891
  152SAPE   C3316872   5.291   1.557   7.117  0.0132 -0.7257 -0.0893
  152SAPE   H3X16873   5.397   1.545   7.151  0.3288 -1.4473 -1.2618
  152SAPE   H3Y16874   5.248   1.459   7.086  1.2136 -0.7539 -1.8421
  152SAPE   C3416875   5.217   1.632   7.230  0.0051 -0.8422  0.1904
  152SAPE   H4X16876   5.118   1.665   7.194 -0.1662 -0.1058  1.2765
  152SAPE   H4Y16877   5.282   1.721   7.246 -2.7377  1.0121  1.6790
  152SAPE   C3516878   5.209   1.563   7.370 -0.0484  0.9459  0.1530
  152SAPE   H5X16879   5.306   1.520   7.402 -0.9108 -2.3278 -1.2253
  152SAPE   H5Y16880   5.133   1.483   7.354  0.6023  0.6518 -1.6242
  152SAPE   C3616881   5.163   1.650   7.483  0.0756  0.2622 -0.4692
  152SAPE   H6X16882   5.064   1.695   7.460  1.7688  2.6944 -3.7335
  152SAPE   H6Y16883   5.231   1.738   7.492 -1.2523  1.2577  0.4110
  152SAPE   C3716884   5.164   1.581   7.626 -0.1811 -0.1930  0.7480
  152SAPE   H7X16885   5.270   1.562   7.655  0.2606 -1.9581 -1.7370
  152SAPE   H7Y16886   5.116   1.481   7.615 -1.3310  0.1566  2.2554
  152SAPE   C3816887   5.098   1.674   7.716  0.3120 -0.6491 -0.1182
  152SAPE   H8X16888   4.993   1.699   7.691 -0.2856 -0.6939  2.0984
  152SAPE   H8Y16889   5.150   1.770   7.695 -0.2767 -0.3916 -0.4322
  152SAPE   C3916890   5.128   1.654   7.863 -0.4815  0.4108  0.3815
  152SAPE   H9X16891   5.107   1.744   7.925  2.0559  2.8599 -2.0163
  152SAPE   H9Y16892   5.235   1.640   7.888 -0.2994 -0.1847 -0.6796
  152SAPE  C31016893   5.050   1.531   7.920  0.0905  0.1465  0.6977
  152SAPE  H10X16894   5.108   1.441   7.891 -0.9409 -1.2262  2.6700
  152SAPE  H10Y16895   4.951   1.530   7.869 -0.1961 -1.4674  1.2246
  152SAPE  C31116896   5.039   1.530   8.077 -0.4081  0.2031  0.5204
  152SAPE  H11X16897   4.998   1.628   8.110 -1.1801 -0.1807  0.7126
  152SAPE  H11Y16898   5.140   1.515   8.121 -0.2678  1.3573  0.6336
  152SAPE  C31216899   4.940   1.424   8.125 -0.1981 -0.3211  0.1659
  152SAPE  H12X16900   4.920   1.432   8.234  3.1159  0.8429  0.8167
  152SAPE  H12Y16901   4.980   1.320   8.116  0.7361 -0.0130  0.6015
  152SAPE  C31316902   4.807   1.413   8.040 -0.4429  0.3834 -0.2499
  152SAPE  H13X16903   4.830   1.354   7.948  0.7946  0.0883  0.2276
  152SAPE  H13Y16904   4.776   1.515   8.009 -0.1030  0.7920  0.7263
  152SAPE  C31416905   4.695   1.343   8.119 -0.1438  0.4355 -0.4280
  152SAPE  H14X16906   4.721   1.244   8.163 -0.7033 -0.6039 -2.3404
  152SAPE  H14Y16907   4.625   1.323   8.035  0.2116 -2.4092 -0.1409
  152SAPE  C31516908   4.625   1.428   8.220 -0.0328 -0.5923  0.2874
  152SAPE  H15X16909   4.603   1.526   8.172  0.4742 -1.5108 -1.9230
  152SAPE  H15Y16910   4.700   1.460   8.296 -0.4445 -0.8627  0.8166
  152SAPE  C31616911   4.502   1.365   8.284 -0.2099 -0.0209  0.2532
  152SAPE  H16X16912   4.509   1.255   8.296 -2.5214  0.0550  3.2477
  152SAPE  H16Y16913   4.416   1.388   8.217  0.6267  1.2501 -0.4170
  152SAPE  C31716914   4.476   1.417   8.426 -0.0791 -0.5772 -0.1460
  152SAPE  H17X16915   4.444   1.523   8.413 -1.3313 -0.8706  0.4370
  152SAPE  H17Y16916   4.573   1.421   8.481 -0.3222 -0.4878  0.2786
  152SAPE  C31816917   4.377   1.332   8.508  0.3773 -0.3503  0.5442
  152SAPE  H18X16918   4.346   1.403   8.587  3.0962  2.3115 -0.5888
  152SAPE  H18Y16919   4.436   1.242   8.538  0.9656  0.3584  1.5831
  152SAPE  H18Z16920   4.287   1.305   8.449 -0.3771  1.8493  0.5859
  153SAPE     N16921   1.560   2.591   6.448 -0.3019  0.0939  0.3021
  153SAPE   HN116922   1.481   2.536   6.408 -0.5979  1.4559 -1.0753
  153SAPE   HN216923   1.615   2.646   6.379 -0.3272 -0.7909 -0.4469
  153SAPE   HN316924   1.633   2.529   6.489  0.1945  0.0758 -0.5860
  153SAPE   C1216925   1.528   2.679   6.566 -0.2772 -0.0691  0.6801
  153SAPE  H12A16926   1.502   2.609   6.648 -0.3852 -1.2446 -0.3359
  153SAPE  H12B16927   1.437   2.735   6.538  1.3335  1.7224 -1.3385
  153SAPE   C1116928   1.652   2.765   6.603  0.2295  0.0183 -1.2113
  153SAPE  H11A16929   1.728   2.696   6.644 -0.9613  0.4935  2.0563
  153SAPE  H11B16930   1.629   2.835   6.686 -0.2541 -0.6919 -0.7460
  153SAPE     P16931   1.648   2.982   6.444  0.3899 -0.3606 -0.1099
  153SAPE   O1316932   1.713   3.025   6.323 -0.0938 -0.3397 -0.3830
  153SAPE   O1416933   1.501   2.984   6.433  0.2030 -0.2034  0.3160
  153SAPE   O1216934   1.699   2.840   6.490 -0.1687  0.3261  0.0729
  153SAPE   O1116935   1.689   3.073   6.565 -0.2830  0.6279 -0.7061
  153SAPE    C116936   1.823   3.094   6.604 -0.1187 -0.3475 -0.8346
  153SAPE    HA16937   1.856   3.001   6.655 -3.0595 -1.0440 -0.0099
  153SAPE    HB16938   1.883   3.112   6.513  1.9234 -0.5052  0.4063
  153SAPE    C216939   1.837   3.217   6.698 -0.0400 -0.4162  0.5312
  153SAPE    HS16940   1.940   3.215   6.739 -0.0181 -1.7974  0.4377
  153SAPE   O2116941   1.741   3.209   6.804 -0.3669 -0.5082  0.7873
  153SAPE   C2116942   1.770   3.112   6.890 -0.2986  0.0755  0.2496
  153SAPE   O2216943   1.884   3.061   6.898 -0.1158 -0.1714  0.3361
  153SAPE   C2216944   1.654   3.085   6.979  0.0125  0.2347 -0.5490
  153SAPE   H2R16945   1.640   3.167   7.052 -2.7125 -0.8310  0.2532
  153SAPE   H2S16946   1.562   3.083   6.916 -0.9352  0.9131  0.7778
  153SAPE    C316947   1.811   3.348   6.616 -0.7587 -0.2685 -0.0825
  153SAPE    HX16948   1.713   3.349   6.564 -0.6232 -1.2002 -0.3781
  153SAPE    HY16949   1.886   3.341   6.534 -0.9740 -3.5720 -0.1326
  153SAPE   O3116950   1.836   3.461   6.698  0.2919 -0.4856  0.2405
  153SAPE   C3116951   1.735   3.546   6.715 -0.4700  0.2036 -0.1558
  153SAPE   O3216952   1.634   3.543   6.657  1.2840 -0.1080  0.6939
  153SAPE   C3216953   1.786   3.661   6.803 -0.5667  0.3334  0.4666
  153SAPE   H2X16954   1.735   3.753   6.770 -1.2904 -0.1061  0.3388
  153SAPE   H2Y16955   1.895   3.681   6.800 -0.3240 -0.1814  2.9579
  153SAPE   C2316956   1.691   2.956   7.062  0.2473 -0.1030 -0.2950
  153SAPE   H3R16957   1.763   2.992   7.138 -0.2948  1.0408 -0.3109
  153SAPE   H3S16958   1.745   2.880   7.001  0.6056 -2.2372  2.4426
  153SAPE   C2416959   1.574   2.899   7.144 -0.0684 -0.7814 -0.2301
  153SAPE   H4R16960   1.593   2.795   7.178 -1.7709 -1.3764 -1.0078
  153SAPE   H4S16961   1.482   2.893   7.082 -0.9708  1.1800  0.8361
  153SAPE   C2516962   1.547   2.988   7.270  0.8172 -0.0237 -0.1197
  153SAPE   H5R16963   1.494   3.082   7.248 -1.4750 -0.8186  1.6310
  153SAPE   C2616964   1.595   2.975   7.393 -0.3572  0.1939 -0.2105
  153SAPE   H6R16965   1.578   3.057   7.464 -1.1428  0.1983 -0.3949
  153SAPE   C2716966   1.676   2.859   7.447 -0.9643 -0.0149 -0.0895
  153SAPE   H7R16967   1.643   2.767   7.395 -1.7100  1.4937 -2.4307
  153SAPE   H7S16968   1.641   2.850   7.552  1.9663 -0.7021  0.9176
  153SAPE   C2816969   1.825   2.868   7.448 -0.4933 -0.3860 -0.2516
  153SAPE   H8R16970   1.881   2.797   7.385  1.4168  0.3799  0.5161
  153SAPE   C2916971   1.907   2.952   7.520  0.5138  0.2201 -0.2958
  153SAPE   H9R16972   2.010   2.976   7.491  0.8559  2.5186  2.3844
  153SAPE  C21016973   1.860   3.043   7.626 -0.1848  0.3567  0.0049
  153SAPE  H10R16974   1.750   3.042   7.642 -0.3846 -1.2770 -1.2190
  153SAPE  H10S16975   1.881   3.146   7.589  1.2784 -0.1120 -0.5758
  153SAPE  C21116976   1.929   3.030   7.757 -0.0145  0.3871  0.5875
  153SAPE  H11R16977   2.023   2.972   7.755 -1.4887 -2.1251 -1.0039
  153SAPE  C21216978   1.875   3.075   7.871 -0.2135  0.3358 -0.7030
  153SAPE  H12R16979   1.941   3.066   7.958  1.9284  2.2757 -2.0139
  153SAPE  C21316980   1.741   3.130   7.889  0.4674 -0.6922  0.8172
  153SAPE  H13R16981   1.717   3.189   7.798 -2.9148  1.2620  2.7229
  153SAPE  H13S16982   1.737   3.206   7.970 -0.0539  0.3171 -0.1278
  153SAPE  C21416983   1.630   3.036   7.905  0.7404  0.7590 -0.2600
  153SAPE  H14R16984   1.646   2.938   7.859  0.6112  1.2768 -1.4575
  153SAPE  C21516985   1.520   3.059   7.978  0.0017  0.0968 -0.5055
  153SAPE  H15R16986   1.441   2.982   7.984 -0.7006  0.8369  0.1078
  153SAPE  C21616987   1.482   3.184   8.059 -0.7082  0.5471 -0.1028
  153SAPE  H16R16988   1.520   3.284   8.030 -0.5139  0.2606 -0.8408
  153SAPE  H16S16989   1.511   3.162   8.164 -0.3149  0.7685 -0.1634
  153SAPE  C21716990   1.327   3.196   8.056 -0.6488  0.1860 -0.3572
  153SAPE  H17R16991   1.275   3.108   8.100 -1.0249  0.3878 -0.3882
  153SAPE  H17S16992   1.294   3.190   7.950  2.2455  1.7280 -1.4625
  153SAPE  C21816993   1.266   3.327   8.109 -0.1603  0.2025 -0.0337
  153SAPE  H18R16994   1.304   3.420   8.062  1.2091  0.1063  0.8443
  153SAPE  H18S16995   1.285   3.323   8.218 -2.2752  0.2075  0.3762
  153SAPE  C21916996   1.111   3.325   8.095  0.7422 -0.2054  0.7737
  153SAPE  H19R16997   1.073   3.234   8.147  0.1825 -0.8194 -0.6357
  153SAPE  H19S16998   1.099   3.303   7.986 -0.3863 -0.6545  0.9760
  153SAPE  C22016999   1.058   3.456   8.159  0.1878 -0.1813 -0.2023
  153SAPE  H20R17000   1.103   3.545   8.110 -1.4486  1.0612  0.4461
  153SAPE  H20S17001   1.086   3.473   8.265  1.2273  0.6904 -0.5907
  153SAPE  H20T17002   0.947   3.457   8.151  0.2957 -1.6157 -3.7014
  153SAPE   C3317003   1.759   3.641   6.956 -0.3839  0.0675  0.3093
  153SAPE   H3X17004   1.648   3.633   6.969 -0.5964  0.4913 -1.1072
  153SAPE   H3Y17005   1.794   3.724   7.021 -1.3120 -0.4564  1.5432
  153SAPE   C3417006   1.814   3.504   7.016  0.4690  0.3637  0.5572
  153SAPE   H4X17007   1.922   3.509   6.993  0.4747 -0.1361  0.4483
  153SAPE   H4Y17008   1.771   3.410   6.974 -0.3645  1.2309 -0.5954
  153SAPE   C3517009   1.805   3.508   7.165 -0.2907  0.0389  0.1835
  153SAPE   H5X17010   1.710   3.550   7.203  0.9388  2.5811  0.7130
  153SAPE   H5Y17011   1.880   3.577   7.211 -0.6331 -0.8942  2.2535
  153SAPE   C3617012   1.830   3.362   7.223  0.7023 -0.5564  0.9095
  153SAPE   H6X17013   1.936   3.333   7.207  0.5931 -0.2379 -0.4897
  153SAPE   H6Y17014   1.764   3.292   7.167  0.8655  0.0886 -0.1143
  153SAPE   C3717015   1.782   3.347   7.368 -0.0089 -0.7350  0.3345
  153SAPE   H7X17016   1.815   3.244   7.393 -0.4688 -0.9702 -0.0053
  153SAPE   H7Y17017   1.671   3.353   7.374  0.0250 -0.4317  0.6714
  153SAPE   C3817018   1.839   3.449   7.462  0.5753  0.4888 -0.1989
  153SAPE   H8X17019   1.807   3.553   7.439 -0.0403  0.3504  0.0127
  153SAPE   H8Y17020   1.949   3.436   7.453  0.4137 -3.5786  1.3704
  153SAPE   C3917021   1.812   3.428   7.610  0.4656  0.0504  0.7052
  153SAPE   H9X17022   1.870   3.339   7.642 -1.2219 -1.2670  0.2281
  153SAPE   H9Y17023   1.704   3.404   7.615  0.1672  1.4266  1.5170
  153SAPE  C31017024   1.850   3.549   7.700 -0.0960  0.1688 -0.0679
  153SAPE  H10X17025   1.820   3.635   7.637 -0.3665 -1.2903 -2.0135
  153SAPE  H10Y17026   1.958   3.531   7.714 -0.4239 -1.5682  0.4624
  153SAPE  C31117027   1.775   3.558   7.831  0.0171  0.8443 -0.2539
  153SAPE  H11X17028   1.674   3.515   7.819 -0.1217  0.9104  0.6648
  153SAPE  H11Y17029   1.780   3.667   7.850  0.8178  0.7276  0.2450
  153SAPE  C31217030   1.854   3.481   7.938 -0.6239  0.6114  0.4979
  153SAPE  H12X17031   1.954   3.523   7.962  0.1178 -1.3607  1.0631
  153SAPE  H12Y17032   1.870   3.373   7.918 -0.8203  0.3158  1.8180
  153SAPE  C31317033   1.784   3.483   8.077 -0.9031  0.2101 -0.2896
  153SAPE  H13X17034   1.689   3.428   8.062 -1.1615  0.3553  0.6982
  153SAPE  H13Y17035   1.754   3.584   8.112  2.5648  1.7861 -1.4055
  153SAPE  C31417036   1.867   3.430   8.200  0.6139  0.0886  0.1231
  153SAPE  H14X17037   1.800   3.423   8.288 -1.7527 -1.2922 -1.6644
  153SAPE  H14Y17038   1.955   3.496   8.219 -0.1229  1.0184  0.3934
  153SAPE  C31517039   1.914   3.290   8.186  0.1352 -0.5737  0.2258
  153SAPE  H15X17040   1.993   3.288   8.108 -0.7216  3.4266 -1.0054
  153SAPE  H15Y17041   1.833   3.233   8.136 -1.9234  0.4912  2.1146
  153SAPE  C31617042   1.972   3.229   8.316 -0.0552  0.1670  0.5134
  153SAPE  H16X17043   2.046   3.295   8.366  0.3447 -0.3537  0.6198
  153SAPE  H16Y17044   2.037   3.145   8.284 -0.8065 -0.4834  0.6394
  153SAPE  C31717045   1.866   3.167   8.405  0.2974 -0.1081 -0.7271
  153SAPE  H17X17046   1.831   3.263   8.451  0.1309 -0.8608  0.7714
  153SAPE  H17Y17047   1.926   3.109   8.478 -0.9285 -0.0692  0.3492
  153SAPE  C31817048   1.762   3.078   8.347 -0.2867  0.4133 -0.5376
  153SAPE  H18X17049   1.713   3.122   8.258  0.8427  0.3602 -1.2008
  153SAPE  H18Y17050   1.680   3.059   8.420 -0.0789  1.7616  0.0926
  153SAPE  H18Z17051   1.815   2.988   8.310  0.9585  1.4277 -1.2845
  154SAPE     N17052   6.769   2.271   6.108 -0.1611  0.5642  0.2232
  154SAPE   HN117053   6.704   2.291   6.028 -0.4630  0.8141  0.5271
  154SAPE   HN217054   6.866   2.250   6.078 -0.2800 -0.4935  0.5460
  154SAPE   HN317055   6.730   2.202   6.176 -0.9416  0.1219 -0.6360
  154SAPE   C1217056   6.782   2.404   6.179  0.4840  0.6991  0.8469
  154SAPE  H12A17057   6.795   2.485   6.104 -0.5252 -0.2405 -0.3985
  154SAPE  H12B17058   6.871   2.404   6.245  2.0082  0.0687 -1.1312
  154SAPE   C1117059   6.657   2.423   6.261  0.4296  0.2245  0.0884
  154SAPE  H11A17060   6.564   2.423   6.200 -0.6071  0.1276  1.6259
  154SAPE  H11B17061   6.666   2.528   6.294  1.8587 -0.4810  2.1722
  154SAPE     P17062   6.538   2.215   6.362 -0.5892 -0.0124 -0.2677
  154SAPE   O1317063   6.404   2.272   6.337  0.2490  0.2974  0.0176
  154SAPE   O1417064   6.590   2.117   6.262 -0.0081  0.5778 -0.3933
  154SAPE   O1217065   6.645   2.332   6.370  0.2803  0.0196 -0.4638
  154SAPE   O1117066   6.528   2.162   6.508  0.0485  0.5714 -0.2706
  154SAPE    C117067   6.626   2.096   6.584 -0.7186  0.3134  0.0542
  154SAPE    HA17068   6.726   2.082   6.537 -0.9887  2.1797 -1.1881
  154SAPE    HB17069   6.633   2.142   6.684  2.2423  1.4452 -0.5808
  154SAPE    C217070   6.588   1.941   6.614  0.1585 -0.2731 -0.4156
  154SAPE    HS17071   6.578   1.900   6.511  1.1298  0.3046 -0.7490
  154SAPE   O2117072   6.464   1.933   6.691  0.0101  0.0298 -0.0235
  154SAPE   C2117073   6.386   1.825   6.688 -0.2495 -0.1406 -0.6482
  154SAPE   O2217074   6.405   1.727   6.623  1.2210  0.3053  0.3624
  154SAPE   C2217075   6.270   1.844   6.783  0.0699 -0.8511 -0.4988
  154SAPE   H2R17076   6.302   1.911   6.866 -1.6449 -0.5686 -0.0302
  154SAPE   H2S17077   6.193   1.897   6.722  1.7354 -0.0700 -2.0310
  154SAPE    C317078   6.700   1.865   6.686 -0.7590 -0.2138 -0.4625
  154SAPE    HX17079   6.791   1.880   6.625  1.7528 -0.3643  2.9366
  154SAPE    HY17080   6.685   1.755   6.693 -0.8370 -0.2810 -1.4702
  154SAPE   O3117081   6.734   1.930   6.812 -0.7482 -0.1887 -0.1345
  154SAPE   C3117082   6.674   1.869   6.916 -0.7937 -0.4320  0.1775
  154SAPE   O3217083   6.622   1.759   6.911  0.4530  0.1936  0.1297
  154SAPE   C3217084   6.677   1.965   7.037  0.2404 -0.1117  0.0091
  154SAPE   H2X17085   6.573   1.994   7.062 -0.1535 -0.9014 -0.6402
  154SAPE   H2Y17086   6.729   2.059   7.007 -1.8158  2.0139  2.6646
  154SAPE   C2317087   6.202   1.711   6.842 -0.9541  0.2592 -1.1321
  154SAPE   H3R17088   6.195   1.648   6.751  2.7518  0.8048 -1.9256
  154SAPE   H3S17089   6.098   1.729   6.878  0.0360  0.6652  1.8305
  154SAPE   C2417090   6.282   1.647   6.956 -0.1592 -0.3211  0.8077
  154SAPE   H4R17091   6.290   1.729   7.030  1.4193  0.2873  0.0167
  154SAPE   H4S17092   6.387   1.640   6.919 -0.1208 -0.7148  0.9841
  154SAPE   C2517093   6.227   1.517   6.998 -0.2711 -0.4703 -0.3064
  154SAPE   H5R17094   6.210   1.444   6.918 -1.5261  1.3237 -1.7416
  154SAPE   C2617095   6.189   1.472   7.117 -1.0734 -0.1341  0.4219
  154SAPE   H6R17096   6.155   1.368   7.126 -1.0661 -0.3207 -1.3377
  154SAPE   C2717097   6.197   1.559   7.239  0.2017 -0.0888  0.0921
  154SAPE   H7R17098   6.111   1.525   7.300 -0.9006  1.0550 -0.7891
  154SAPE   H7S17099   6.167   1.662   7.212 -0.7192 -0.4206 -0.1754
  154SAPE   C2817100   6.330   1.556   7.312  0.0877  0.1287 -0.3994
  154SAPE   H8R17101   6.410   1.505   7.256 -1.3592 -1.3716 -1.2206
  154SAPE   C2917102   6.347   1.601   7.436 -0.2281 -0.2014  0.4177
  154SAPE   H9R17103   6.443   1.579   7.485  0.5787 -0.2251 -1.1342
  154SAPE  C21017104   6.243   1.674   7.522 -0.1321 -0.5120 -0.1689
  154SAPE  H10R17105   6.150   1.704   7.469 -1.8611 -1.3104  2.2522
  154SAPE  H10S17106   6.284   1.761   7.577  0.0744 -0.4104 -0.4781
  154SAPE  C21117107   6.198   1.576   7.629 -1.2462 -0.0149  0.6965
  154SAPE  H11R17108   6.106   1.522   7.600 -1.5082  1.2757 -1.0086
  154SAPE  C21217109   6.255   1.557   7.747  0.3587 -0.3293  0.5180
  154SAPE  H12R17110   6.201   1.494   7.819  0.3870  0.4253  1.2064
  154SAPE  C21317111   6.370   1.633   7.795  0.9041  0.6162  0.0552
  154SAPE  H13R17112   6.409   1.700   7.714  1.5163  0.2523  0.0438
  154SAPE  H13S17113   6.455   1.564   7.809  0.3480 -0.1286 -0.1808
  154SAPE  C21417114   6.333   1.719   7.910 -0.3895  0.1545 -0.4198
  154SAPE  H14R17115   6.267   1.804   7.888 -0.5640  0.2942  0.5985
  154SAPE  C21517116   6.378   1.708   8.036 -0.5884  0.3501 -0.8592
  154SAPE  H15R17117   6.328   1.764   8.117  1.1645 -0.8030  1.1324
  154SAPE  C21617118   6.474   1.595   8.078 -0.3808  0.4424  0.1588
  154SAPE  H16R17119   6.493   1.527   7.993 -1.6369  1.4532 -0.9800
  154SAPE  H16S17120   6.424   1.547   8.165  1.1996 -0.6231  0.5223
  154SAPE  C21717121   6.615   1.647   8.122  0.3124  0.3454  0.5212
  154SAPE  H17R17122   6.606   1.721   8.204 -2.6384 -0.2609  0.8423
  154SAPE  H17S17123   6.665   1.706   8.043 -0.7107  0.0694 -0.3583
  154SAPE  C21817124   6.707   1.531   8.154  0.0503 -0.0308 -0.2487
  154SAPE  H18R17125   6.810   1.571   8.171  0.1576  0.5097 -1.9252
  154SAPE  H18S17126   6.716   1.460   8.069 -2.7807 -0.5415 -0.1987
  154SAPE  C21917127   6.653   1.449   8.260 -0.2035 -0.1778 -0.0324
  154SAPE  H19R17128   6.551   1.410   8.240 -0.6013  1.5584 -1.6337
  154SAPE  H19S17129   6.641   1.511   8.352 -0.2749 -2.4958  1.6321
  154SAPE  C22017130   6.752   1.345   8.314  0.0587  0.8425 -0.2694
  154SAPE  H20R17131   6.703   1.273   8.383  2.5661 -1.1848 -0.4373
  154SAPE  H20S17132   6.831   1.402   8.367  0.8442 -0.1607 -0.3251
  154SAPE  H20T17133   6.779   1.272   8.234  0.0764  0.4558  0.0807
  154SAPE   C3317134   6.753   1.896   7.155  0.1285 -0.4958  0.1786
  154SAPE   H3X17135   6.793   1.971   7.227  0.0350  0.0563 -0.3413
  154SAPE   H3Y17136   6.850   1.848   7.129  0.2480 -1.1307  1.6629
  154SAPE   C3417137   6.662   1.796   7.229 -0.4993 -0.5098 -0.3723
  154SAPE   H4X17138   6.645   1.706   7.166 -2.2838 -1.1342  0.9095
  154SAPE   H4Y17139   6.565   1.847   7.246 -0.2829 -0.2179  0.0016
  154SAPE   C3517140   6.697   1.762   7.375 -0.1578 -0.4151 -0.3756
  154SAPE   H5X17141   6.803   1.731   7.385  0.4703  1.9765  1.5538
  154SAPE   H5Y17142   6.620   1.693   7.417 -1.2199  1.4946  0.9950
  154SAPE   C3617143   6.692   1.874   7.479 -0.4095 -0.3469  0.0338
  154SAPE   H6X17144   6.776   1.944   7.459  1.7748 -2.6546  0.6604
  154SAPE   H6Y17145   6.710   1.835   7.581  0.8321  1.8106  0.7031
  154SAPE   C3717146   6.557   1.954   7.489 -0.1931 -0.0479  0.0038
  154SAPE   H7X17147   6.473   1.890   7.527  0.3454 -0.6219  0.2513
  154SAPE   H7Y17148   6.527   2.004   7.395 -1.0373 -0.8433 -0.1667
  154SAPE   C3817149   6.563   2.065   7.599  0.6696 -0.0577  0.0556
  154SAPE   H8X17150   6.467   2.119   7.586  1.1836  0.7105 -0.6639
  154SAPE   H8Y17151   6.649   2.133   7.581  0.2280  0.0035 -2.1241
  154SAPE   C3917152   6.568   2.005   7.738 -0.3447 -0.4973 -0.0231
  154SAPE   H9X17153   6.652   1.933   7.748 -0.7913 -1.2538 -1.5062
  154SAPE   H9Y17154   6.476   1.948   7.762 -0.8523  0.1089 -0.4754
  154SAPE  C31017155   6.566   2.126   7.841  0.1843  0.5165 -0.2076
  154SAPE  H10X17156   6.465   2.172   7.842  0.0793  0.3148  1.4608
  154SAPE  H10Y17157   6.641   2.203   7.815  2.1137 -1.1366  0.1988
  154SAPE  C31117158   6.575   2.061   7.982  0.1025 -0.4239  0.5945
  154SAPE  H11X17159   6.681   2.041   8.009  0.0764 -0.2590  0.8258
  154SAPE  H11Y17160   6.510   1.970   7.978 -0.4410 -0.0118 -0.5138
  154SAPE  C31217161   6.506   2.138   8.095 -0.7339 -0.2035  0.1836
  154SAPE  H12X17162   6.396   2.146   8.083 -0.6617 -1.5501 -2.0299
  154SAPE  H12Y17163   6.550   2.240   8.100 -0.9708 -0.1699  3.6831
  154SAPE  C31317164   6.511   2.061   8.228  0.6605  0.0236 -1.0076
  154SAPE  H13X17165   6.610   2.062   8.277  0.6347 -1.9489 -0.8106
  154SAPE  H13Y17166   6.494   1.951   8.225  0.5431  0.0329 -0.7251
  154SAPE  C31417167   6.416   2.129   8.327 -0.0493  0.6056 -0.0705
  154SAPE  H14X17168   6.317   2.153   8.282 -0.9930  1.0960  2.0938
  154SAPE  H14Y17169   6.466   2.225   8.349  0.1319  0.7962 -1.2758
  154SAPE  C31517170   6.402   2.058   8.463 -0.0108 -0.1211  0.2089
  154SAPE  H15X17171   6.499   2.019   8.500 -0.6478 -2.2005 -0.1619
  154SAPE  H15Y17172   6.334   1.971   8.446  0.1044 -0.1801  0.0426
  154SAPE  C31617173   6.338   2.143   8.578  0.1937  0.2670  0.1279
  154SAPE  H16X17174   6.240   2.187   8.549  0.1347 -0.1938 -0.3857
  154SAPE  H16Y17175   6.410   2.226   8.597  1.3250 -0.5489 -0.4343
  154SAPE  C31717176   6.319   2.069   8.713 -0.0883 -0.2847  0.0653
  154SAPE  H17X17177   6.259   1.980   8.685  0.8941 -0.4149 -1.8401
  154SAPE  H17Y17178   6.269   2.138   8.784 -1.1899 -0.8138 -0.1837
  154SAPE  C31817179   6.449   2.021   8.777  0.2173 -0.4336  0.2657
  154SAPE  H18X17180   6.441   1.970   8.875  2.5729  0.1987  0.8528
  154SAPE  H18Y17181   6.520   2.098   8.815  1.2614 -1.1503 -0.1982
  154SAPE  H18Z17182   6.498   1.953   8.705 -1.5400 -2.1147  0.5718
  155SAPE     N17183   5.124   1.813   6.442  0.8652  0.4766 -0.2647
  155SAPE   HN117184   5.199   1.884   6.429  1.7965 -0.7146 -1.7426
  155SAPE   HN217185   5.158   1.716   6.456 -0.0069  0.1698 -0.2384
  155SAPE   HN317186   5.057   1.815   6.362 -2.1198  2.8550  2.0362
  155SAPE   C1217187   5.020   1.846   6.555 -0.0056  0.0073  0.2246
  155SAPE  H12A17188   4.921   1.820   6.512 -1.0690  1.2891  1.8019
  155SAPE  H12B17189   5.018   1.955   6.576  0.4872  0.0496  0.0640
  155SAPE   C1117190   5.044   1.763   6.680 -0.1065  0.2140 -0.8367
  155SAPE  H11A17191   4.999   1.812   6.768 -0.3715 -0.9220 -0.3210
  155SAPE  H11B17192   5.154   1.754   6.698 -0.3662  2.5838  3.0947
  155SAPE     P17193   5.074   1.510   6.608  0.0473  0.0390  0.0704
  155SAPE   O1317194   4.987   1.407   6.554  0.0973 -0.0803 -0.0827
  155SAPE   O1417195   5.179   1.550   6.518  0.2421 -0.3956 -0.2814
  155SAPE   O1217196   4.986   1.637   6.657  0.3167 -0.8180 -0.7052
  155SAPE   O1117197   5.134   1.462   6.741  0.0082  0.5995  0.0520
  155SAPE    C117198   5.133   1.328   6.789 -0.4561 -0.2207  0.6356
  155SAPE    HA17199   5.161   1.254   6.711 -2.4670  0.5895 -0.9036
  155SAPE    HB17200   5.218   1.327   6.862 -1.0568 -0.1917  1.3491
  155SAPE    C217201   5.009   1.279   6.870  0.5909 -0.2784  0.0934
  155SAPE    HS17202   4.928   1.246   6.801 -0.3591 -0.7334  1.3835
  155SAPE   O2117203   4.970   1.383   6.957 -0.3836  0.1147  0.1479
  155SAPE   C2117204   4.858   1.447   6.935  0.1715 -0.0700 -0.3060
  155SAPE   O2217205   4.761   1.405   6.872  0.7474  0.0775 -0.2148
  155SAPE   C2217206   4.880   1.588   6.998  0.8561 -0.2874  0.2545
  155SAPE   H2R17207   4.930   1.578   7.096  0.4384 -0.3796  0.4600
  155SAPE   H2S17208   4.956   1.636   6.932 -0.0938 -0.0924 -0.7368
  155SAPE    C317209   5.038   1.150   6.957  0.1793  0.1986  0.0962
  155SAPE    HX17210   5.131   1.160   7.018  0.9494  0.2650 -1.0695
  155SAPE    HY17211   5.067   1.068   6.888 -2.4415 -1.7086  1.1267
  155SAPE   O3117212   4.924   1.112   7.041 -0.5632  0.6006  0.1351
  155SAPE   C3117213   4.810   1.076   6.979 -0.2902 -0.2369 -0.2304
  155SAPE   O3217214   4.793   1.054   6.863  0.1834 -0.0583 -0.2434
  155SAPE   C3217215   4.698   1.082   7.090  0.1205  0.1346 -0.7498
  155SAPE   H2X17216   4.662   1.185   7.072 -1.2211 -0.4737 -1.6644
  155SAPE   H2Y17217   4.759   1.068   7.182 -1.0482 -0.7575 -0.0781
  155SAPE   C2317218   4.745   1.659   7.005  0.8429  0.0966  0.6411
  155SAPE   H3R17219   4.681   1.647   6.915 -0.8312  0.5517  1.7140
  155SAPE   H3S17220   4.768   1.767   7.001  0.6134  0.1280  0.0754
  155SAPE   C2417221   4.663   1.633   7.135 -0.3828  0.2875  0.0948
  155SAPE   H4R17222   4.640   1.524   7.129  0.8836 -0.0320  0.5461
  155SAPE   H4S17223   4.565   1.685   7.132 -0.1153  0.7806 -0.1628
  155SAPE   C2517224   4.736   1.677   7.265 -0.1694  0.0945 -0.2653
  155SAPE   H5R17225   4.781   1.777   7.269  1.0340 -0.4309 -0.2440
  155SAPE   C2617226   4.758   1.598   7.374 -0.5578  0.2516  0.0838
  155SAPE   H6R17227   4.807   1.643   7.462  0.7249 -0.5544 -0.1954
  155SAPE   C2717228   4.726   1.450   7.392 -0.6208  0.7259  0.7180
  155SAPE   H7R17229   4.624   1.438   7.350 -0.5990  2.7239 -0.0058
  155SAPE   H7S17230   4.701   1.440   7.500 -3.9184  1.1178  0.0855
  155SAPE   C2817231   4.811   1.342   7.330 -0.0579 -0.0233  0.0875
  155SAPE   H8R17232   4.862   1.376   7.239  0.7400 -1.9271 -0.2276
  155SAPE   C2917233   4.843   1.224   7.386 -0.2091 -0.1749 -0.0986
  155SAPE   H9R17234   4.917   1.165   7.329 -0.1668  2.7206 -3.3273
  155SAPE  C21017235   4.795   1.162   7.515 -0.1952 -0.2270 -0.2547
  155SAPE  H10R17236   4.809   1.052   7.511 -0.7541 -0.2776 -1.0517
  155SAPE  H10S17237   4.685   1.177   7.519  0.1494  3.3939 -0.5897
  155SAPE  C21117238   4.874   1.217   7.634  0.3099 -0.0199 -0.4249
  155SAPE  H11R17239   4.949   1.292   7.605  0.1770 -0.4727 -2.0666
  155SAPE  C21217240   4.873   1.179   7.763  0.2681  1.3688 -0.1871
  155SAPE  H12R17241   4.950   1.221   7.830 -0.3099 -0.3552  1.6717
  155SAPE  C21317242   4.786   1.060   7.819  0.0946 -0.0709 -0.6721
  155SAPE  H13R17243   4.722   1.009   7.744 -0.8665 -0.4167  0.3479
  155SAPE  H13S17244   4.711   1.100   7.891 -1.0278 -1.8005 -0.8237
  155SAPE  C21417245   4.868   0.953   7.879  0.5822  0.3490  0.1657
  155SAPE  H14R17246   4.960   0.918   7.830  2.6234  2.6204  2.1124
  155SAPE  C21517247   4.840   0.890   7.994  0.7859  0.0852 -0.2270
  155SAPE  H15R17248   4.915   0.825   8.042  1.1680  0.8652  0.2587
  155SAPE  C21617249   4.718   0.928   8.068  0.3918  0.1698  0.4359
  155SAPE  H16R17250   4.627   0.893   8.016 -0.3234  0.6952  1.3065
  155SAPE  H16S17251   4.718   1.037   8.090 -0.2235  0.7236 -2.0960
  155SAPE  C21717252   4.711   0.848   8.198 -0.0857 -0.6195  0.0081
  155SAPE  H17R17253   4.799   0.858   8.265 -0.0742 -1.7222  0.1817
  155SAPE  H17S17254   4.710   0.740   8.171 -1.2380 -0.4505 -0.6603
  155SAPE  C21817255   4.590   0.872   8.287 -0.7404 -0.6957 -0.5514
  155SAPE  H18R17256   4.500   0.846   8.228 -2.1569  0.6045  0.9401
  155SAPE  H18S17257   4.582   0.982   8.303 -0.3779 -0.4539 -1.9015
  155SAPE  C21917258   4.590   0.789   8.420  0.4235 -0.3054 -0.1964
  155SAPE  H19R17259   4.488   0.796   8.462  0.4410 -0.8046 -0.0692
  155SAPE  H19S17260   4.665   0.824   8.494  0.1931 -0.1548 -0.0332
  155SAPE  C22017261   4.612   0.643   8.387 -0.3541  0.4288  0.4223
  155SAPE  H20R17262   4.578   0.583   8.475 -1.0136  1.7161  1.0728
  155SAPE  H20S17263   4.715   0.612   8.361 -0.2055  0.7722  0.6117
  155SAPE  H20T17264   4.549   0.608   8.302  1.0638 -2.7500  0.5232
  155SAPE   C3317265   4.580   0.979   7.081 -0.8771  0.0710 -0.5841
  155SAPE   H3X17266   4.543   0.980   6.976  1.8837 -0.8072 -1.6437
  155SAPE   H3Y17267   4.505   0.997   7.161 -0.6200 -0.0770 -0.3089
  155SAPE   C3417268   4.636   0.837   7.117 -0.7520 -0.0711 -0.4530
  155SAPE   H4X17269   4.718   0.823   7.042 -0.6628 -0.0822 -0.3529
  155SAPE   H4Y17270   4.563   0.756   7.095  0.2027 -1.5861  1.6230
  155SAPE   C3517271   4.690   0.811   7.260  0.1386  0.7605  0.4493
  155SAPE   H5X17272   4.778   0.876   7.272  0.5134  0.3046  0.2018
  155SAPE   H5Y17273   4.709   0.702   7.248 -0.1338  0.6358  1.1055
  155SAPE   C3617274   4.588   0.847   7.371  0.1723  0.8133  0.8178
  155SAPE   H6X17275   4.497   0.785   7.355  1.7885 -1.0412 -2.0437
  155SAPE   H6Y17276   4.561   0.955   7.372  2.2227  1.3984 -0.5696
  155SAPE   C3717277   4.652   0.819   7.514 -0.7167 -0.4849 -0.5202
  155SAPE   H7X17278   4.600   0.883   7.588  1.1211  0.0307  0.3846
  155SAPE   H7Y17279   4.760   0.846   7.517 -1.6259  3.9730  2.9583
  155SAPE   C3817280   4.639   0.667   7.552  0.3881  0.2099 -0.0227
  155SAPE   H8X17281   4.717   0.605   7.504  0.4800 -1.1545  1.7907
  155SAPE   H8Y17282   4.538   0.630   7.524 -0.7700  1.8253  1.7292
  155SAPE   C3917283   4.668   0.657   7.701 -0.2173 -0.0476 -0.2250
  155SAPE   H9X17284   4.584   0.715   7.745  0.1948  1.9301 -1.8811
  155SAPE   H9Y17285   4.760   0.709   7.734 -1.1267 -0.3330  3.1099
  155SAPE  C31017286   4.660   0.514   7.763  0.1937 -0.3506  0.3268
  155SAPE  H10X17287   4.761   0.473   7.739  0.4044  0.4701 -0.2507
  155SAPE  H10Y17288   4.593   0.444   7.708 -1.4655 -0.1783  2.0589
  155SAPE  C31117289   4.634   0.510   7.913 -0.5290 -0.4357 -0.5593
  155SAPE  H11X17290   4.545   0.572   7.939 -2.0621 -3.2988  1.5824
  155SAPE  H11Y17291   4.720   0.565   7.958  1.1145 -1.3916 -2.3638
  155SAPE  C31217292   4.622   0.364   7.967 -0.2122  0.1240  0.2011
  155SAPE  H12X17293   4.709   0.309   7.927  0.4174 -0.0089  1.6940
  155SAPE  H12Y17294   4.526   0.322   7.930 -0.0934  0.2092 -0.2035
  155SAPE  C31317295   4.618   0.365   8.121  0.1843  0.9116  0.0488
  155SAPE  H13X17296   4.526   0.421   8.148 -0.5217 -0.4904  0.6310
  155SAPE  H13Y17297   4.706   0.412   8.170  0.8821  0.7977 -1.0532
  155SAPE  C31417298   4.593   0.223   8.168 -0.1777  0.2234 -0.3462
  155SAPE  H14X17299   4.682   0.159   8.148  1.1413  0.2944  4.2275
  155SAPE  H14Y17300   4.511   0.168   8.116 -0.1744 -0.7507  0.6464
  155SAPE  C31517301   4.586   0.212   8.321  0.2015 -0.1400  0.4511
  155SAPE  H15X17302   4.549   0.108   8.332 -3.4466  0.7442 -1.8205
  155SAPE  H15Y17303   4.519   0.287   8.369  1.7043  0.2285  2.0820
  155SAPE  C31617304   4.723   0.208   8.393 -0.4071 -0.3285  0.0549
  155SAPE  H16X17305   4.791   0.294   8.374  1.5464 -2.1723 -1.9990
  155SAPE  H16Y17306   4.764   0.111   8.355 -0.1544  0.4645 -1.7882
  155SAPE  C31717307   4.706   0.207   8.547 -0.3526  0.2679 -0.3858
  155SAPE  H17X17308   4.806   0.188   8.592  0.6544  1.9997 -1.7351
  155SAPE  H17Y17309   4.634   0.132   8.586 -0.0345  0.1402 -0.0333
  155SAPE  C31817310   4.657   0.334   8.610  0.6256  0.1788 -0.8278
  155SAPE  H18X17311   4.652   0.339   8.721  1.3767  0.7579 -0.8085
  155SAPE  H18Y17312   4.562   0.369   8.565  1.7148  2.9791 -1.1334
  155SAPE  H18Z17313   4.722   0.418   8.578  0.2165  0.9339  0.2568
  156SAPE     N17314   5.132   3.461   6.717  0.1292  0.4743 -0.1283
  156SAPE   HN117315   5.225   3.418   6.734  0.5005  0.4266 -2.0516
  156SAPE   HN217316   5.082   3.500   6.799 -1.4863 -0.1091 -0.7992
  156SAPE   HN317317   5.071   3.380   6.694  1.2207 -0.6032  0.6412
  156SAPE   C1217318   5.126   3.551   6.597  0.1780  0.2186 -0.0348
  156SAPE  H12A17319   5.201   3.632   6.601  0.1791  0.3448 -1.6933
  156SAPE  H12B17320   5.025   3.596   6.588 -1.3952 -2.2087  3.4582
  156SAPE   C1117321   5.171   3.471   6.474  0.2874  0.3809 -0.7508
  156SAPE  H11A17322   5.273   3.428   6.483  0.5799  1.0539 -0.7851
  156SAPE  H11B17323   5.169   3.540   6.387 -1.0896  0.4313 -0.6970
  156SAPE     P17324   5.083   3.222   6.445  0.1687  0.5835  0.3406
  156SAPE   O1317325   4.951   3.155   6.416 -0.2425  0.3251  0.2964
  156SAPE   O1417326   5.191   3.190   6.355 -0.5951  0.0266  0.1975
  156SAPE   O1217327   5.069   3.380   6.443  0.5801  0.1226  0.5602
  156SAPE   O1117328   5.139   3.200   6.591 -0.0187  0.1930 -0.7040
  156SAPE    C117329   5.130   3.061   6.632 -0.2651  0.2565 -0.4722
  156SAPE    HA17330   5.034   3.019   6.597  0.3239 -0.2692 -1.4997
  156SAPE    HB17331   5.219   3.009   6.590 -1.2256  0.0125 -2.3186
  156SAPE    C217332   5.137   3.051   6.791  0.3574 -0.2410 -0.0369
  156SAPE    HS17333   5.167   2.948   6.821  3.4063  0.5310 -0.0567
  156SAPE   O2117334   5.013   3.088   6.857  0.5924  0.3898 -0.9326
  156SAPE   C2117335   4.917   2.989   6.850 -0.3870 -0.7656  0.1258
  156SAPE   O2217336   4.932   2.877   6.811  0.1040  0.1007  0.2939
  156SAPE   C2217337   4.791   3.050   6.928 -0.3527 -0.9169 -0.3462
  156SAPE   H2R17338   4.735   3.112   6.854  0.7024  0.3720 -0.1101
  156SAPE   H2S17339   4.728   2.962   6.953 -1.1261 -0.3202 -0.1633
  156SAPE    C317340   5.252   3.143   6.841  0.4595 -0.7434 -0.6947
  156SAPE    HX17341   5.240   3.243   6.796 -0.2375  0.0739  1.2208
  156SAPE    HY17342   5.337   3.097   6.784 -1.1849 -0.5483 -3.4963
  156SAPE   O3117343   5.261   3.139   6.988 -0.4467  0.0015 -0.0455
  156SAPE   C3117344   5.202   3.242   7.048 -0.0478  0.1651 -0.8627
  156SAPE   O3217345   5.138   3.331   7.001  0.6155 -0.0233  0.2800
  156SAPE   C3217346   5.230   3.226   7.198 -0.1990  0.2439  0.0419
  156SAPE   H2X17347   5.339   3.217   7.218 -0.4298 -0.7998  0.9585
  156SAPE   H2Y17348   5.178   3.140   7.246 -1.7166  1.0226 -0.1739
  156SAPE   C2317349   4.819   3.129   7.059 -0.3836  0.2683  0.8174
  156SAPE   H3R17350   4.717   3.151   7.099 -1.0448 -1.9787  0.4833
  156SAPE   H3S17351   4.877   3.222   7.041 -0.6934  0.5187  1.0830
  156SAPE   C2417352   4.900   3.053   7.166 -0.6513  0.7736 -0.6911
  156SAPE   H4R17353   4.923   3.130   7.243 -0.9431 -1.2761  1.5674
  156SAPE   H4S17354   4.995   3.008   7.133 -0.8811 -0.2426 -0.0195
  156SAPE   C2517355   4.828   2.943   7.236  0.6768 -0.0155  0.0943
  156SAPE   H5R17356   4.769   2.876   7.171 -0.1576  1.6218 -0.8899
  156SAPE   C2617357   4.817   2.910   7.368 -0.1177 -0.5406  0.3174
  156SAPE   H6R17358   4.750   2.832   7.406 -0.9929  0.7647  1.5616
  156SAPE   C2717359   4.881   2.988   7.483 -0.0101 -0.4011 -0.2240
  156SAPE   H7R17360   4.982   3.027   7.456 -0.7727  1.6176 -0.3527
  156SAPE   H7S17361   4.899   2.919   7.568  1.7740  0.5910  0.2549
  156SAPE   C2817362   4.793   3.104   7.525  0.0612 -0.2714  0.2591
  156SAPE   H8R17363   4.795   3.183   7.448 -1.0275 -1.7438 -1.3289
  156SAPE   C2917364   4.720   3.117   7.634  0.1142 -0.4319 -0.6636
  156SAPE   H9R17365   4.665   3.211   7.648 -0.6109 -0.7429 -1.3374
  156SAPE  C21017366   4.720   3.012   7.746  0.4897 -0.3614  0.0598
  156SAPE  H10R17367   4.750   2.910   7.716  0.5784 -0.4354  0.3912
  156SAPE  H10S17368   4.611   2.999   7.760  0.0674  0.1759 -2.2727
  156SAPE  C21117369   4.794   3.062   7.870 -0.2061 -0.2748  0.0976
  156SAPE  H11R17370   4.903   3.071   7.853 -0.7443  1.3950 -3.5434
  156SAPE  C21217371   4.748   3.062   7.998 -0.1952 -0.3263  0.5673
  156SAPE  H12R17372   4.824   3.084   8.075 -1.4462  0.7173  1.5517
  156SAPE  C21317373   4.603   3.038   8.036 -0.5723 -0.5467  0.0084
  156SAPE  H13R17374   4.561   2.947   7.986  0.0915 -1.7580  1.5595
  156SAPE  H13S17375   4.545   3.125   7.999  0.8838 -0.2321 -1.6660
  156SAPE  C21417376   4.579   3.023   8.183 -0.4238 -0.8003  0.4740
  156SAPE  H14R17377   4.579   2.918   8.218 -3.3591 -1.3487 -0.8409
  156SAPE  C21517378   4.574   3.121   8.271  0.4820  0.6519  0.5607
  156SAPE  H15R17379   4.542   3.094   8.373 -3.5984  0.4379 -0.5927
  156SAPE  C21617380   4.581   3.266   8.263  0.1778 -0.8707  0.1777
  156SAPE  H16R17381   4.514   3.309   8.341  0.7776  0.5913 -0.0734
  156SAPE  H16S17382   4.548   3.292   8.160 -1.9010  0.2251  1.0625
  156SAPE  C21717383   4.728   3.315   8.272  0.4062  0.4020 -0.6604
  156SAPE  H17R17384   4.771   3.291   8.172 -1.7189  2.0936 -2.0950
  156SAPE  H17S17385   4.780   3.260   8.352 -0.4763 -0.8431 -0.9219
  156SAPE  C21817386   4.745   3.464   8.300  0.1473  0.4144  0.3510
  156SAPE  H18R17387   4.644   3.509   8.292 -0.9565 -1.9921 -0.1960
  156SAPE  H18S17388   4.792   3.504   8.208  2.5216 -0.3890  1.1440
  156SAPE  C21917389   4.818   3.509   8.423  0.6394 -0.5567  0.5211
  156SAPE  H19R17390   4.763   3.477   8.514 -1.5560 -0.4270 -0.6614
  156SAPE  H19S17391   4.818   3.620   8.414  0.0860 -0.6192 -0.4594
  156SAPE  C22017392   4.965   3.464   8.416 -0.1654 -0.7174  0.4298
  156SAPE  H20R17393   5.012   3.480   8.516  0.7696 -1.5636  0.1528
  156SAPE  H20S17394   5.012   3.529   8.340 -0.4863  0.2969  1.0763
  156SAPE  H20T17395   4.977   3.355   8.398  1.1432 -0.3318 -1.2515
  156SAPE   C3317396   5.186   3.343   7.293 -0.4523  0.5330  1.0362
  156SAPE   H3X17397   5.080   3.358   7.265 -0.3319 -1.1560 -0.5370
  156SAPE   H3Y17398   5.254   3.430   7.279 -1.6725  1.0788 -2.7615
  156SAPE   C3417399   5.198   3.291   7.437 -0.9308  0.1148 -0.2486
  156SAPE   H4X17400   5.138   3.198   7.446  1.0668 -1.2267 -0.0889
  156SAPE   H4Y17401   5.162   3.368   7.509  1.5126 -0.7007  2.0363
  156SAPE   C3517402   5.345   3.264   7.480 -0.3075 -0.2757 -1.1278
  156SAPE   H5X17403   5.410   3.354   7.476  1.8597 -1.7468 -1.0316
  156SAPE   H5Y17404   5.394   3.179   7.428  0.6489  0.1530 -0.9665
  156SAPE   C3617405   5.335   3.211   7.628  0.0733 -0.4716  0.7761
  156SAPE   H6X17406   5.251   3.138   7.637 -0.9366  0.6774  0.9302
  156SAPE   H6Y17407   5.308   3.303   7.685 -1.0975  0.8586 -1.7730
  156SAPE   C3717408   5.462   3.149   7.679  0.4933 -0.3107  0.4165
  156SAPE   H7X17409   5.536   3.225   7.645  1.7058 -0.7440  2.0161
  156SAPE   H7Y17410   5.497   3.054   7.634 -0.1873 -0.6934  0.6780
  156SAPE   C3817411   5.465   3.138   7.825  0.6019  0.4515  0.1729
  156SAPE   H8X17412   5.370   3.111   7.875 -0.7264  0.7192 -2.0749
  156SAPE   H8Y17413   5.498   3.233   7.873 -2.5575  1.0212  1.4978
  156SAPE   C3917414   5.568   3.027   7.871  0.7879 -1.1071  0.4177
  156SAPE   H9X17415   5.666   3.059   7.831  0.2551  0.6379  0.3945
  156SAPE   H9Y17416   5.538   2.935   7.818  0.9781 -0.7197 -0.3743
  156SAPE  C31017417   5.568   3.002   8.021  0.5067 -0.1053  0.2940
  156SAPE  H10X17418   5.560   3.095   8.081 -1.3850  0.2975 -0.4840
  156SAPE  H10Y17419   5.656   2.944   8.054  0.3407 -0.1463  0.6681
  156SAPE  C31117420   5.453   2.917   8.071 -0.3961 -0.1498  0.1719
  156SAPE  H11X17421   5.468   2.812   8.040  1.8132 -0.7501  2.9850
  156SAPE  H11Y17422   5.354   2.950   8.032  0.2319  0.5409 -0.9036
  156SAPE  C31217423   5.437   2.932   8.220 -0.4574 -0.0892 -0.5180
  156SAPE  H12X17424   5.335   2.896   8.243  0.2009 -1.9299 -0.3401
  156SAPE  H12Y17425   5.434   3.041   8.243  0.7229 -0.2566  0.5561
  156SAPE  C31317426   5.544   2.852   8.302  0.5970  0.8971  0.3247
  156SAPE  H13X17427   5.645   2.896   8.285  1.4273 -0.6048  1.2300
  156SAPE  H13Y17428   5.554   2.745   8.273 -0.9209  0.8735 -0.1870
  156SAPE  C31417429   5.518   2.846   8.454  0.3623  0.8381  0.0494
  156SAPE  H14X17430   5.488   2.945   8.493 -0.5287  1.1346 -1.3195
  156SAPE  H14Y17431   5.615   2.810   8.494  2.1809  2.9783 -2.1768
  156SAPE  C31517432   5.404   2.750   8.476 -0.1211 -0.8055 -0.0001
  156SAPE  H15X17433   5.446   2.656   8.435  3.1730  0.6258 -0.2045
  156SAPE  H15Y17434   5.316   2.771   8.411  2.0168  0.2435 -2.7592
  156SAPE  C31617435   5.348   2.741   8.619  0.9099  0.8355  0.0897
  156SAPE  H16X17436   5.316   2.836   8.667  1.8525  1.5378 -0.6265
  156SAPE  H16Y17437   5.436   2.715   8.682 -0.6873 -2.6231  1.1596
  156SAPE  C31717438   5.249   2.637   8.648  0.1837 -0.2437 -0.4204
  156SAPE  H17X17439   5.274   2.534   8.615 -3.4893 -1.8058  1.1225
  156SAPE  H17Y17440   5.152   2.666   8.603  0.5136 -0.3179 -1.1956
  156SAPE  C31817441   5.217   2.619   8.799 -0.1436  0.3330  0.1786
  156SAPE  H18X17442   5.304   2.600   8.865 -0.6509 -3.9773 -0.0758
  156SAPE  H18Y17443   5.150   2.533   8.818  0.5156  0.2105  2.1348
  156SAPE  H18Z17444   5.156   2.704   8.835  0.4667  0.5709  0.6767
  157SAPE     N17445   3.475   5.289   6.072 -0.7977  0.1024  0.3868
  157SAPE   HN117446   3.555   5.238   6.114 -0.3374  0.5862  0.1039
  157SAPE   HN217447   3.390   5.245   6.113 -0.9500  0.4058  0.3991
  157SAPE   HN317448   3.472   5.289   5.968  1.5626 -1.9386  0.2199
  157SAPE   C1217449   3.509   5.433   6.100 -0.7761 -0.8522  0.1579
  157SAPE  H12A17450   3.494   5.457   6.207 -0.9969 -1.5794  0.3000
  157SAPE  H12B17451   3.437   5.493   6.040 -0.5836 -2.0249 -1.3211
  157SAPE   C1117452   3.653   5.452   6.062 -0.0812  0.0988  0.3858
  157SAPE  H11A17453   3.681   5.560   6.065  1.7783 -0.3208 -0.3503
  157SAPE  H11B17454   3.680   5.419   5.960  1.5116  1.2105  0.4013
  157SAPE     P17455   3.804   5.246   6.145  0.1368 -0.2723  0.0086
  157SAPE   O1317456   3.697   5.151   6.142  0.3517 -0.4823  0.3398
  157SAPE   O1417457   3.891   5.252   6.028 -0.3192  0.0016 -0.3871
  157SAPE   O1217458   3.737   5.387   6.160  0.1289  0.4518  0.1153
  157SAPE   O1117459   3.889   5.231   6.274  0.2387 -0.4311  0.0076
  157SAPE    C117460   3.977   5.338   6.318 -0.4640  0.2357 -0.2252
  157SAPE    HA17461   4.083   5.304   6.327 -0.2877  1.0717  1.1267
  157SAPE    HB17462   3.971   5.431   6.258 -2.8907  1.1443  1.2740
  157SAPE    C217463   3.937   5.377   6.461 -0.2938 -0.2141  0.2338
  157SAPE    HS17464   3.991   5.468   6.494 -0.8019 -0.7610  2.7532
  157SAPE   O2117465   3.946   5.269   6.556 -0.3567  0.3328 -0.1006
  157SAPE   C2117466   4.074   5.260   6.593 -0.0823  0.3799 -0.4307
  157SAPE   O2217467   4.165   5.341   6.580  0.4778  0.2014  0.3996
  157SAPE   C2217468   4.098   5.124   6.659 -0.8731  0.3186 -0.1639
  157SAPE   H2R17469   4.007   5.060   6.662 -1.1795  0.1999 -4.8089
  157SAPE   H2S17470   4.166   5.077   6.585 -1.1996  1.6614 -1.3508
  157SAPE    C317471   3.782   5.419   6.469 -0.0007 -0.6048  0.4488
  157SAPE    HX17472   3.719   5.341   6.422 -3.2933  2.4147 -0.5573
  157SAPE    HY17473   3.775   5.501   6.394 -0.5429  1.1373  2.3376
  157SAPE   O3117474   3.740   5.477   6.598 -0.9204 -0.1840  0.7983
  157SAPE   C3117475   3.635   5.415   6.656  0.4057 -0.5270  0.6919
  157SAPE   O3217476   3.585   5.311   6.628  0.6873  0.5056  0.6137
  157SAPE   C3217477   3.574   5.516   6.758 -0.1753  0.3291  0.4290
  157SAPE   H2X17478   3.586   5.618   6.714  3.8278 -0.5491 -0.9561
  157SAPE   H2Y17479   3.641   5.509   6.846 -0.5044  1.2037  0.7556
  157SAPE   C2317480   4.178   5.133   6.796  0.3217  0.1249 -0.5672
  157SAPE   H3R17481   4.112   5.168   6.879  0.0919  0.0381 -0.7142
  157SAPE   H3S17482   4.248   5.218   6.780  0.9464  0.0166  1.2557
  157SAPE   C2417483   4.249   5.008   6.841 -0.5960  0.1959  0.0497
  157SAPE   H4R17484   4.303   5.043   6.932 -3.5783  2.0701  1.2533
  157SAPE   H4S17485   4.311   4.981   6.753 -1.5891 -1.3802 -0.2025
  157SAPE   C2517486   4.172   4.879   6.865  0.0199 -0.5264  0.4701
  157SAPE   H5R17487   4.143   4.821   6.776  0.3957  0.5395 -0.3719
  157SAPE   C2617488   4.151   4.819   6.987 -0.4617 -0.0635 -0.1954
  157SAPE   H6R17489   4.091   4.727   6.984  0.0166 -0.4409  1.1705
  157SAPE   C2717490   4.194   4.875   7.119  0.0289  0.7224 -0.2504
  157SAPE   H7R17491   4.281   4.942   7.104  0.7987 -0.1888  0.0801
  157SAPE   H7S17492   4.229   4.796   7.188  0.7384  1.8404  0.7138
  157SAPE   C2817493   4.091   4.961   7.183  0.8824  0.2100  0.3062
  157SAPE   H8R17494   4.098   5.064   7.144 -0.9968 -0.1697 -1.2272
  157SAPE   C2917495   4.008   4.916   7.283  0.3895 -0.1738 -0.0963
  157SAPE   H9R17496   3.945   4.988   7.336 -1.9351 -2.2913  0.2029
  157SAPE  C21017497   4.003   4.775   7.334  1.2547 -0.6729 -0.2883
  157SAPE  H10R17498   4.077   4.760   7.415 -1.2695  3.4321  3.2217
  157SAPE  H10S17499   4.020   4.700   7.253 -1.0360 -3.1139  1.3086
  157SAPE  C21117500   3.870   4.747   7.407 -0.4162 -0.2851  0.1119
  157SAPE  H11R17501   3.787   4.727   7.337 -2.6827  2.6755  1.7463
  157SAPE  C21217502   3.850   4.746   7.536 -0.0463  0.3784 -1.0503
  157SAPE  H12R17503   3.745   4.731   7.565  0.4516  1.5976  1.6472
  157SAPE  C21317504   3.949   4.771   7.655  0.7198 -0.2365  0.1346
  157SAPE  H13R17505   4.052   4.760   7.615  1.4846  0.4506  1.8072
  157SAPE  H13S17506   3.930   4.683   7.721 -0.7600 -1.2018 -1.4956
  157SAPE  C21417507   3.933   4.894   7.733  0.0360  0.2013  0.2622
  157SAPE  H14R17508   3.967   4.981   7.675  0.4935 -0.4190 -0.4358
  157SAPE  C21517509   3.886   4.904   7.861 -1.3233  0.4183 -0.4808
  157SAPE  H15R17510   3.887   5.004   7.907  0.3876  0.2675 -0.1168
  157SAPE  C21617511   3.848   4.797   7.958  0.2579  0.3112  0.3348
  157SAPE  H16R17512   3.800   4.718   7.896  0.7839  2.8345 -3.6614
  157SAPE  H16S17513   3.762   4.831   8.020  0.0488  0.6325 -0.1215
  157SAPE  C21717514   3.961   4.740   8.038  0.1372  0.3505 -0.0917
  157SAPE  H17R17515   4.016   4.819   8.094  1.2518 -1.3003  1.2514
  157SAPE  H17S17516   4.033   4.680   7.979 -0.2554 -0.3533  0.1302
  157SAPE  C21817517   3.909   4.632   8.145  0.4560 -0.5443 -0.0461
  157SAPE  H18R17518   3.846   4.561   8.087 -0.9377 -0.6195  1.4783
  157SAPE  H18S17519   3.830   4.685   8.201 -0.0381  0.8784 -1.9825
  157SAPE  C21917520   4.017   4.569   8.230  0.9385 -0.5695  0.5988
  157SAPE  H19R17521   3.959   4.534   8.319 -0.3710  1.3779  0.5842
  157SAPE  H19S17522   4.088   4.635   8.284  2.0751 -1.1854 -0.1116
  157SAPE  C22017523   4.084   4.453   8.155  0.0812  0.1740 -0.2872
  157SAPE  H20R17524   4.012   4.389   8.100 -1.8112  1.9326  0.0337
  157SAPE  H20S17525   4.153   4.389   8.215 -1.0154 -0.6046  0.1717
  157SAPE  H20T17526   4.157   4.493   8.082  0.1449  1.8013  0.6366
  157SAPE   C3317527   3.428   5.516   6.811  0.0006  0.3111  0.1316
  157SAPE   H3X17528   3.401   5.411   6.837 -2.1248  0.7890 -0.0325
  157SAPE   H3Y17529   3.363   5.566   6.736  2.0666  4.7971  0.9942
  157SAPE   C3417530   3.413   5.589   6.942  0.2207  0.0078  0.7118
  157SAPE   H4X17531   3.307   5.588   6.974  0.3891 -2.2701  1.3525
  157SAPE   H4Y17532   3.452   5.692   6.924  2.3739 -0.9890 -0.7586
  157SAPE   C3517533   3.490   5.534   7.057 -0.7307  0.5084  0.5329
  157SAPE   H5X17534   3.599   5.550   7.045 -0.3166 -2.6477 -1.0518
  157SAPE   H5Y17535   3.470   5.424   7.055 -3.1312  0.8921  0.0926
  157SAPE   C3617536   3.436   5.579   7.192 -0.6348  0.3033  0.2052
  157SAPE   H6X17537   3.325   5.576   7.200 -0.5038 -1.9368  2.3072
  157SAPE   H6Y17538   3.477   5.681   7.205 -1.9444  0.7321  1.1379
  157SAPE   C3717539   3.499   5.487   7.293 -0.5070 -0.0171  0.0875
  157SAPE   H7X17540   3.610   5.485   7.284 -0.6941 -0.6311 -2.9444
  157SAPE   H7Y17541   3.448   5.392   7.267  0.1286 -0.1835 -0.5580
  157SAPE   C3817542   3.468   5.536   7.433 -0.8516 -0.0751 -0.7658
  157SAPE   H8X17543   3.362   5.568   7.440 -1.2992 -1.5244 -0.5497
  157SAPE   H8Y17544   3.526   5.628   7.457  2.5809 -1.5099 -2.8605
  157SAPE   C3917545   3.491   5.427   7.529 -0.0873  0.5344  0.0032
  157SAPE   H9X17546   3.592   5.385   7.510 -0.4775 -0.1558 -0.6327
  157SAPE   H9Y17547   3.414   5.353   7.498 -1.4782  2.5234 -1.5268
  157SAPE  C31017548   3.492   5.460   7.686  0.0543  0.1240  0.4173
  157SAPE  H10X17549   3.396   5.487   7.736 -1.7768 -2.1713 -1.6592
  157SAPE  H10Y17550   3.571   5.534   7.714 -2.7120  2.5782  2.4385
  157SAPE  C31117551   3.521   5.330   7.765  0.0007  0.0913 -0.6730
  157SAPE  H11X17552   3.603   5.269   7.721  0.7260  0.3565  0.2971
  157SAPE  H11Y17553   3.436   5.261   7.747 -0.4597 -0.1458  2.0755
  157SAPE  C31217554   3.536   5.356   7.915  0.1839 -0.1976  0.0833
  157SAPE  H12X17555   3.443   5.409   7.946  0.7444  0.1602  1.1703
  157SAPE  H12Y17556   3.621   5.426   7.920 -1.0700  1.3294  0.9452
  157SAPE  C31317557   3.565   5.236   7.999  0.0652 -0.8593  0.1527
  157SAPE  H13X17558   3.657   5.178   7.980  2.6671  2.7140  0.8688
  157SAPE  H13Y17559   3.475   5.172   7.989 -1.0158  0.8790 -2.0356
  157SAPE  C31417560   3.561   5.272   8.151  0.1736 -0.6078  0.4426
  157SAPE  H14X17561   3.510   5.371   8.158  0.0380 -0.4636 -1.8453
  157SAPE  H14Y17562   3.667   5.278   8.185  1.4937  0.3446 -3.2987
  157SAPE  C31517563   3.478   5.183   8.249  0.6901  0.0658  0.2175
  157SAPE  H15X17564   3.382   5.163   8.196  0.2680  1.9795  0.1686
  157SAPE  H15Y17565   3.448   5.235   8.342  2.3040  1.0002  0.2472
  157SAPE  C31617566   3.534   5.043   8.279 -0.1617 -0.2450 -0.9176
  157SAPE  H16X17567   3.554   4.996   8.180 -1.3819  1.4941 -2.0476
  157SAPE  H16Y17568   3.447   4.985   8.318 -1.2424  1.5297 -0.5799
  157SAPE  C31717569   3.659   5.039   8.376 -0.0169  0.0242  0.2382
  157SAPE  H17X17570   3.627   5.088   8.471 -0.9906  0.0587 -0.0961
  157SAPE  H17Y17571   3.736   5.103   8.329 -1.3327  0.0762 -1.9798
  157SAPE  C31817572   3.708   4.899   8.412  0.0872 -0.2604  0.8182
  157SAPE  H18X17573   3.706   4.839   8.318  1.6521 -0.7218  1.0433
  157SAPE  H18Y17574   3.626   4.859   8.475  0.2049 -2.5238 -0.3607
  157SAPE  H18Z17575   3.811   4.892   8.452 -0.4060 -1.9945  1.8913
  158SAPE     N17576   2.584   2.251   5.881  0.0521 -0.3824 -0.4253
  158SAPE   HN117577   2.490   2.266   5.840 -1.0408 -0.6636  1.7782
  158SAPE   HN217578   2.636   2.340   5.870  0.0205  0.0953  2.4523
  158SAPE   HN317579   2.637   2.177   5.831  1.6491  0.1326  0.4196
  158SAPE   C1217580   2.584   2.211   6.030 -0.1242  0.8379  0.1097
  158SAPE  H12A17581   2.691   2.184   6.045 -0.5872 -0.6622  0.8684
  158SAPE  H12B17582   2.528   2.117   6.047  1.4903 -0.2137 -0.0993
  158SAPE   C1117583   2.558   2.330   6.121  0.1063  0.5041  0.0532
  158SAPE  H11A17584   2.647   2.392   6.095 -0.0497  0.3638 -0.8817
  158SAPE  H11B17585   2.567   2.305   6.228  2.0402  2.4912  0.4327
  158SAPE     P17586   2.419   2.542   6.122 -0.2251 -0.6246 -0.3429
  158SAPE   O1317587   2.542   2.608   6.076 -0.1222 -0.5023  0.1553
  158SAPE   O1417588   2.286   2.594   6.070 -0.0710 -0.0557 -0.0215
  158SAPE   O1217589   2.432   2.390   6.089  0.3271  0.0701  0.2375
  158SAPE   O1117590   2.404   2.542   6.282 -0.0950  0.1464 -0.6373
  158SAPE    C117591   2.308   2.438   6.334  0.0794 -0.0851  0.3022
  158SAPE    HA17592   2.212   2.425   6.279 -0.6402 -0.4577  1.5882
  158SAPE    HB17593   2.359   2.339   6.332 -0.1222 -0.1854  0.0736
  158SAPE    C217594   2.267   2.470   6.468 -0.4381  0.6840  0.5311
  158SAPE    HS17595   2.204   2.561   6.454 -2.8740 -0.8508  0.9738
  158SAPE   O2117596   2.381   2.489   6.550 -0.1187 -0.4671  0.8787
  158SAPE   C2117597   2.354   2.534   6.675  0.7133  0.1236  0.5448
  158SAPE   O2217598   2.250   2.589   6.700 -0.2446 -0.0813  0.1220
  158SAPE   C2217599   2.468   2.513   6.772  0.1377 -0.4324 -0.4905
  158SAPE   H2R17600   2.512   2.411   6.772  0.2849 -0.3701 -0.6379
  158SAPE   H2S17601   2.558   2.567   6.735 -0.4233  1.3677  0.6503
  158SAPE    C317602   2.179   2.362   6.526 -0.3461 -0.1840  0.0851
  158SAPE    HX17603   2.078   2.373   6.481 -0.0484 -2.0845 -1.1506
  158SAPE    HY17604   2.166   2.373   6.636 -1.9161 -2.0939  0.1459
  158SAPE   O3117605   2.215   2.222   6.497 -0.1165 -0.5595 -0.1203
  158SAPE   C3117606   2.332   2.179   6.546  0.1459  0.5060 -1.0315
  158SAPE   O3217607   2.391   2.232   6.638 -0.0109  0.6389  0.0532
  158SAPE   C3217608   2.383   2.063   6.462 -0.1436  0.2151 -0.0515
  158SAPE   H2X17609   2.494   2.066   6.470 -0.0415  2.7347 -1.2655
  158SAPE   H2Y17610   2.361   2.089   6.356 -0.7710 -0.8368 -0.1912
  158SAPE   C2317611   2.443   2.551   6.926 -0.2042 -0.8846  0.7565
  158SAPE   H3R17612   2.403   2.654   6.927 -2.5568 -1.6920 -1.0468
  158SAPE   H3S17613   2.544   2.553   6.973  0.3826  1.7806 -0.4510
  158SAPE   C2417614   2.354   2.461   6.996  0.1126 -0.5435  0.3858
  158SAPE   H4R17615   2.254   2.464   6.948 -0.5905  0.4319  1.8493
  158SAPE   H4S17616   2.366   2.502   7.098  4.5711  1.2775 -0.6045
  158SAPE   C2517617   2.409   2.322   7.009  0.6888  0.2819  0.0455
  158SAPE   H5R17618   2.383   2.243   6.937 -0.9469  0.2484  0.6237
  158SAPE   C2617619   2.502   2.275   7.085 -0.5696 -0.0355 -0.4739
  158SAPE   H6R17620   2.538   2.171   7.074 -0.3876 -0.0287  0.0183
  158SAPE   C2717621   2.587   2.350   7.187 -0.3608 -0.1624  0.8255
  158SAPE   H7R17622   2.549   2.454   7.179 -2.6648 -0.7804  2.3605
  158SAPE   H7S17623   2.695   2.345   7.162 -0.8594 -0.0854 -1.5564
  158SAPE   C2817624   2.562   2.285   7.326  0.3420 -0.2409 -0.1155
  158SAPE   H8R17625   2.570   2.176   7.336 -2.3074 -0.4555  0.1944
  158SAPE   C2917626   2.535   2.350   7.437  0.4085  0.0341  0.1378
  158SAPE   H9R17627   2.512   2.285   7.524 -1.3272  1.7662  1.0662
  158SAPE  C21017628   2.520   2.498   7.478 -0.6297  0.2456 -0.1131
  158SAPE  H10R17629   2.436   2.502   7.551 -1.2471 -3.1043 -0.4437
  158SAPE  H10S17630   2.493   2.557   7.388 -2.3156 -0.6318 -0.2392
  158SAPE  C21117631   2.647   2.555   7.529 -0.2083 -0.3898  0.2665
  158SAPE  H11R17632   2.727   2.564   7.454 -1.5582 -2.2330 -1.4853
  158SAPE  C21217633   2.662   2.598   7.656  0.0615  0.0589 -0.5398
  158SAPE  H12R17634   2.759   2.636   7.692 -1.1102 -0.0299  3.2204
  158SAPE  C21317635   2.559   2.592   7.774  0.4391 -0.0469  0.8112
  158SAPE  H13R17636   2.601   2.562   7.872 -0.3412 -0.7492  0.9445
  158SAPE  H13S17637   2.493   2.506   7.752  1.7343 -0.9106  0.1858
  158SAPE  C21417638   2.491   2.727   7.777 -0.0923  0.0872  0.2001
  158SAPE  H14R17639   2.528   2.808   7.712  1.8344  0.6178  1.8669
  158SAPE  C21517640   2.405   2.762   7.876  0.7161 -0.1472  0.2031
  158SAPE  H15R17641   2.372   2.867   7.885  2.6672  0.8921 -3.1187
  158SAPE  C21617642   2.356   2.680   7.985 -0.6682 -0.0825 -0.0638
  158SAPE  H16R17643   2.382   2.572   7.989 -1.1286 -0.2060 -0.3494
  158SAPE  H16S17644   2.245   2.685   7.987 -0.6203  2.6748  0.6024
  158SAPE  C21717645   2.396   2.732   8.129 -0.6069 -0.5114  0.0007
  158SAPE  H17R17646   2.332   2.688   8.209 -1.3814  0.3962 -0.0996
  158SAPE  H17S17647   2.358   2.836   8.147 -2.1450 -1.3045  1.7618
  158SAPE  C21817648   2.543   2.721   8.175 -0.0236  0.1260 -0.4210
  158SAPE  H18R17649   2.560   2.771   8.273 -0.7355 -0.8396  0.2105
  158SAPE  H18S17650   2.597   2.790   8.107 -1.0832  0.9594 -0.4375
  158SAPE  C21917651   2.611   2.584   8.168 -0.0583  0.4430 -0.2607
  158SAPE  H19R17652   2.571   2.536   8.076  0.2515 -0.9811  0.3229
  158SAPE  H19S17653   2.581   2.515   8.249  2.2139 -1.6362 -1.0463
  158SAPE  C22017654   2.761   2.593   8.162 -0.4938 -0.2748 -0.1064
  158SAPE  H20R17655   2.811   2.505   8.117  2.3151  1.6636 -1.0333
  158SAPE  H20S17656   2.812   2.622   8.256 -1.3542 -0.3474  0.4010
  158SAPE  H20T17657   2.783   2.677   8.093 -2.8298  1.0563  0.6683
  158SAPE   C3317658   2.325   1.918   6.499 -0.1964  0.0500  0.2189
  158SAPE   H3X17659   2.377   1.840   6.439  0.2413  1.7315 -1.6889
  158SAPE   H3Y17660   2.217   1.904   6.478  0.4383 -5.2158 -1.0998
  158SAPE   C3417661   2.356   1.878   6.647 -0.2910  0.2156  0.0169
  158SAPE   H4X17662   2.330   1.774   6.675  0.3933  0.1597  0.4729
  158SAPE   H4Y17663   2.290   1.939   6.713  0.2533  1.9996 -1.0128
  158SAPE   C3517664   2.504   1.896   6.685 -0.8631 -1.0317  0.0788
  158SAPE   H5X17665   2.530   2.004   6.684  3.6296 -1.8905 -0.5999
  158SAPE   H5Y17666   2.561   1.850   6.601 -3.6349 -0.3769 -2.3298
  158SAPE   C3617667   2.535   1.833   6.819 -0.0787  0.4221 -0.0484
  158SAPE   H6X17668   2.646   1.822   6.821 -0.3186 -3.0289  0.8723
  158SAPE   H6Y17669   2.488   1.732   6.823  0.6766  0.0845  0.6340
  158SAPE   C3717670   2.499   1.907   6.943  0.6147 -0.1623 -0.1671
  158SAPE   H7X17671   2.569   1.992   6.961 -0.1520  0.8792 -1.8899
  158SAPE   H7Y17672   2.403   1.959   6.923  0.2811 -0.7833 -0.2131
  158SAPE   C3817673   2.489   1.823   7.070 -0.3555  0.1725 -0.3081
  158SAPE   H8X17674   2.596   1.816   7.100  0.1987  2.2512 -1.5874
  158SAPE   H8Y17675   2.460   1.719   7.043 -0.4447  0.7068 -2.4301
  158SAPE   C3917676   2.401   1.872   7.190  0.0638 -0.4988  0.7996
  158SAPE   H9X17677   2.305   1.905   7.146  0.5871 -1.1467 -0.8844
  158SAPE   H9Y17678   2.450   1.962   7.234 -0.3917  0.5913 -0.8280
  158SAPE  C31017679   2.368   1.769   7.305  0.8901  0.1406 -0.3004
  158SAPE  H10X17680   2.311   1.689   7.254 -0.2102  1.3593 -1.0647
  158SAPE  H10Y17681   2.309   1.807   7.391  2.8118  0.7270  0.8376
  158SAPE  C31117682   2.491   1.706   7.375  0.6142 -0.0212 -0.5506
  158SAPE  H11X17683   2.537   1.787   7.436 -2.7667  1.4184  0.2978
  158SAPE  H11Y17684   2.560   1.661   7.300 -0.0517  0.4946 -1.5054
  158SAPE  C31217685   2.448   1.585   7.469  0.2655 -1.3198  0.1365
  158SAPE  H12X17686   2.414   1.499   7.408  1.4379 -1.1851 -0.7529
  158SAPE  H12Y17687   2.355   1.611   7.523 -0.4290  3.1559 -2.6485
  158SAPE  C31317688   2.567   1.525   7.544  0.0173  0.0915  0.8993
  158SAPE  H13X17689   2.647   1.513   7.468  2.0441  3.7939  2.2271
  158SAPE  H13Y17690   2.538   1.421   7.570 -0.3287 -0.0091  0.1527
  158SAPE  C31417691   2.614   1.609   7.665  0.4027 -0.4566 -0.4855
  158SAPE  H14X17692   2.525   1.653   7.716  2.4463  1.1283  1.9053
  158SAPE  H14Y17693   2.687   1.686   7.633  0.9658 -0.4404  0.7884
  158SAPE  C31517694   2.706   1.525   7.760  0.0880  0.1726  0.1053
  158SAPE  H15X17695   2.791   1.486   7.700  0.0646  0.0209  0.1698
  158SAPE  H15Y17696   2.645   1.437   7.790  0.2906  0.2428  0.7467
  158SAPE  C31617697   2.750   1.595   7.892  0.1597  0.5336  0.4793
  158SAPE  H16X17698   2.812   1.686   7.871  1.0802  0.0071  0.8801
  158SAPE  H16Y17699   2.824   1.539   7.952 -0.8846 -1.2046  0.2194
  158SAPE  C31717700   2.627   1.635   7.978 -0.3876  0.6955 -0.6626
  158SAPE  H17X17701   2.581   1.539   8.010 -0.4916  1.2171  0.7996
  158SAPE  H17Y17702   2.558   1.697   7.916 -1.4993 -1.7890 -2.0906
  158SAPE  C31817703   2.668   1.705   8.109  0.1192 -0.8071  0.0960
  158SAPE  H18X17704   2.723   1.632   8.172 -2.3621 -1.3926  1.7302
  158SAPE  H18Y17705   2.573   1.730   8.163  0.3516 -0.0515  0.1753
  158SAPE  H18Z17706   2.717   1.803   8.092  0.3653 -1.1050 -0.9210
  159SAPE     N17707   4.033   3.398   6.300  0.2132 -1.0941  0.2777
  159SAPE   HN117708   4.041   3.447   6.391  0.2404 -2.9749  1.3452
  159SAPE   HN217709   4.098   3.453   6.240 -2.2422  0.7612 -0.8242
  159SAPE   HN317710   3.937   3.408   6.262  0.4545 -1.3943 -0.4166
  159SAPE   C1217711   4.066   3.254   6.322 -0.2457  0.7368  0.0138
  159SAPE  H12A17712   4.007   3.197   6.247 -1.7285  0.0410  1.6423
  159SAPE  H12B17713   4.029   3.223   6.422 -1.6457  1.6018 -0.1923
  159SAPE   C1117714   4.223   3.245   6.313  0.3821 -0.0790 -0.0464
  159SAPE  H11A17715   4.264   3.331   6.371  0.6453  0.1247 -0.5236
  159SAPE  H11B17716   4.258   3.253   6.208  0.7942  0.7560  0.1436
  159SAPE     P17717   4.288   2.992   6.284 -0.1217  0.0422 -0.2681
  159SAPE   O1317718   4.252   3.023   6.144  0.1926 -0.0072 -0.5100
  159SAPE   O1417719   4.422   2.945   6.299  0.5466  0.3230 -0.3835
  159SAPE   O1217720   4.269   3.121   6.375 -0.3571  0.0115  0.0343
  159SAPE   O1117721   4.194   2.886   6.341  0.1016  0.6548  0.3840
  159SAPE    C117722   4.079   2.905   6.424 -0.0254 -0.1771  0.1087
  159SAPE    HA17723   4.034   3.006   6.413  1.3355  0.4033 -0.3536
  159SAPE    HB17724   4.006   2.838   6.375 -1.4603  0.8552  0.7608
  159SAPE    C217725   4.118   2.865   6.563 -0.0541  0.4525  0.5364
  159SAPE    HS17726   4.026   2.855   6.625 -0.9647  0.1757 -0.8275
  159SAPE   O2117727   4.212   2.956   6.619  0.0627  0.2100 -0.2685
  159SAPE   C2117728   4.177   3.078   6.648  0.3030  0.1026 -0.5815
  159SAPE   O2217729   4.060   3.119   6.647 -0.1570  0.3415  0.0083
  159SAPE   C2217730   4.294   3.167   6.689 -0.4901 -0.2373 -0.4774
  159SAPE   H2R17731   4.328   3.211   6.593 -1.2054  1.5865  0.0664
  159SAPE   H2S17732   4.251   3.250   6.749 -0.6838 -0.9308  0.3623
  159SAPE    C317733   4.197   2.730   6.561  0.4021 -0.2304 -0.6677
  159SAPE    HX17734   4.279   2.726   6.486  0.9168  0.8165 -0.1821
  159SAPE    HY17735   4.126   2.648   6.536  1.2418 -1.2305  0.1596
  159SAPE   O3117736   4.261   2.694   6.691 -0.3920 -0.3420 -0.0602
  159SAPE   C3117737   4.391   2.714   6.698 -0.1571  0.0078  0.4919
  159SAPE   O3217738   4.459   2.768   6.616  0.1790  0.4884  0.0842
  159SAPE   C3217739   4.439   2.657   6.837 -0.3743 -0.4016  0.2169
  159SAPE   H2X17740   4.389   2.559   6.851  1.1765 -1.0423  1.5698
  159SAPE   H2Y17741   4.405   2.727   6.917  0.0286  1.5636 -1.2458
  159SAPE   C2317742   4.416   3.095   6.762  0.2007  0.0932 -0.2642
  159SAPE   H3R17743   4.488   3.171   6.800 -0.1857  0.7283 -0.7741
  159SAPE   H3S17744   4.475   3.033   6.692  1.9366  0.7459  0.5745
  159SAPE   C2417745   4.372   3.012   6.882  0.6837  0.3162 -0.6516
  159SAPE   H4R17746   4.456   2.959   6.931 -0.4329  0.1980  1.2481
  159SAPE   H4S17747   4.294   2.939   6.851  0.0465 -0.0205  1.5680
  159SAPE   C2517748   4.294   3.094   6.978  0.1174 -0.9982 -0.2347
  159SAPE   H5R17749   4.246   3.189   6.950  0.5154 -0.6078  0.3812
  159SAPE   C2617750   4.267   3.057   7.111  0.3917 -0.3087  0.2285
  159SAPE   H6R17751   4.210   3.123   7.178  0.1830 -1.9027  1.6810
  159SAPE   C2717752   4.321   2.935   7.173 -0.0015 -0.5670 -0.0247
  159SAPE   H7R17753   4.425   2.929   7.135 -0.2883 -1.5659 -0.6909
  159SAPE   H7S17754   4.262   2.851   7.130  0.6282 -0.5931 -0.8638
  159SAPE   C2817755   4.314   2.961   7.321  0.5910  1.1209 -0.7110
  159SAPE   H8R17756   4.410   2.962   7.374 -0.7859  0.6942  1.9467
  159SAPE   C2917757   4.200   2.951   7.397 -0.2312 -0.4269  0.3516
  159SAPE   H9R17758   4.214   2.975   7.504  3.4208 -1.3262  0.2195
  159SAPE  C21017759   4.064   2.904   7.348 -0.0433  0.3074  0.4166
  159SAPE  H10R17760   4.079   2.857   7.249  0.6915 -1.8509  1.4941
  159SAPE  H10S17761   4.003   2.994   7.324  0.5136  0.6140  0.1509
  159SAPE  C21117762   3.985   2.808   7.434  0.7087  0.4948  0.8822
  159SAPE  H11R17763   3.988   2.704   7.399 -1.5817  0.4382  0.7097
  159SAPE  C21217764   3.925   2.835   7.549 -0.1388 -0.1716 -0.2825
  159SAPE  H12R17765   3.866   2.754   7.594 -0.8696  0.7003  0.3652
  159SAPE  C21317766   3.900   2.966   7.615 -0.6775 -0.1481  0.5436
  159SAPE  H13R17767   3.839   3.032   7.550 -1.6354 -0.9419  0.6063
  159SAPE  H13S17768   4.000   3.013   7.624 -0.1722 -0.9994 -0.4091
  159SAPE  C21417769   3.836   2.944   7.753 -0.4531  0.1749 -0.4863
  159SAPE  H14R17770   3.735   2.902   7.759 -0.2335 -0.5343 -1.4870
  159SAPE  C21517771   3.895   2.966   7.874 -0.5067 -0.0816  0.1464
  159SAPE  H15R17772   3.823   2.955   7.956 -0.9178 -1.4923 -0.3832
  159SAPE  C21617773   4.036   3.005   7.895 -0.3968  0.5083 -0.1078
  159SAPE  H16R17774   4.047   3.114   7.878 -0.1413  0.2378 -1.7987
  159SAPE  H16S17775   4.101   2.955   7.820  0.2289 -1.4039  1.5942
  159SAPE  C21717776   4.083   2.996   8.043 -0.0046 -0.0484  0.6269
  159SAPE  H17R17777   4.191   3.012   8.059  0.0290  0.4404 -0.0550
  159SAPE  H17S17778   4.061   2.894   8.082  0.0898 -0.4615 -0.3650
  159SAPE  C21817779   4.005   3.093   8.136  0.3098  0.6334  0.2731
  159SAPE  H18R17780   3.905   3.048   8.155  0.2816  1.0098  1.0623
  159SAPE  H18S17781   3.998   3.195   8.092  0.3420  0.4034 -0.2714
  159SAPE  C21917782   4.070   3.090   8.274 -0.1121  0.3832  0.2565
  159SAPE  H19R17783   4.097   2.988   8.306 -1.7187 -0.2633 -0.3317
  159SAPE  H19S17784   3.997   3.130   8.347  0.5540  1.2699  0.4619
  159SAPE  C22017785   4.199   3.175   8.283 -0.4280  0.1906 -0.1357
  159SAPE  H20R17786   4.258   3.157   8.375 -0.0775  3.9753  0.5564
  159SAPE  H20S17787   4.161   3.280   8.284 -0.6468  0.1099 -0.0580
  159SAPE  H20T17788   4.271   3.159   8.200  2.3819 -0.4628  2.2694
  159SAPE   C3317789   4.595   2.630   6.842  0.0380 -0.1846 -0.2299
  159SAPE   H3X17790   4.651   2.712   6.792  1.1497  0.2443  1.5830
  159SAPE   H3Y17791   4.620   2.534   6.792 -0.7478  0.5642 -2.1635
  159SAPE   C3417792   4.641   2.614   6.986  0.2100  0.0449  0.0523
  159SAPE   H4X17793   4.587   2.524   7.024 -1.1204 -0.1631 -2.1633
  159SAPE   H4Y17794   4.613   2.706   7.043  0.8095  0.6098 -0.5646
  159SAPE   C3517795   4.796   2.606   6.995  0.3668  0.2279  1.0227
  159SAPE   H5X17796   4.844   2.706   6.991  1.9573 -0.4613  2.0225
  159SAPE   H5Y17797   4.828   2.534   6.917 -0.5901 -1.1682  1.8727
  159SAPE   C3617798   4.825   2.538   7.132 -1.6086 -0.2313 -0.8403
  159SAPE   H6X17799   4.805   2.430   7.115 -2.2477  0.3347 -4.6731
  159SAPE   H6Y17800   4.758   2.577   7.211 -1.5826  0.6793 -1.2637
  159SAPE   C3717801   4.973   2.555   7.171 -0.2697  0.5849  0.1502
  159SAPE   H7X17802   4.978   2.660   7.209 -1.3254  0.9191 -0.6040
  159SAPE   H7Y17803   5.039   2.554   7.082 -2.8738 -2.1282 -1.9175
  159SAPE   C3817804   5.036   2.453   7.266  0.1954  1.0119 -0.0305
  159SAPE   H8X17805   5.143   2.483   7.276  0.5579 -0.4171  0.5780
  159SAPE   H8Y17806   5.023   2.356   7.212  0.0197 -0.5544  2.6580
  159SAPE   C3917807   4.975   2.432   7.403 -0.0493 -0.5028 -0.3915
  159SAPE   H9X17808   5.012   2.347   7.465 -1.2604 -0.6958  0.0957
  159SAPE   H9Y17809   4.866   2.415   7.394 -0.3298  1.0756 -0.3132
  159SAPE  C31017810   5.018   2.558   7.488  0.5808  0.4854  0.6515
  159SAPE  H10X17811   5.017   2.641   7.414 -1.5543 -0.7102 -0.7713
  159SAPE  H10Y17812   5.120   2.557   7.532  0.1669  1.5437  1.6814
  159SAPE  C31117813   4.912   2.578   7.603 -0.6310 -0.1386  0.4644
  159SAPE  H11X17814   4.809   2.579   7.562 -0.5516  0.4187  0.2766
  159SAPE  H11Y17815   4.932   2.676   7.650 -2.5922 -1.0653  3.5439
  159SAPE  C31217816   4.932   2.475   7.725  0.2655 -0.6233  0.0434
  159SAPE  H12X17817   5.024   2.512   7.776 -0.9026 -0.7031  2.3268
  159SAPE  H12Y17818   4.952   2.368   7.700 -0.3491 -0.4604 -1.1655
  159SAPE  C31317819   4.824   2.503   7.834 -0.3925 -0.1979 -0.0143
  159SAPE  H13X17820   4.733   2.451   7.796  0.1798 -0.2121 -1.4413
  159SAPE  H13Y17821   4.800   2.606   7.867  1.3196  0.0348  0.6248
  159SAPE  C31417822   4.852   2.409   7.959 -0.9471 -0.2274  0.0536
  159SAPE  H14X17823   4.958   2.406   7.991 -0.5390  2.5321 -0.6934
  159SAPE  H14Y17824   4.826   2.307   7.925  0.1422 -0.5809  0.2605
  159SAPE  C31517825   4.764   2.453   8.081  0.5488 -0.5279 -0.0215
  159SAPE  H15X17826   4.656   2.437   8.057  0.6386  0.2402 -0.9820
  159SAPE  H15Y17827   4.794   2.557   8.103  0.0574 -0.4155  0.1224
  159SAPE  C31617828   4.814   2.371   8.201  0.2349 -1.1333 -0.0570
  159SAPE  H16X17829   4.919   2.399   8.226 -0.8284  1.2427  2.0898
  159SAPE  H16Y17830   4.811   2.263   8.172 -2.1903 -1.1081 -0.1003
  159SAPE  C31717831   4.744   2.398   8.340 -0.3218  0.0512  0.4482
  159SAPE  H17X17832   4.643   2.352   8.336 -0.0138 -0.6217  0.3156
  159SAPE  H17Y17833   4.741   2.509   8.348  0.8685  0.2875 -1.6701
  159SAPE  C31817834   4.831   2.359   8.464  0.1760 -0.1784  0.0944
  159SAPE  H18X17835   4.775   2.366   8.560 -1.1637 -1.8676 -0.5164
  159SAPE  H18Y17836   4.909   2.438   8.468  0.3411 -0.3169 -0.3033
  159SAPE  H18Z17837   4.873   2.258   8.442 -0.9861 -0.8183  0.7261
  160SAPE     N17838   0.757   3.540   6.691 -0.2508 -0.6573 -1.2861
  160SAPE   HN117839   0.719   3.489   6.773 -1.6220 -1.6834 -2.5163
  160SAPE   HN217840   0.846   3.491   6.666 -2.2182 -4.0164 -2.2476
  160SAPE   HN317841   0.789   3.634   6.723 -3.4176  0.5478 -1.3587
  160SAPE   C1217842   0.649   3.524   6.589  0.6201  0.2943 -0.3259
  160SAPE  H12A17843   0.659   3.604   6.512 -1.5046  1.8041  0.8691
  160SAPE  H12B17844   0.550   3.545   6.635  0.8250  2.1915 -0.6586
  160SAPE   C1117845   0.641   3.379   6.533 -0.1400 -0.4894 -0.0508
  160SAPE  H11A17846   0.542   3.352   6.489 -1.0603 -0.4378  1.8937
  160SAPE  H11B17847   0.648   3.315   6.623 -0.7109 -1.9257 -0.9935
  160SAPE     P17848   0.877   3.271   6.491  0.4654 -0.3911  0.4843
  160SAPE   O1317849   0.982   3.305   6.394  0.0067 -0.5092 -0.1375
  160SAPE   O1417850   0.906   3.305   6.632 -0.1333  0.1839 -0.4627
  160SAPE   O1217851   0.748   3.351   6.443 -0.0899 -0.2533 -0.0399
  160SAPE   O1117852   0.844   3.119   6.472 -0.6701 -0.0412 -0.9615
  160SAPE    C117853   0.731   3.040   6.513  0.0602  0.7420  0.3415
  160SAPE    HA17854   0.637   3.072   6.463  0.2852 -1.3243 -1.6114
  160SAPE    HB17855   0.744   2.937   6.474 -0.0443  1.1722 -0.8524
  160SAPE    C217856   0.696   3.024   6.668 -0.0766 -0.8373 -0.1068
  160SAPE    HS17857   0.629   3.109   6.693 -0.0138 -0.9459  0.4421
  160SAPE   O2117858   0.815   3.002   6.746 -0.0967  0.1401 -0.0860
  160SAPE   C2117859   0.811   3.054   6.868  0.1447 -0.0016  0.3853
  160SAPE   O2217860   0.724   3.135   6.905  0.3098  1.1649 -0.0497
  160SAPE   C2217861   0.932   3.023   6.958  0.1872 -0.1256  0.9997
  160SAPE   H2R17862   1.007   2.968   6.897 -1.2704  1.5709 -2.6200
  160SAPE   H2S17863   0.975   3.125   6.969 -0.2712  0.2700 -0.5888
  160SAPE    C317864   0.597   2.908   6.686  0.4755  0.2485  0.1939
  160SAPE    HX17865   0.649   2.818   6.648 -2.5224 -1.7908  0.5426
  160SAPE    HY17866   0.507   2.924   6.623  0.7321  2.2291  0.2898
  160SAPE   O3117867   0.574   2.884   6.822 -0.2835  0.2435  0.5180
  160SAPE   C3117868   0.476   2.950   6.883  0.2080  0.0718 -0.5237
  160SAPE   O3217869   0.399   3.032   6.831  0.1431  0.2201  0.9817
  160SAPE   C3217870   0.492   2.915   7.030 -0.0998 -0.2922  0.4460
  160SAPE   H2X17871   0.599   2.939   7.048  0.1856 -0.6551 -0.6670
  160SAPE   H2Y17872   0.462   2.811   7.056 -1.9426  0.2513  0.6729
  160SAPE   C2317873   0.896   2.974   7.097 -1.1178  0.2319  0.1322
  160SAPE   H3R17874   0.810   3.033   7.135 -1.6471 -1.0233  0.9594
  160SAPE   H3S17875   0.985   2.989   7.163  0.1400 -0.7693 -1.2581
  160SAPE   C2417876   0.868   2.822   7.097 -0.5567  0.8908 -0.4012
  160SAPE   H4R17877   0.791   2.796   7.021  1.2774 -0.3097 -1.9484
  160SAPE   H4S17878   0.828   2.797   7.198 -0.9521  2.4788 -0.1496
  160SAPE   C2517879   0.998   2.758   7.056  1.4604 -0.5341 -0.0803
  160SAPE   H5R17880   1.012   2.730   6.950  2.7568  0.6932 -0.2556
  160SAPE   C2617881   1.097   2.727   7.134  0.2728 -0.2199  0.5576
  160SAPE   H6R17882   1.186   2.681   7.088  0.5612  1.4537 -0.6684
  160SAPE   C2717883   1.105   2.750   7.286 -0.5296 -0.2791  0.1011
  160SAPE   H7R17884   1.124   2.652   7.335 -0.0490 -1.9758 -3.2326
  160SAPE   H7S17885   1.007   2.788   7.324 -0.8037 -0.5175 -0.3635
  160SAPE   C2817886   1.200   2.861   7.318 -0.3852  0.0638  0.4695
  160SAPE   H8R17887   1.280   2.871   7.243 -1.0145  0.6329 -0.1340
  160SAPE   C2917888   1.191   2.953   7.416  0.0612  0.1217 -0.5367
  160SAPE   H9R17889   1.275   3.023   7.425 -0.3464  0.8588 -2.1207
  160SAPE  C21017890   1.082   2.981   7.512 -0.4819  0.5348  0.6252
  160SAPE  H10R17891   1.032   2.887   7.544 -0.4157 -0.0986 -1.0276
  160SAPE  H10S17892   1.010   3.024   7.439 -2.4924 -2.0492  0.8958
  160SAPE  C21117893   1.106   3.066   7.632 -0.0404 -0.2470 -0.7888
  160SAPE  H11R17894   1.109   3.173   7.607 -2.3248  0.3091  0.9907
  160SAPE  C21217895   1.134   3.040   7.762  0.8459  0.3882 -0.2333
  160SAPE  H12R17896   1.135   3.131   7.824 -2.6370  0.9917 -0.8607
  160SAPE  C21317897   1.154   2.903   7.823 -0.0882 -0.5636  0.0207
  160SAPE  H13R17898   1.062   2.846   7.797  1.7500 -2.3114 -3.3820
  160SAPE  H13S17899   1.164   2.901   7.934  0.6021  0.5725 -0.0122
  160SAPE  C21417900   1.273   2.823   7.771 -0.1397  0.6584  0.6884
  160SAPE  H14R17901   1.290   2.826   7.662 -0.2902  0.8707  0.6688
  160SAPE  C21517902   1.339   2.733   7.845 -0.2696 -0.2488  0.8991
  160SAPE  H15R17903   1.422   2.680   7.797 -1.5259 -1.2869 -0.2074
  160SAPE  C21617904   1.338   2.699   7.993 -0.0171  0.1422 -0.8397
  160SAPE  H16R17905   1.256   2.628   8.013  1.0128 -1.6493 -2.5779
  160SAPE  H16S17906   1.311   2.787   8.055 -4.5776 -0.4724 -1.6120
  160SAPE  C21717907   1.472   2.643   8.049  0.3304 -0.0757 -0.1933
  160SAPE  H17R17908   1.554   2.711   8.017  2.0603 -0.6125  2.7672
  160SAPE  H17S17909   1.476   2.546   7.996  0.6539  0.1001 -0.4998
  160SAPE  C21817910   1.480   2.640   8.201  0.3678  0.4397  0.0822
  160SAPE  H18R17911   1.554   2.569   8.244 -0.3167 -0.7204 -0.6053
  160SAPE  H18S17912   1.380   2.630   8.247  0.0668  0.8076 -0.4755
  160SAPE  C21917913   1.526   2.774   8.268  0.1696 -0.3659  0.4377
  160SAPE  H19R17914   1.473   2.858   8.219  1.4056  0.9899  1.3180
  160SAPE  H19S17915   1.635   2.797   8.264 -0.1763  1.3066 -1.6988
  160SAPE  C22017916   1.477   2.783   8.414 -0.3225 -0.0061  0.4347
  160SAPE  H20R17917   1.540   2.712   8.472  0.2942 -0.9498 -1.2887
  160SAPE  H20S17918   1.374   2.743   8.424 -0.0319 -0.9141 -0.0260
  160SAPE  H20T17919   1.475   2.887   8.453  1.8139  0.6705 -1.0876
  160SAPE   C3317920   0.413   3.005   7.121 -0.0666  0.0069 -0.0847
  160SAPE   H3X17921   0.305   3.002   7.097  0.0332 -0.6401 -0.4899
  160SAPE   H3Y17922   0.450   3.109   7.115 -0.1255  0.0889  0.8870
  160SAPE   C3417923   0.429   2.970   7.270  0.7375 -0.0451 -0.2565
  160SAPE   H4X17924   0.374   2.875   7.290  1.2883 -0.2682  0.2165
  160SAPE   H4Y17925   0.377   3.057   7.317  0.9117  0.1048 -0.3450
  160SAPE   C3517926   0.566   2.942   7.315  0.0251  0.2939  0.7609
  160SAPE   H5X17927   0.644   3.002   7.264 -0.2432 -0.2431 -0.3121
  160SAPE   H5Y17928   0.584   2.834   7.295 -0.6194  0.2919  0.1826
  160SAPE   C3617929   0.578   2.948   7.471 -0.1520  0.3820  0.1829
  160SAPE   H6X17930   0.485   2.906   7.514  1.3270 -1.3090  1.9013
  160SAPE   H6Y17931   0.590   3.055   7.499  1.3725  0.1043  0.6762
  160SAPE   C3717932   0.706   2.874   7.514  0.2513 -0.1535 -0.0698
  160SAPE   H7X17933   0.786   2.888   7.438 -1.9466 -0.9141 -2.7226
  160SAPE   H7Y17934   0.684   2.765   7.507  3.0924 -0.7347 -1.9058
  160SAPE   C3817935   0.765   2.921   7.648 -0.1682 -0.2592  0.4687
  160SAPE   H8X17936   0.827   3.012   7.630 -0.0615 -0.3458  0.3918
  160SAPE   H8Y17937   0.838   2.850   7.693  0.8630  1.0612  0.9520
  160SAPE   C3917938   0.670   2.960   7.762 -0.2614 -0.4448 -0.0231
  160SAPE   H9X17939   0.601   2.873   7.774 -0.0688 -0.5245  0.5519
  160SAPE   H9Y17940   0.604   3.047   7.743  1.2385  0.6186 -0.4982
  160SAPE  C31017941   0.734   2.996   7.896  0.5379 -0.6209 -0.2825
  160SAPE  H10X17942   0.773   3.100   7.886 -2.5612  0.5024 -2.1494
  160SAPE  H10Y17943   0.826   2.936   7.908  0.6309 -0.4979 -0.3785
  160SAPE  C31117944   0.634   2.984   8.011  0.1153  0.5211 -0.6872
  160SAPE  H11X17945   0.694   2.982   8.105 -0.9440  0.8381  0.0122
  160SAPE  H11Y17946   0.564   2.899   8.003 -1.0896  1.5218 -1.0690
  160SAPE  C31217947   0.551   3.115   8.021  0.1388 -0.0536  0.4172
  160SAPE  H12X17948   0.509   3.140   7.921  0.5798  0.0473  0.2523
  160SAPE  H12Y17949   0.622   3.199   8.034  2.1668 -1.3879 -1.3237
  160SAPE  C31317950   0.447   3.108   8.131 -0.2264  0.0870  0.0300
  160SAPE  H13X17951   0.369   3.031   8.114  0.1821 -0.3329  0.0301
  160SAPE  H13Y17952   0.390   3.203   8.132 -0.8617 -0.2790 -0.7095
  160SAPE  C31417953   0.507   3.089   8.275 -0.1036  0.0451 -0.0824
  160SAPE  H14X17954   0.578   3.172   8.296 -3.1579  2.3617  2.0338
  160SAPE  H14Y17955   0.566   2.996   8.279  0.7447  0.6078  0.7620
  160SAPE  C31517956   0.396   3.070   8.371  0.6047 -0.1116 -0.0883
  160SAPE  H15X17957   0.314   3.006   8.332 -0.9453  1.4989  0.3461
  160SAPE  H15Y17958   0.353   3.162   8.416  0.5021  0.0764 -0.5589
  160SAPE  C31617959   0.448   2.990   8.492  0.2512 -0.0701 -0.2648
  160SAPE  H16X17960   0.535   3.041   8.540  2.1594 -2.3431 -1.1037
  160SAPE  H16Y17961   0.491   2.891   8.467 -1.9781 -1.1614  0.0103
  160SAPE  C31717962   0.341   2.971   8.604 -0.9390  0.0870 -0.2046
  160SAPE  H17X17963   0.380   2.911   8.688 -0.8603  1.0083  0.4256
  160SAPE  H17Y17964   0.264   2.896   8.573  1.1145 -2.4455  0.5103
  160SAPE  C31817965   0.272   3.098   8.670  0.2422  0.5558  0.0611
  160SAPE  H18X17966   0.207   3.145   8.593  2.8447  0.2305 -2.5074
  160SAPE  H18Y17967   0.351   3.173   8.694  1.4153  0.0033 -1.8389
  160SAPE  H18Z17968   0.227   3.057   8.762  0.5166  1.6130  0.6859
  161SOPE     N17969   2.428   0.578  10.930  0.0203 -0.1497  0.5290
  161SOPE   HN117970   2.369   0.554  11.013  0.6958 -3.3579  0.2275
  161SOPE   HN217971   2.510   0.641  10.947  0.7974 -0.1681 -2.6489
  161SOPE   HN317972   2.374   0.617  10.851 -0.4607 -0.0780  0.8865
  161SOPE   C1217973   2.488   0.448  10.883  0.5283 -0.0317  0.0088
  161SOPE  H12A17974   2.406   0.374  10.894 -1.2226  1.9380  0.9498
  161SOPE  H12B17975   2.573   0.420  10.949 -1.0993 -0.0628  2.1776
  161SOPE   C1117976   2.534   0.452  10.738  0.1021 -0.1493  0.6712
  161SOPE  H11A17977   2.582   0.354  10.719  2.7490  0.5812  2.8304
  161SOPE  H11B17978   2.628   0.512  10.733 -0.6121  0.9943  0.4095
  161SOPE     P17979   2.338   0.393  10.582 -0.5319 -0.0856  0.0437
  161SOPE   O1317980   2.260   0.477  10.485  0.1721  0.5569  0.1643
  161SOPE   O1417981   2.271   0.314  10.686  0.2333 -1.1680 -0.4768
  161SOPE   O1217982   2.437   0.502  10.647  0.2399  0.3639  0.2955
  161SOPE   O1117983   2.442   0.293  10.512  0.0843 -0.0053 -0.5286
  161SOPE    C117984   2.542   0.332  10.416  0.4826  0.5269  0.5039
  161SOPE    HA17985   2.627   0.260  10.424  0.0401 -0.1695 -0.7913
  161SOPE    HB17986   2.575   0.436  10.438 -0.0970  0.8783 -0.2592
  161SOPE    C217987   2.488   0.336  10.272  0.3175 -0.9046  0.2079
  161SOPE    HS17988   2.400   0.403  10.275 -0.4083 -1.7024 -1.5791
  161SOPE   O2117989   2.446   0.205  10.232  0.4591 -0.9226  0.1551
  161SOPE   C2117990   2.319   0.191  10.192 -0.9310 -1.1163 -0.2214
  161SOPE   O2217991   2.244   0.285  10.155 -0.2480 -0.3174  0.1066
  161SOPE   C2217992   2.275   0.052  10.192 -0.4105  0.8123 -0.0074
  161SOPE   H2R17993   2.163   0.055  10.191 -0.5259 -1.3082  0.9673
  161SOPE   H2S17994   2.301  -0.001  10.286 -1.7779  0.7416  0.3622
  161SOPE    C317995   2.600   0.383  10.176  0.0877 -0.6881  0.3751
  161SOPE    HX17996   2.666   0.295  10.161  3.0984  1.6417 -1.0869
  161SOPE    HY17997   2.666   0.461  10.220  0.9569 -1.4877  0.5356
  161SOPE   O3117998   2.553   0.411  10.047  0.0398 -0.3934  0.3761
  161SOPE   C3117999   2.506   0.541  10.036 -0.2508  0.7256 -0.1955
  161SOPE   O3218000   2.516   0.626  10.115 -0.3369  0.3527 -0.4517
  161SOPE   C3218001   2.437   0.549   9.899 -0.7252 -0.8551 -0.2663
  161SOPE   H2X18002   2.363   0.466   9.895  1.0297 -2.7258  2.2324
  161SOPE   H2Y18003   2.521   0.542   9.826 -0.1304  2.1752 -0.0078
  161SOPE   C2318004   2.326  -0.037  10.079  0.6736 -0.3844  0.1107
  161SOPE   H3R18005   2.256  -0.123  10.088 -0.6722  0.7716  1.1747
  161SOPE   H3S18006   2.432  -0.067  10.097  0.9115 -0.4202 -1.2437
  161SOPE   C2418007   2.307   0.029   9.944 -0.7614 -0.5851  0.5282
  161SOPE   H4R18008   2.207   0.074   9.927 -0.0842  0.6451 -0.3666
  161SOPE   H4S18009   2.371   0.120   9.938 -3.2244  1.2305  0.3537
  161SOPE   C2518010   2.342  -0.075   9.834  0.9515 -1.0811  0.6209
  161SOPE   H5R18011   2.448  -0.106   9.848  0.9814 -1.0465  0.4735
  161SOPE   H5S18012   2.285  -0.169   9.849  1.3637 -1.2528  1.1624
  161SOPE   C2618013   2.296  -0.027   9.696  0.6463 -0.0046  0.2194
  161SOPE   H6R18014   2.191   0.007   9.698  0.0896 -1.3279 -2.2818
  161SOPE   H6S18015   2.356   0.060   9.660  1.6238 -0.8302 -0.2054
  161SOPE   C2718016   2.312  -0.137   9.585 -0.1477  0.3673 -0.5749
  161SOPE   H7R18017   2.411  -0.188   9.583  0.0207  0.6462  0.4093
  161SOPE   H7S18018   2.242  -0.220   9.609  1.5198 -0.8643  0.2940
  161SOPE   C2818019   2.258  -0.085   9.451  0.0545  0.3847 -0.3549
  161SOPE   H8R18020   2.253  -0.167   9.376  0.2018  1.0471 -1.1004
  161SOPE   H8S18021   2.155  -0.046   9.464  0.3942  0.9588  0.7203
  161SOPE   C2918022   2.354   0.024   9.396  0.2373 -0.0946  0.6633
  161SOPE   H9118023   2.460  -0.005   9.392  0.1918 -0.1096 -1.6102
  161SOPE  C21018024   2.318   0.147   9.350  0.3718  0.6619 -0.2201
  161SOPE  H10118025   2.398   0.217   9.324  0.9776 -0.0066 -0.2022
  161SOPE  C21118026   2.177   0.201   9.343 -0.1979 -0.1527 -1.0574
  161SOPE  H11R18027   2.182   0.312   9.348  2.5578 -0.2522 -0.4165
  161SOPE  H11S18028   2.100   0.182   9.421  1.7961  0.8287  1.2850
  161SOPE  C21218029   2.108   0.162   9.212  0.2237  0.2377 -0.1040
  161SOPE  H12R18030   2.172   0.177   9.122 -0.5465  1.3720 -0.4967
  161SOPE  H12S18031   2.014   0.220   9.198  0.5215  1.4870  2.5324
  161SOPE  C21318032   2.079   0.005   9.195 -0.3838  0.0396 -0.2996
  161SOPE  H13R18033   2.010  -0.030   9.274 -0.3909  1.5493  0.3969
  161SOPE  H13S18034   2.175  -0.048   9.213 -0.5100  0.1535  0.7490
  161SOPE  C21418035   2.021  -0.034   9.061  0.7383 -0.5849 -0.4080
  161SOPE  H14R18036   1.915  -0.001   9.058  0.4182 -0.7599  3.4280
  161SOPE  H14S18037   2.020  -0.145   9.064 -0.9662 -0.5828  0.1929
  161SOPE  C21518038   2.104   0.003   8.939  0.1627  0.0644 -0.0713
  161SOPE  H15R18039   2.212  -0.019   8.950  0.0641 -0.0167  0.8048
  161SOPE  H15S18040   2.098   0.113   8.950  1.8716  0.1152  0.5658
  161SOPE  C21618041   2.060  -0.042   8.801 -0.1694 -0.4953 -0.6204
  161SOPE  H16R18042   1.956  -0.013   8.774 -0.2910 -1.3529 -1.0688
  161SOPE  H16S18043   2.064  -0.152   8.814 -0.6589 -0.6693 -1.8121
  161SOPE  C21718044   2.150   0.000   8.685 -0.1416  0.3988  0.3613
  161SOPE  H17R18045   2.104  -0.028   8.588  0.6480  1.4983 -0.3455
  161SOPE  H17S18046   2.244  -0.058   8.691  0.1605  0.8580  0.1609
  161SOPE  C21818047   2.183   0.155   8.671 -0.5121 -0.2025 -0.3421
  161SOPE  H18R18048   2.103   0.224   8.704 -1.6259 -1.1769 -0.9525
  161SOPE  H18S18049   2.206   0.177   8.565 -0.8987  0.7460 -0.2404
  161SOPE  H18T18050   2.265   0.175   8.744 -0.5123  0.4344 -0.5057
  161SOPE   C3318051   2.361   0.681   9.883  0.1006 -0.4045  0.4953
  161SOPE   H3X18052   2.426   0.761   9.923  1.0528 -1.4170  1.0256
  161SOPE   H3Y18053   2.273   0.700   9.947 -0.2239  0.6698 -0.2423
  161SOPE   C3418054   2.323   0.711   9.741  0.2195  0.7356 -0.3708
  161SOPE   H4X18055   2.407   0.686   9.674 -0.1486 -0.6360 -0.3448
  161SOPE   H4Y18056   2.308   0.821   9.739 -0.3794  0.6454 -1.2378
  161SOPE   C3518057   2.190   0.647   9.707  0.1259 -0.8631  0.3879
  161SOPE   H5X18058   2.123   0.687   9.786  0.2770  0.4972 -0.1609
  161SOPE   H5Y18059   2.197   0.536   9.716  1.1396 -1.0662 -2.1013
  161SOPE   C3618060   2.139   0.687   9.573 -0.0450 -0.3600 -0.1892
  161SOPE   H6X18061   2.137   0.797   9.557  1.8918 -0.3702 -0.7885
  161SOPE   H6Y18062   2.033   0.655   9.572 -0.5295  1.1418 -1.4467
  161SOPE   C3718063   2.192   0.608   9.454  0.0214 -0.0528  0.3819
  161SOPE   H7X18064   2.192   0.498   9.470  1.1062 -0.0467  0.4719
  161SOPE   H7Y18065   2.295   0.641   9.431  0.4164 -0.1242  1.9369
  161SOPE   C3818066   2.109   0.637   9.329  0.0562 -0.0493 -0.0083
  161SOPE   H8X18067   2.084   0.743   9.348 -2.9151 -1.0136  2.2828
  161SOPE   H8Y18068   2.015   0.578   9.322  0.8973 -1.3523 -0.7222
  161SOPE   C3918069   2.173   0.625   9.188 -0.2810 -0.3184 -0.1852
  161SOPE   H9X18070   2.259   0.695   9.191 -0.8823  0.4159 -0.0009
  161SOPE   H9Y18071   2.110   0.659   9.103  1.3363  0.9621 -0.9226
  161SOPE  C31018072   2.230   0.484   9.150 -0.5368  0.1241 -0.1372
  161SOPE  H10X18073   2.135   0.426   9.151  0.3949 -1.4256  0.9390
  161SOPE  H10Y18074   2.298   0.446   9.229  0.2108 -0.3994 -1.0142
  161SOPE  C31118075   2.291   0.470   9.011  0.1406 -0.4888 -0.0891
  161SOPE  H11X18076   2.334   0.371   8.985 -2.2202 -1.7986  0.7047
  161SOPE  H11Y18077   2.381   0.534   9.005  1.2002 -1.9312 -0.0475
  161SOPE  C31218078   2.189   0.491   8.897  0.0746  0.1837  0.1937
  161SOPE  H12X18079   2.238   0.456   8.804 -1.1945  1.4807 -1.0162
  161SOPE  H12Y18080   2.180   0.602   8.898  0.7970  0.2769  2.3459
  161SOPE  C31318081   2.054   0.430   8.913  0.6732 -0.4699 -0.1738
  161SOPE  H13X18082   2.004   0.493   8.990 -0.0058 -0.2881 -0.7599
  161SOPE  H13Y18083   2.053   0.327   8.956  0.0447  0.1415  1.3491
  161SOPE  C31418084   1.970   0.452   8.793 -0.1682 -0.2497 -0.0877
  161SOPE  H14X18085   2.004   0.392   8.707  1.7232  0.7524 -0.0810
  161SOPE  H14Y18086   1.972   0.559   8.766 -0.2701 -0.6565 -1.7670
  161SOPE  C31518087   1.825   0.404   8.814 -0.0234  0.6094 -0.0503
  161SOPE  H15X18088   1.765   0.479   8.870 -0.7837  0.6701 -0.9291
  161SOPE  H15Y18089   1.830   0.317   8.884 -2.6413  0.6868  0.3255
  161SOPE  C31618090   1.748   0.353   8.685 -0.3571 -0.2966 -0.1673
  161SOPE  H16X18091   1.791   0.256   8.653 -0.6673 -0.2221 -0.8125
  161SOPE  H16Y18092   1.742   0.419   8.596  0.2224 -3.8548 -3.0816
  161SOPE  C31718093   1.602   0.341   8.714  0.2021  0.5801  0.0447
  161SOPE  H17X18094   1.557   0.442   8.718  0.5048  0.7321 -0.3590
  161SOPE  H17Y18095   1.590   0.314   8.822  0.5991  0.5628  0.0855
  161SOPE  C31818096   1.532   0.245   8.620  0.4423  1.3280  0.0215
  161SOPE  H18X18097   1.561   0.141   8.644 -3.0474 -0.3028 -1.9369
  161SOPE  H18Y18098   1.561   0.266   8.515 -0.0928  0.0006 -0.4149
  161SOPE  H18Z18099   1.422   0.263   8.629  0.3452  0.3746  0.8155
  162SOPE     N18100   0.006   6.088  10.776  0.2345 -0.5667 -0.3593
  162SOPE   HN118101  -0.088   6.090  10.732 -0.2077 -0.1041  0.5659
  162SOPE   HN218102   0.003   6.170  10.841 -0.2698 -1.6753  1.0483
  162SOPE   HN318103   0.086   6.111  10.714  1.4061 -0.8769  0.9960
  162SOPE   C1218104   0.043   5.982  10.875 -0.1284 -0.5557  0.5702
  162SOPE  H12A18105   0.125   6.019  10.940 -2.2862  0.4201  2.8790
  162SOPE  H12B18106   0.081   5.900  10.809 -2.6984 -0.3254 -1.3430
  162SOPE   C1118107  -0.075   5.957  10.969  0.3600  0.3595 -0.4440
  162SOPE  H11A18108  -0.100   6.046  11.030 -1.5086  0.9118 -1.9329
  162SOPE  H11B18109  -0.043   5.875  11.037 -1.4789  0.3797  0.4953
  162SOPE     P18110  -0.339   5.920  10.942  0.0138  0.3446 -0.1336
  162SOPE   O1318111  -0.419   6.037  10.889  0.0779 -0.2485 -0.0007
  162SOPE   O1418112  -0.341   5.917  11.087  0.8546 -0.3015 -0.2775
  162SOPE   O1218113  -0.189   5.926  10.890 -0.2858  0.6161 -0.2111
  162SOPE   O1118114  -0.395   5.790  10.870 -0.3528  0.4989  0.1432
  162SOPE    C118115  -0.304   5.701  10.810  0.0552 -0.5371 -0.0467
  162SOPE    HA18116  -0.354   5.601  10.817 -0.2404 -0.3168  1.4614
  162SOPE    HB18117  -0.211   5.683  10.868  0.5782  0.0593 -0.6874
  162SOPE    C218118  -0.281   5.733  10.663 -0.4134 -0.2865 -0.3803
  162SOPE    HS18119  -0.231   5.831  10.650 -0.7722 -0.1699 -0.9103
  162SOPE   O2118120  -0.408   5.731  10.597 -0.4815 -0.0728  0.0292
  162SOPE   C2118121  -0.409   5.803  10.481 -0.3052  0.6227  0.0128
  162SOPE   O2218122  -0.329   5.892  10.454  0.2870  0.0938 -0.2786
  162SOPE   C2218123  -0.524   5.748  10.401 -0.4621  0.2014 -0.7971
  162SOPE   H2R18124  -0.600   5.828  10.406 -0.1369  0.5006 -0.6011
  162SOPE   H2S18125  -0.564   5.655  10.447  1.2245  0.5021  1.4603
  162SOPE    C318126  -0.187   5.633  10.606 -0.3218 -0.3089  0.7755
  162SOPE    HX18127  -0.240   5.536  10.616  1.4381 -1.2676  1.2017
  162SOPE    HY18128  -0.094   5.618  10.665 -0.8792  1.4431  2.1670
  162SOPE   O3118129  -0.170   5.657  10.466  0.2883 -0.3065 -0.0217
  162SOPE   C3118130  -0.062   5.723  10.429  0.6493  0.1077 -0.6973
  162SOPE   O3218131   0.020   5.763  10.508  0.2654 -0.4963 -0.3548
  162SOPE   C3218132  -0.067   5.749  10.284 -0.0850  0.1929 -0.0695
  162SOPE   H2X18133  -0.164   5.799  10.263  0.1176  1.0661  0.9769
  162SOPE   H2Y18134  -0.049   5.653  10.232 -1.6600  0.4738 -1.2240
  162SOPE   C2318135  -0.481   5.710  10.260  0.3490  0.4312 -0.1017
  162SOPE   H3R18136  -0.436   5.609  10.269 -0.2381  0.3296  2.1926
  162SOPE   H3S18137  -0.416   5.789  10.216 -1.0512  0.3479 -2.5055
  162SOPE   C2418138  -0.605   5.684  10.172 -0.2315  0.1447 -0.5998
  162SOPE   H4R18139  -0.573   5.627  10.082  0.2780 -0.0015 -0.3279
  162SOPE   H4S18140  -0.668   5.609  10.223  1.8687 -1.6809 -0.5625
  162SOPE   C2518141  -0.692   5.802  10.135 -0.2869  0.1571  0.5410
  162SOPE   H5R18142  -0.785   5.793  10.194 -0.2129 -0.5426  0.5575
  162SOPE   H5S18143  -0.654   5.900  10.171 -2.3867  0.9061  0.8213
  162SOPE   C2618144  -0.737   5.815   9.987  0.4885  0.0358 -0.6952
  162SOPE   H6R18145  -0.778   5.917   9.973  1.8843  0.6761 -0.3208
  162SOPE   H6S18146  -0.643   5.802   9.929  1.0721 -1.4549  0.5064
  162SOPE   C2718147  -0.821   5.693   9.943 -0.6862 -0.0864  0.0195
  162SOPE   H7R18148  -0.770   5.600   9.976  2.1951  1.0097 -1.0291
  162SOPE   H7S18149  -0.926   5.696   9.978 -1.5948 -1.5071 -2.3330
  162SOPE   C2818150  -0.826   5.686   9.783  0.3329 -0.4017 -0.0438
  162SOPE   H8R18151  -0.830   5.786   9.736  1.7210 -1.1916 -2.0155
  162SOPE   H8S18152  -0.727   5.640   9.759  0.8720  0.1809  0.9781
  162SOPE   C2918153  -0.948   5.603   9.750 -0.4508 -0.8906 -0.8389
  162SOPE   H9118154  -1.001   5.560   9.836  0.7450 -0.1396  0.3108
  162SOPE  C21018155  -0.998   5.600   9.625  0.5023  0.4691 -0.0538
  162SOPE  H10118156  -1.081   5.530   9.605  1.2245 -0.0301 -1.4074
  162SOPE  C21118157  -0.937   5.676   9.510  0.4734 -0.1182 -0.2524
  162SOPE  H11R18158  -0.873   5.603   9.456 -1.1704 -1.4305 -0.5351
  162SOPE  H11S18159  -0.873   5.762   9.537 -1.1837  0.8896  0.6683
  162SOPE  C21218160  -1.041   5.720   9.411  0.5976  0.1316 -0.1020
  162SOPE  H12R18161  -1.120   5.772   9.469 -0.1656 -0.4723 -0.5856
  162SOPE  H12S18162  -1.096   5.636   9.364  0.0029 -0.4162  1.5165
  162SOPE  C21318163  -0.985   5.804   9.304 -0.4957 -0.4157  0.1088
  162SOPE  H13R18164  -0.903   5.751   9.251  0.6402  1.2597  0.1298
  162SOPE  H13S18165  -0.944   5.900   9.342  0.8948 -0.7253 -0.5639
  162SOPE  C21418166  -1.086   5.848   9.192  0.1462  0.1695 -0.0530
  162SOPE  H14R18167  -1.162   5.908   9.247  0.9034  2.6400 -1.5545
  162SOPE  H14S18168  -1.136   5.756   9.155  0.7598 -1.3431  2.6165
  162SOPE  C21518169  -1.027   5.927   9.079 -0.2494  0.4789 -0.0841
  162SOPE  H15R18170  -0.937   5.874   9.039 -0.6190 -0.0574 -0.2193
  162SOPE  H15S18171  -0.995   6.024   9.122  2.5227 -0.8713  1.1869
  162SOPE  C21618172  -1.122   5.958   8.958 -0.4410  0.2536 -0.6161
  162SOPE  H16R18173  -1.185   5.866   8.959  2.0915 -1.5863 -0.0898
  162SOPE  H16S18174  -1.066   5.967   8.862 -0.2741  2.2668 -0.3659
  162SOPE  C21718175  -1.203   6.081   8.966  1.1560  0.5617  0.0294
  162SOPE  H17R18176  -1.145   6.175   8.964 -1.0755  2.0582 -2.6504
  162SOPE  H17S18177  -1.258   6.071   9.062  0.9700 -1.3117 -0.2238
  162SOPE  C21818178  -1.305   6.090   8.855 -0.1835 -0.0146 -0.5174
  162SOPE  H18R18179  -1.367   6.182   8.864 -2.0079 -1.1564 -0.9605
  162SOPE  H18S18180  -1.366   5.999   8.842 -1.7739  1.1883 -1.9882
  162SOPE  H18T18181  -1.251   6.098   8.758  2.1030  1.1381  0.7447
  162SOPE   C3318182   0.048   5.841  10.235 -0.3351  0.9671 -0.0783
  162SOPE   H3X18183   0.148   5.816  10.277 -1.2221 -1.6322  0.6957
  162SOPE   H3Y18184   0.021   5.946  10.261 -2.7174  0.1239  1.1295
  162SOPE   C3418185   0.044   5.849  10.084 -0.1529 -0.0231  0.3556
  162SOPE   H4X18186  -0.061   5.874  10.057  0.0825 -0.1367 -0.6947
  162SOPE   H4Y18187   0.067   5.748  10.042 -1.4865 -0.2666  0.1743
  162SOPE   C3518188   0.147   5.947  10.022 -0.1651  0.9911 -0.2285
  162SOPE   H5X18189   0.242   5.936  10.079  0.5050  0.8583 -1.3540
  162SOPE   H5Y18190   0.118   6.053  10.040  0.8683  0.6895  4.9240
  162SOPE   C3618191   0.169   5.919   9.871 -0.0322 -0.3091 -0.3362
  162SOPE   H6X18192   0.213   5.817   9.858 -1.4018 -1.1859  1.4938
  162SOPE   H6Y18193   0.244   5.996   9.842 -1.1107  0.9900  0.2681
  162SOPE   C3718194   0.057   5.943   9.780 -0.7464  0.1322  0.0417
  162SOPE   H7X18195   0.019   6.047   9.781 -0.9941  0.0393  0.5334
  162SOPE   H7Y18196  -0.031   5.880   9.806 -0.5683  0.4420  1.4361
  162SOPE   C3818197   0.104   5.903   9.640  0.0977  0.6597 -0.6277
  162SOPE   H8X18198   0.176   5.819   9.643 -0.5676 -0.0468 -2.7029
  162SOPE   H8Y18199   0.159   5.987   9.591 -1.9024  0.9856 -2.4627
  162SOPE   C3918200  -0.011   5.877   9.543 -0.7230  0.0977 -0.0341
  162SOPE   H9X18201  -0.069   5.972   9.543 -0.5117  0.2272 -0.1746
  162SOPE   H9Y18202  -0.080   5.791   9.560 -0.3515 -0.0807  0.5765
  162SOPE  C31018203   0.046   5.842   9.405 -0.0531 -0.5977 -0.2038
  162SOPE  H10X18204   0.131   5.771   9.419  1.2728  0.8903 -0.4923
  162SOPE  H10Y18205   0.101   5.932   9.371  0.5321 -1.3192 -1.2273
  162SOPE  C31118206  -0.053   5.789   9.297 -0.0805 -0.0039  0.0901
  162SOPE  H11X18207  -0.018   5.792   9.191  2.6245  2.0628  0.9076
  162SOPE  H11Y18208  -0.142   5.854   9.309  0.5796  0.5450  2.7066
  162SOPE  C31218209  -0.102   5.645   9.317 -0.7901 -0.6979 -0.1654
  162SOPE  H12X18210  -0.137   5.633   9.422 -0.6040  1.0903  0.1429
  162SOPE  H12Y18211  -0.016   5.580   9.292  0.2933  1.1847 -1.6486
  162SOPE  C31318212  -0.217   5.617   9.216 -0.4482 -0.2462  0.5001
  162SOPE  H13X18213  -0.159   5.620   9.122  0.0310 -1.6950  0.7167
  162SOPE  H13Y18214  -0.289   5.701   9.222 -0.1411 -0.0681  2.3612
  162SOPE  C31418215  -0.281   5.482   9.252  0.3525  0.8116 -0.3327
  162SOPE  H14X18216  -0.297   5.475   9.362  0.7519 -1.0886 -0.3576
  162SOPE  H14Y18217  -0.192   5.418   9.235  1.4988  2.8495 -2.5431
  162SOPE  C31518218  -0.401   5.444   9.170 -0.3319 -0.1326 -0.0615
  162SOPE  H15X18219  -0.486   5.514   9.185 -0.1919 -0.5648  3.6607
  162SOPE  H15Y18220  -0.458   5.354   9.201  0.0832 -0.8050 -1.2113
  162SOPE  C31618221  -0.379   5.438   9.020 -0.0702  0.9284  0.2446
  162SOPE  H16X18222  -0.288   5.377   9.003 -1.5524 -1.7707  1.4218
  162SOPE  H16Y18223  -0.362   5.543   8.985  1.1102  1.1012  1.2454
  162SOPE  C31718224  -0.492   5.373   8.948  0.1099  0.9478  0.3362
  162SOPE  H17X18225  -0.508   5.271   8.988  0.9951  1.1815  1.3450
  162SOPE  H17Y18226  -0.459   5.362   8.842 -1.4846  0.0912 -0.1023
  162SOPE  C31818227  -0.624   5.441   8.964 -0.4498  0.2643 -0.0652
  162SOPE  H18X18228  -0.653   5.464   9.069 -1.0454  0.5481 -0.2871
  162SOPE  H18Y18229  -0.698   5.368   8.925 -0.7582  0.5834 -0.0795
  162SOPE  H18Z18230  -0.622   5.534   8.904 -0.0526 -0.8338 -1.8255
  163SOPE     N18231   1.304   6.031  10.542 -0.3858  0.4178  0.4947
  163SOPE   HN118232   1.220   6.019  10.603 -1.4597  1.9236 -0.6066
  163SOPE   HN218233   1.384   6.039  10.607 -0.6530  0.6375  0.7984
  163SOPE   HN318234   1.289   6.126  10.502 -1.7839  0.0589  0.0985
  163SOPE   C1218235   1.322   5.936  10.430  0.6938 -0.2331  0.4094
  163SOPE  H12A18236   1.392   5.982  10.357 -0.8999  1.9739  0.1706
  163SOPE  H12B18237   1.230   5.920  10.370  1.4043 -0.4087 -0.6681
  163SOPE   C1118238   1.375   5.803  10.485 -0.6240 -0.3860  0.2599
  163SOPE  H11A18239   1.479   5.827  10.515 -0.6895  1.5366 -0.8600
  163SOPE  H11B18240   1.380   5.742  10.392 -0.2689 -0.7705  0.5298
  163SOPE     P18241   1.343   5.608  10.638  0.0342 -0.0928 -0.6092
  163SOPE   O1318242   1.247   5.566  10.745 -0.0901  0.2239  0.4467
  163SOPE   O1418243   1.485   5.610  10.673 -0.5930  0.9828  0.1143
  163SOPE   O1218244   1.302   5.753  10.592  0.0398  0.1047 -0.5249
  163SOPE   O1118245   1.323   5.521  10.505 -0.3150 -0.5436  0.0907
  163SOPE    C118246   1.196   5.533  10.437  0.2950 -0.0032  0.5239
  163SOPE    HA18247   1.214   5.501  10.332  2.2882 -0.2027  0.9087
  163SOPE    HB18248   1.154   5.635  10.420  0.0478 -0.4242 -1.8237
  163SOPE    C218249   1.088   5.445  10.498 -0.0956 -0.2548 -0.3255
  163SOPE    HS18250   1.088   5.469  10.606 -0.5545  0.7057 -0.5259
  163SOPE   O2118251   1.125   5.310  10.470 -0.2869 -0.3564 -0.1360
  163SOPE   C2118252   1.074   5.224  10.559 -0.1050  0.5677 -0.0024
  163SOPE   O2218253   1.005   5.248  10.655  0.3341  0.1231  0.5961
  163SOPE   C2218254   1.145   5.090  10.544  0.0576 -0.4689 -0.8317
  163SOPE   H2R18255   1.197   5.074  10.641  0.4362 -2.9706 -1.3606
  163SOPE   H2S18256   1.231   5.100  10.475  0.8161  1.6528  0.3363
  163SOPE    C318257   0.944   5.494  10.457  0.8909  0.6029  0.0621
  163SOPE    HX18258   0.942   5.605  10.466 -2.0859  0.7079 -0.7406
  163SOPE    HY18259   0.874   5.434  10.519  1.9232 -0.3061  0.3685
  163SOPE   O3118260   0.923   5.458  10.320  0.2870  0.3168  0.0225
  163SOPE   C3118261   0.852   5.354  10.289  0.4832  0.1355  0.6436
  163SOPE   O3218262   0.799   5.270  10.367 -0.2178 -0.1638 -0.3352
  163SOPE   C3218263   0.839   5.331  10.137 -0.0594  0.2452  0.0469
  163SOPE   H2X18264   0.890   5.237  10.107 -0.5501 -0.2012  0.5888
  163SOPE   H2Y18265   0.892   5.416  10.089 -0.3625 -1.0202 -2.6772
  163SOPE   C2318266   1.047   4.971  10.518 -0.5833 -0.3857 -0.1622
  163SOPE   H3R18267   0.971   4.973  10.599  0.2838  0.4002  0.6655
  163SOPE   H3S18268   1.097   4.872  10.521  0.3242  0.0020 -1.5735
  163SOPE   C2418269   0.994   4.978  10.377  0.7198 -0.0217  0.0494
  163SOPE   H4R18270   0.942   4.881  10.364  0.7812 -0.5062  2.9037
  163SOPE   H4S18271   0.916   5.056  10.362  1.0495  0.4402  0.6873
  163SOPE   C2518272   1.089   5.016  10.262  0.6861  0.2674  0.9088
  163SOPE   H5R18273   1.106   5.125  10.270  0.5898  0.3749 -0.1797
  163SOPE   H5S18274   1.188   4.965  10.271  1.1636  1.3300  1.9529
  163SOPE   C2618275   1.035   4.990  10.120 -0.1242  0.1610  0.7665
  163SOPE   H6R18276   1.032   4.879  10.108  2.8168  0.0377  0.2966
  163SOPE   H6S18277   0.931   5.027  10.111 -0.3199 -0.4709  0.3726
  163SOPE   C2718278   1.128   5.048  10.017 -0.4948 -0.7956 -0.1493
  163SOPE   H7R18279   1.158   5.152  10.041 -0.2222 -0.9367  0.1381
  163SOPE   H7S18280   1.226   4.995  10.021  0.7681  1.4670  0.2773
  163SOPE   C2818281   1.072   5.078   9.875  0.1077 -0.7572  0.3476
  163SOPE   H8R18282   0.981   5.141   9.875  0.7119  0.2071 -1.9584
  163SOPE   H8S18283   1.147   5.141   9.823  0.1782  0.5725  1.9577
  163SOPE   C2918284   1.035   4.950   9.799  0.3639 -0.0885 -0.4827
  163SOPE   H9118285   0.942   4.905   9.836 -0.2649  2.1085  0.8153
  163SOPE  C21018286   1.119   4.884   9.720  0.5396 -0.1102 -0.2265
  163SOPE  H10118287   1.082   4.799   9.662 -0.9298  0.3371  0.0171
  163SOPE  C21118288   1.259   4.931   9.695 -0.6074 -0.0618  0.6402
  163SOPE  H11R18289   1.325   4.844   9.709 -0.0039  0.1604 -0.7193
  163SOPE  H11S18290   1.305   4.996   9.773  0.1400 -0.0935  0.2267
  163SOPE  C21218291   1.280   5.015   9.564 -0.4419  0.5599  0.0099
  163SOPE  H12R18292   1.388   5.040   9.563 -0.0974 -0.8238  0.1138
  163SOPE  H12S18293   1.218   5.106   9.576  0.2170  0.8534  1.4721
  163SOPE  C21318294   1.238   4.935   9.437 -0.7647  0.3053 -0.5054
  163SOPE  H13R18295   1.127   4.934   9.436 -0.7651  0.5647 -1.0322
  163SOPE  H13S18296   1.273   4.830   9.441  0.8534  0.8169 -0.3860
  163SOPE  C21418297   1.299   4.998   9.305 -0.9908  0.7020 -0.1377
  163SOPE  H14R18298   1.283   4.933   9.216 -0.4154  1.2498 -0.6528
  163SOPE  H14S18299   1.409   5.010   9.320 -0.8406 -1.2479  0.5812
  163SOPE  C21518300   1.237   5.133   9.273  0.5182  0.3860 -0.0551
  163SOPE  H15R18301   1.276   5.209   9.343 -0.1276  0.3883  0.3156
  163SOPE  H15S18302   1.128   5.121   9.292  0.5065  2.2031  1.2648
  163SOPE  C21618303   1.283   5.163   9.131  0.3967 -0.2683 -0.3794
  163SOPE  H16R18304   1.254   5.084   9.059  0.9110 -2.2391  1.4740
  163SOPE  H16S18305   1.393   5.179   9.142  0.1130  0.9302  1.0950
  163SOPE  C21718306   1.218   5.295   9.073 -0.1703  0.5019  0.7645
  163SOPE  H17R18307   1.247   5.383   9.134 -3.2237  1.1354  1.4392
  163SOPE  H17S18308   1.108   5.296   9.084 -0.2114  1.8123  0.4619
  163SOPE  C21818309   1.254   5.314   8.927 -0.2542 -0.2076  0.3700
  163SOPE  H18R18310   1.359   5.346   8.907 -1.2397  3.2842  0.1319
  163SOPE  H18S18311   1.188   5.396   8.892 -0.5840 -0.6085  0.0527
  163SOPE  H18T18312   1.227   5.228   8.862  0.0602  1.0403 -1.4775
  163SOPE   C3318313   0.696   5.306  10.082 -0.3543 -0.1349  1.1266
  163SOPE   H3X18314   0.638   5.400  10.067 -1.0069 -0.8426 -1.2061
  163SOPE   H3Y18315   0.645   5.232  10.146 -0.3493 -1.1117  0.0356
  163SOPE   C3418316   0.708   5.236   9.940  0.0664  0.4177  0.2062
  163SOPE   H4X18317   0.766   5.143   9.958 -1.6065 -0.6787  0.1289
  163SOPE   H4Y18318   0.766   5.288   9.861  0.6882 -0.9755 -0.2832
  163SOPE   C3518319   0.573   5.187   9.888  0.3439 -0.0673  0.0094
  163SOPE   H5X18320   0.498   5.263   9.916 -0.9287 -1.8796  1.7567
  163SOPE   H5Y18321   0.534   5.096   9.939  0.0380 -0.0854 -0.2573
  163SOPE   C3618322   0.595   5.155   9.736 -1.0056  0.9271  0.7385
  163SOPE   H6X18323   0.633   5.244   9.683  1.5187 -0.7294 -0.3907
  163SOPE   H6Y18324   0.504   5.131   9.677 -0.0470 -2.4480  0.4239
  163SOPE   C3718325   0.685   5.031   9.718 -0.2140 -0.7256  1.3546
  163SOPE   H7X18326   0.656   4.947   9.784  0.6607 -2.0451  0.1158
  163SOPE   H7Y18327   0.788   5.071   9.724 -0.2277 -0.7006  1.4250
  163SOPE   C3818328   0.663   4.983   9.573 -0.0884 -0.0731  0.5853
  163SOPE   H8X18329   0.672   5.071   9.505 -3.2669  0.7900  1.1342
  163SOPE   H8Y18330   0.556   4.953   9.570 -0.0299 -0.2141 -0.7082
  163SOPE   C3918331   0.749   4.860   9.540 -0.4816 -0.0411 -0.1200
  163SOPE   H9X18332   0.738   4.771   9.606  0.1937 -2.0030 -2.5093
  163SOPE   H9Y18333   0.856   4.887   9.553 -1.0958  2.7261 -0.2074
  163SOPE  C31018334   0.730   4.804   9.394 -0.1169 -0.1546 -0.4753
  163SOPE  H10X18335   0.782   4.706   9.394 -0.8606 -0.5607 -0.6361
  163SOPE  H10Y18336   0.782   4.875   9.327  0.2052 -1.7157 -1.9514
  163SOPE  C31118337   0.579   4.789   9.352 -0.3589 -0.2687  0.4097
  163SOPE  H11X18338   0.566   4.847   9.258  1.1233  0.2521  0.4914
  163SOPE  H11Y18339   0.505   4.818   9.430  0.0331  0.9757  0.3414
  163SOPE  C31218340   0.542   4.645   9.307 -0.2236  0.1157 -0.2808
  163SOPE  H12X18341   0.558   4.564   9.381  2.1510  0.5389 -0.2475
  163SOPE  H12Y18342   0.614   4.606   9.232  1.3169 -0.3513  1.3738
  163SOPE  C31318343   0.400   4.627   9.241 -0.4553 -0.2358 -0.2706
  163SOPE  H13X18344   0.329   4.620   9.326 -1.4100  2.1380 -0.7962
  163SOPE  H13Y18345   0.408   4.525   9.199  2.8797  0.2262 -1.0286
  163SOPE  C31418346   0.344   4.719   9.140 -0.4209 -0.2940 -0.1745
  163SOPE  H14X18347   0.331   4.818   9.189  1.4466  0.6415 -1.4653
  163SOPE  H14Y18348   0.244   4.681   9.110 -0.9629 -0.7149  2.0288
  163SOPE  C31518349   0.437   4.749   9.024  0.0965 -0.1971 -1.1481
  163SOPE  H15X18350   0.510   4.668   9.006 -0.2348 -0.8530  0.3541
  163SOPE  H15Y18351   0.488   4.844   9.052 -2.4606  0.6281  1.1581
  163SOPE  C31618352   0.375   4.803   8.896  0.1140  0.1758 -0.1594
  163SOPE  H16X18353   0.330   4.904   8.902 -1.7856 -0.5640 -0.8293
  163SOPE  H16Y18354   0.290   4.736   8.870 -0.4554  0.6957  0.3398
  163SOPE  C31718355   0.473   4.801   8.775 -0.2552 -0.1202 -0.4749
  163SOPE  H17X18356   0.517   4.701   8.757 -1.0208 -0.6264  0.3881
  163SOPE  H17Y18357   0.563   4.858   8.806 -0.3781 -0.3075  0.2569
  163SOPE  C31818358   0.426   4.849   8.640 -0.0462 -0.1292 -0.3607
  163SOPE  H18X18359   0.336   4.792   8.609 -1.2431  0.9495  0.9695
  163SOPE  H18Y18360   0.501   4.833   8.560  1.8690  1.5095  1.0040
  163SOPE  H18Z18361   0.404   4.958   8.640  0.5086  0.1446  3.5327
  164SOPE     N18362   2.299   0.782  10.568  0.0117  0.0972  0.2569
  164SOPE   HN118363   2.244   0.706  10.613 -0.6060 -0.9045 -2.0228
  164SOPE   HN218364   2.239   0.866  10.574 -0.2707 -0.1504  1.0027
  164SOPE   HN318365   2.308   0.769  10.465 -3.7692 -1.1958 -0.0723
  164SOPE   C1218366   2.430   0.817  10.631  0.4277  0.5420 -0.2003
  164SOPE  H12A18367   2.512   0.753  10.591  1.8167  1.9943  0.2205
  164SOPE  H12B18368   2.413   0.815  10.741 -0.2549 -1.4513 -0.3077
  164SOPE   C1118369   2.455   0.960  10.606 -0.2747  0.7974 -0.3693
  164SOPE  H11A18370   2.464   0.977  10.497  2.5318 -0.9730 -0.5144
  164SOPE  H11B18371   2.558   0.985  10.640 -0.0260  1.6575 -1.6748
  164SOPE     P18372   2.354   1.191  10.685  0.0229  0.0268  0.0659
  164SOPE   O1318373   2.480   1.230  10.762  0.7343  0.1577  0.1865
  164SOPE   O1418374   2.219   1.229  10.744 -1.1356  0.2389 -0.5448
  164SOPE   O1218375   2.353   1.037  10.670 -0.3270 -0.4050 -0.5263
  164SOPE   O1118376   2.365   1.245  10.540 -0.3715 -0.2992 -0.2889
  164SOPE    C118377   2.296   1.193  10.433 -0.7203  0.1286 -0.0315
  164SOPE    HA18378   2.215   1.123  10.462 -0.8655 -0.4183 -1.6654
  164SOPE    HB18379   2.361   1.136  10.363 -1.8277  0.2894 -1.2359
  164SOPE    C218380   2.226   1.299  10.348 -0.2935  0.2460  0.5257
  164SOPE    HS18381   2.161   1.231  10.288 -1.4678  0.4212  1.5464
  164SOPE   O2118382   2.327   1.380  10.278  0.1402  0.3609 -0.0941
  164SOPE   C2118383   2.288   1.413  10.161 -0.0724  0.0196  0.3262
  164SOPE   O2218384   2.181   1.384  10.111  0.4093 -0.4062  0.1514
  164SOPE   C2218385   2.400   1.498  10.100 -0.7478  0.0542  0.4269
  164SOPE   H2R18386   2.500   1.449  10.105 -0.5469  0.2170 -1.5061
  164SOPE   H2S18387   2.424   1.593  10.153 -0.0964  0.5441 -0.7175
  164SOPE    C318388   2.129   1.389  10.431 -0.8266 -0.0228 -0.5192
  164SOPE    HX18389   2.204   1.434  10.500 -0.5536  0.7815 -1.3234
  164SOPE    HY18390   2.054   1.327  10.484 -0.7661  0.6296  0.3557
  164SOPE   O3118391   2.059   1.490  10.365 -1.1695 -0.4062  0.6522
  164SOPE   C3118392   2.104   1.621  10.353 -0.1269  0.0934  0.4133
  164SOPE   O3218393   2.217   1.657  10.372  0.5051  0.1568 -0.4760
  164SOPE   C3218394   1.994   1.710  10.296  0.2112  0.5458  0.8874
  164SOPE   H2X18395   1.921   1.739  10.375 -1.2324  2.0912 -0.9243
  164SOPE   H2Y18396   1.933   1.655  10.221  0.4598  0.2935  0.8712
  164SOPE   C2318397   2.361   1.543   9.957  0.7035 -0.2069  0.1604
  164SOPE   H3R18398   2.256   1.578   9.974  0.1257 -2.8759  3.1684
  164SOPE   H3S18399   2.354   1.451   9.896  0.5582  1.1509 -1.9469
  164SOPE   C2418400   2.455   1.637   9.895  0.3677 -0.1027  0.2827
  164SOPE   H4R18401   2.455   1.727   9.960  0.1711  0.3337 -0.3146
  164SOPE   H4S18402   2.556   1.593   9.891  0.6008  0.4824 -0.4294
  164SOPE   C2518403   2.418   1.678   9.749 -0.5343  0.5952 -0.6946
  164SOPE   H5R18404   2.310   1.702   9.757 -0.5213  1.1406 -1.9671
  164SOPE   H5S18405   2.477   1.769   9.728  0.9936 -0.0689  0.5273
  164SOPE   C2618406   2.452   1.578   9.633  0.7542  0.3657 -0.8611
  164SOPE   H6R18407   2.562   1.561   9.638  0.6622 -0.4736 -1.4129
  164SOPE   H6S18408   2.394   1.486   9.659  1.6550  0.1088  0.3195
  164SOPE   C2718409   2.436   1.630   9.490  0.1314 -0.2051  0.4992
  164SOPE   H7R18410   2.327   1.647   9.480  0.0499 -1.3925 -0.9299
  164SOPE   H7S18411   2.495   1.724   9.480  0.5432 -0.2808  1.9016
  164SOPE   C2818412   2.491   1.535   9.382 -0.3469  0.2445  0.4047
  164SOPE   H8R18413   2.599   1.534   9.409  0.4739  1.3266 -2.5090
  164SOPE   H8S18414   2.447   1.433   9.388 -0.1713 -0.1993 -3.5577
  164SOPE   C2918415   2.480   1.584   9.240 -0.3832 -1.3119  0.0843
  164SOPE   H9118416   2.437   1.685   9.246 -1.7022 -1.8777  0.4975
  164SOPE  C21018417   2.504   1.524   9.123 -0.0110 -0.7962 -0.3938
  164SOPE  H10118418   2.480   1.577   9.029  0.8495 -2.2759 -1.4784
  164SOPE  C21118419   2.555   1.383   9.103 -0.7117  0.4576  0.0488
  164SOPE  H11R18420   2.469   1.323   9.064  1.0106 -1.9554 -0.3039
  164SOPE  H11S18421   2.588   1.333   9.197 -1.8591  1.0241  0.7709
  164SOPE  C21218422   2.680   1.379   8.997  0.3833  0.1853 -0.2336
  164SOPE  H12R18423   2.708   1.273   8.982  3.3667  0.4355  2.3700
  164SOPE  H12S18424   2.766   1.434   9.041  2.1224 -2.6917  0.1961
  164SOPE  C21318425   2.634   1.446   8.864 -0.3855  0.4139  0.2966
  164SOPE  H13R18426   2.629   1.556   8.883  1.9364  0.8589 -1.3622
  164SOPE  H13S18427   2.530   1.423   8.832 -0.6764  0.2123  1.3581
  164SOPE  C21418428   2.710   1.421   8.738 -0.6555 -1.0669  1.0299
  164SOPE  H14R18429   2.789   1.344   8.743 -0.1376 -0.5300  1.2387
  164SOPE  H14S18430   2.772   1.510   8.710  0.9615 -3.2755 -3.3648
  164SOPE  C21518431   2.614   1.381   8.624  0.4321 -0.2100  0.3528
  164SOPE  H15R18432   2.540   1.463   8.616  2.7510  1.8486 -1.4826
  164SOPE  H15S18433   2.553   1.291   8.649 -0.7384  0.6272  0.5794
  164SOPE  C21618434   2.692   1.362   8.493 -0.3023 -0.2560  0.0453
  164SOPE  H16R18435   2.748   1.269   8.514  1.5501  0.8478  0.1802
  164SOPE  H16S18436   2.769   1.440   8.478 -0.9071  0.3635  0.1225
  164SOPE  C21718437   2.595   1.334   8.372  0.5191 -0.2396 -0.5379
  164SOPE  H17R18438   2.527   1.419   8.351 -1.0014 -0.7421  2.0157
  164SOPE  H17S18439   2.524   1.254   8.402  1.8793 -0.5465  2.1249
  164SOPE  C21818440   2.666   1.295   8.239  0.2951 -0.4030  0.4124
  164SOPE  H18R18441   2.595   1.263   8.161 -0.7492 -0.8210  1.5123
  164SOPE  H18S18442   2.722   1.203   8.266 -3.3836 -2.4666  1.6172
  164SOPE  H18T18443   2.734   1.379   8.214  0.9341 -0.6037  1.3905
  164SOPE   C3318444   2.048   1.846  10.247  0.0967  0.5684  0.3867
  164SOPE   H3X18445   2.116   1.882  10.327 -0.1701 -1.5649  1.6581
  164SOPE   H3Y18446   1.959   1.912  10.237 -2.4672 -2.8952 -2.7454
  164SOPE   C3418447   2.115   1.849  10.105  0.1974  0.1828  0.4793
  164SOPE   H4X18448   2.196   1.773  10.109  0.4930  0.5097  0.6505
  164SOPE   H4Y18449   2.166   1.947  10.094  0.4605 -0.2075 -2.5371
  164SOPE   C3518450   2.012   1.834   9.984 -0.5746 -0.7060 -0.5627
  164SOPE   H5X18451   1.945   1.923   9.982  0.8051  0.3807  0.1143
  164SOPE   H5Y18452   1.953   1.740   9.994 -0.4308 -0.7098  0.3172
  164SOPE   C3618453   2.092   1.838   9.855  0.4874  0.2275 -0.1477
  164SOPE   H6X18454   2.141   1.739   9.847 -0.5507 -0.5112  2.0021
  164SOPE   H6Y18455   2.164   1.923   9.857  0.0138  0.6154  0.7795
  164SOPE   C3718456   2.011   1.879   9.727 -0.8174 -0.1402 -0.0962
  164SOPE   H7X18457   1.978   1.985   9.736 -2.8117 -0.7150 -0.1792
  164SOPE   H7Y18458   1.917   1.820   9.733  0.4766 -2.3557 -0.8041
  164SOPE   C3818459   2.099   1.865   9.598  0.4019 -0.4915 -1.0019
  164SOPE   H8X18460   2.138   1.761   9.600  0.2874 -0.5259 -0.3948
  164SOPE   H8Y18461   2.186   1.935   9.605 -0.1813  0.0658  3.8422
  164SOPE   C3918462   2.013   1.887   9.474  0.2425 -1.1951  0.0805
  164SOPE   H9X18463   1.988   1.996   9.471  0.2710 -1.1284  1.5891
  164SOPE   H9Y18464   1.921   1.824   9.471  0.1997 -1.1625 -2.7367
  164SOPE  C31018465   2.100   1.836   9.356  0.6108 -0.1911 -0.4377
  164SOPE  H10X18466   2.133   1.730   9.353 -1.5228 -1.0431  2.1156
  164SOPE  H10Y18467   2.185   1.907   9.352 -0.3598  1.0027 -0.7781
  164SOPE  C31118468   2.024   1.859   9.220 -0.6540 -0.5426 -0.5715
  164SOPE  H11X18469   1.998   1.967   9.212 -0.6956 -0.5469 -0.4931
  164SOPE  H11Y18470   1.927   1.805   9.220 -1.2084  0.3617  0.9159
  164SOPE  C31218471   2.107   1.820   9.097  0.1537  0.1330 -0.4195
  164SOPE  H12X18472   2.106   1.709   9.092 -3.2271  0.0944 -1.6788
  164SOPE  H12Y18473   2.213   1.848   9.110 -0.3640  2.1570 -0.2122
  164SOPE  C31318474   2.058   1.874   8.963 -0.6216  0.1738  0.0950
  164SOPE  H13X18475   2.089   1.979   8.949  2.0527 -0.5463  0.1714
  164SOPE  H13Y18476   1.947   1.869   8.952 -0.5493 -1.4842 -0.2513
  164SOPE  C31418477   2.115   1.786   8.844 -0.6081  0.0107 -0.0480
  164SOPE  H14X18478   2.070   1.684   8.850 -0.7657 -0.0898 -2.2253
  164SOPE  H14Y18479   2.225   1.777   8.857 -0.4340  1.2071 -0.5504
  164SOPE  C31518480   2.090   1.847   8.706  0.5818  0.1645 -0.1970
  164SOPE  H15X18481   2.127   1.950   8.686  0.5216  0.1708 -0.2805
  164SOPE  H15Y18482   1.979   1.859   8.707  0.0535 -3.6484  0.7961
  164SOPE  C31618483   2.128   1.763   8.582 -0.7215 -0.2411  0.2173
  164SOPE  H16X18484   2.085   1.806   8.489  0.8656  0.6085 -0.1515
  164SOPE  H16Y18485   2.086   1.660   8.586 -1.8810  0.2088 -0.0425
  164SOPE  C31718486   2.274   1.759   8.560 -0.5639  0.4805  0.3711
  164SOPE  H17X18487   2.313   1.709   8.651 -3.2183 -0.2648  1.1891
  164SOPE  H17Y18488   2.322   1.858   8.545  1.9250 -0.7507 -0.4755
  164SOPE  C31818489   2.309   1.686   8.429 -0.0973 -0.4650  0.4331
  164SOPE  H18X18490   2.242   1.725   8.349 -0.7273 -0.6859  0.8425
  164SOPE  H18Y18491   2.284   1.578   8.434  0.7459 -0.6690  0.2840
  164SOPE  H18Z18492   2.414   1.705   8.398 -0.0161 -2.1689 -0.4664
  165SOPE     N18493   1.392   4.189  10.910 -0.3119 -0.2458 -0.0388
  165SOPE   HN118494   1.292   4.167  10.926 -0.2712  0.6748  1.6407
  165SOPE   HN218495   1.457   4.125  10.960 -0.2711 -1.1395 -1.1783
  165SOPE   HN318496   1.411   4.287  10.939 -1.4679  0.3747 -1.2616
  165SOPE   C1218497   1.433   4.202  10.759  0.2522 -0.1869 -0.0464
  165SOPE  H12A18498   1.356   4.272  10.720  1.4202  0.8862 -0.4696
  165SOPE  H12B18499   1.423   4.104  10.707  1.1447  0.3718 -1.3142
  165SOPE   C1118500   1.575   4.248  10.737  0.4990 -0.6300 -0.3679
  165SOPE  H11A18501   1.584   4.297  10.638 -1.3996  0.1293 -0.1968
  165SOPE  H11B18502   1.641   4.158  10.734 -1.1480 -1.8614 -0.8678
  165SOPE     P18503   1.668   4.478  10.819 -0.4270 -0.5200 -0.1373
  165SOPE   O1318504   1.700   4.536  10.953 -0.0870 -0.2394 -0.0508
  165SOPE   O1418505   1.559   4.542  10.738  0.2341  0.1804  0.5720
  165SOPE   O1218506   1.624   4.328  10.844 -0.0251  0.3772 -0.5270
  165SOPE   O1118507   1.799   4.464  10.726 -0.3551  0.5219 -0.4049
  165SOPE    C118508   1.884   4.565  10.678  0.4969  0.6233  0.7497
  165SOPE    HA18509   1.986   4.523  10.690  0.5631  0.3955 -0.4344
  165SOPE    HB18510   1.874   4.663  10.729 -3.1007  0.8305 -0.0685
  165SOPE    C218511   1.863   4.594  10.527  0.9678  0.3690  0.0276
  165SOPE    HS18512   1.949   4.659  10.501  0.7108  0.3679 -0.8394
  165SOPE   O2118513   1.737   4.652  10.502  0.3723  0.0002  0.1085
  165SOPE   C2118514   1.730   4.780  10.523  0.4019  0.0828  0.1236
  165SOPE   O2218515   1.816   4.847  10.566 -0.2462  0.2863  0.1434
  165SOPE   C2218516   1.599   4.835  10.470  0.2397 -0.3203 -0.2724
  165SOPE   H2R18517   1.573   4.917  10.540 -0.8548 -1.8382  1.1941
  165SOPE   H2S18518   1.512   4.767  10.484 -2.3428  3.0272  1.5859
  165SOPE    C318519   1.882   4.467  10.445 -0.5020  0.3825  0.2152
  165SOPE    HX18520   1.791   4.403  10.447  1.0540 -1.9674  3.7660
  165SOPE    HY18521   1.965   4.416  10.497 -0.1747 -0.9872 -1.5642
  165SOPE   O3118522   1.924   4.502  10.312  0.3217 -0.3234  0.3568
  165SOPE   C3118523   1.964   4.397  10.236 -0.3159  0.2005  0.4562
  165SOPE   O3218524   1.958   4.281  10.277 -0.0562  0.0466 -0.4640
  165SOPE   C3218525   2.018   4.439  10.101  0.2865  0.0389  0.2851
  165SOPE   H2X18526   2.050   4.545  10.103  1.4602 -0.3104  1.0924
  165SOPE   H2Y18527   1.940   4.403  10.031  0.7410 -1.4330  0.4894
  165SOPE   C2318528   1.607   4.891  10.325 -0.1603 -0.0746 -0.4897
  165SOPE   H3R18529   1.702   4.944  10.305 -0.1043  0.4731  1.0952
  165SOPE   H3S18530   1.527   4.968  10.322  0.7623  1.0112  1.2153
  165SOPE   C2418531   1.593   4.783  10.215 -0.4155  0.5170 -0.2688
  165SOPE   H4R18532   1.674   4.708  10.221 -0.2821  0.7776  2.5648
  165SOPE   H4S18533   1.498   4.727  10.226 -0.5985  0.2631 -2.6149
  165SOPE   C2518534   1.598   4.855  10.086  0.3639 -0.1064 -0.2162
  165SOPE   H5R18535   1.517   4.929  10.069 -0.1726 -0.7880 -0.6395
  165SOPE   H5S18536   1.692   4.916  10.086  0.9502 -0.9094  2.2517
  165SOPE   C2618537   1.621   4.765   9.961 -0.2560  0.0681 -0.7391
  165SOPE   H6R18538   1.533   4.697   9.953  0.8249 -1.5336  0.3293
  165SOPE   H6S18539   1.610   4.829   9.871  0.1105  1.9538  0.5080
  165SOPE   C2718540   1.753   4.696   9.951 -0.3717  0.0576 -0.0584
  165SOPE   H7R18541   1.837   4.765   9.976  0.0424  0.1464 -1.6249
  165SOPE   H7S18542   1.761   4.608  10.019  2.0941  1.6345  1.9261
  165SOPE   C2818543   1.791   4.647   9.808 -0.2189  0.6357 -0.4936
  165SOPE   H8R18544   1.870   4.576   9.840  0.2223  0.8517 -1.0773
  165SOPE   H8S18545   1.713   4.590   9.752  1.3549 -0.3380 -1.7801
  165SOPE   C2918546   1.857   4.738   9.712 -0.3326  0.0052 -0.6777
  165SOPE   H9118547   1.961   4.768   9.730 -0.2613  1.1764 -2.6612
  165SOPE  C21018548   1.800   4.791   9.601 -0.6822  0.1561 -1.2230
  165SOPE  H10118549   1.867   4.857   9.543  2.1101 -0.7476  0.7798
  165SOPE  C21118550   1.657   4.772   9.553 -0.0759  0.5664 -0.5244
  165SOPE  H11R18551   1.595   4.853   9.597  0.4882  1.9742 -2.2366
  165SOPE  H11S18552   1.603   4.676   9.573  0.5426  0.3257  0.0291
  165SOPE  C21218553   1.669   4.792   9.404  0.8893  0.1915 -0.5087
  165SOPE  H12R18554   1.724   4.883   9.372 -0.8517  1.3910 -0.1856
  165SOPE  H12S18555   1.569   4.820   9.367 -0.4147 -1.3250  1.6591
  165SOPE  C21318556   1.716   4.670   9.331 -1.0670  0.1314  1.3406
  165SOPE  H13R18557   1.679   4.586   9.393 -2.0738  0.6899  1.5268
  165SOPE  H13S18558   1.826   4.668   9.324 -1.1567 -2.6822 -1.6302
  165SOPE  C21418559   1.664   4.675   9.189 -0.5781  0.2941 -0.0524
  165SOPE  H14R18560   1.553   4.672   9.186 -0.7316  1.2440  2.4079
  165SOPE  H14S18561   1.699   4.583   9.137  0.2740  0.3552  0.3961
  165SOPE  C21518562   1.719   4.803   9.106  0.1570 -0.4376  0.1504
  165SOPE  H15R18563   1.829   4.802   9.116  0.1952  0.8566  0.0495
  165SOPE  H15S18564   1.679   4.891   9.161  1.6713  0.9090 -0.8268
  165SOPE  C21618565   1.698   4.799   8.956 -0.3629 -0.0169  0.0315
  165SOPE  H16R18566   1.731   4.700   8.918 -2.0945 -1.1919  1.4056
  165SOPE  H16S18567   1.747   4.886   8.907 -0.5183 -0.4503 -0.9252
  165SOPE  C21718568   1.550   4.803   8.919  0.1098 -0.4472  0.3918
  165SOPE  H17R18569   1.499   4.706   8.937 -1.5898 -0.0848 -2.0272
  165SOPE  H17S18570   1.539   4.813   8.809 -3.4159  1.2445  0.7551
  165SOPE  C21818571   1.467   4.912   8.984 -0.1013 -0.4737 -0.1897
  165SOPE  H18R18572   1.362   4.894   8.951 -0.1304 -0.7119  0.0295
  165SOPE  H18S18573   1.510   5.007   8.945  0.2134 -1.3089 -1.9690
  165SOPE  H18T18574   1.472   4.907   9.095 -2.1139 -1.2153 -0.0831
  165SOPE   C3318575   2.156   4.376  10.070  0.2876 -0.0926 -0.8553
  165SOPE   H3X18576   2.140   4.267  10.056 -0.7716 -0.3731  1.7886
  165SOPE   H3Y18577   2.227   4.386  10.155 -1.7417  0.8508  0.8287
  165SOPE   C3418578   2.217   4.422   9.938 -0.6760  0.7507 -0.1730
  165SOPE   H4X18579   2.265   4.522   9.938 -0.7523  0.8005 -1.2108
  165SOPE   H4Y18580   2.149   4.442   9.852  1.7864  1.3688 -2.1196
  165SOPE   C3518581   2.333   4.330   9.899  0.0551  0.9091 -0.2263
  165SOPE   H5X18582   2.309   4.222   9.888 -1.7434  1.3932 -1.4371
  165SOPE   H5Y18583   2.391   4.327   9.994 -1.8106 -3.3629  1.0244
  165SOPE   C3618584   2.411   4.387   9.785  0.6711 -0.2947  0.2815
  165SOPE   H6X18585   2.507   4.332   9.775  0.5277 -0.3253 -1.1654
  165SOPE   H6Y18586   2.451   4.489   9.801 -0.0383  0.3050 -1.4608
  165SOPE   C3718587   2.343   4.387   9.646  0.1151  0.4972 -0.3708
  165SOPE   H7X18588   2.257   4.456   9.649 -0.3743 -0.1332  0.4755
  165SOPE   H7Y18589   2.306   4.282   9.644 -0.8454  0.7488  1.6517
  165SOPE   C3818590   2.439   4.444   9.539  0.2922 -0.2580 -0.3871
  165SOPE   H8X18591   2.541   4.404   9.559  0.9311  2.1594  1.6804
  165SOPE   H8Y18592   2.445   4.553   9.559  0.9845 -0.2185 -0.7914
  165SOPE   C3918593   2.381   4.406   9.398 -0.6329  0.5087  0.9298
  165SOPE   H9X18594   2.278   4.446   9.399 -1.4083 -1.3584  0.7288
  165SOPE   H9Y18595   2.379   4.295   9.395 -1.3395  0.4540  2.3532
  165SOPE  C31018596   2.482   4.468   9.299 -0.6346 -0.3571 -0.3927
  165SOPE  H10X18597   2.581   4.418   9.307 -0.7167 -0.2792  2.0945
  165SOPE  H10Y18598   2.495   4.573   9.333  1.3359 -1.0284  1.1158
  165SOPE  C31118599   2.437   4.442   9.158 -0.0348 -0.3230  0.8320
  165SOPE  H11X18600   2.326   4.450   9.151  0.1514  2.0279 -0.6935
  165SOPE  H11Y18601   2.459   4.338   9.129 -2.2941  0.3874 -4.6485
  165SOPE  C31218602   2.509   4.533   9.060  0.1543 -0.0282 -1.1989
  165SOPE  H12X18603   2.620   4.531   9.065  0.1400  0.5638 -0.4872
  165SOPE  H12Y18604   2.478   4.634   9.093 -3.9839 -0.0796 -4.1563
  165SOPE  C31318605   2.456   4.508   8.923  0.3298  0.2910  0.5286
  165SOPE  H13X18606   2.347   4.494   8.936  0.5443 -0.4925  1.6398
  165SOPE  H13Y18607   2.491   4.411   8.881  0.6169  0.2394  0.8782
  165SOPE  C31418608   2.482   4.628   8.827  0.2053 -0.0480  0.8010
  165SOPE  H14X18609   2.591   4.644   8.810  0.1438 -2.0379 -2.2447
  165SOPE  H14Y18610   2.438   4.722   8.866 -3.5246 -1.4740  0.4442
  165SOPE  C31518611   2.424   4.597   8.678 -0.5176 -0.1159 -0.9746
  165SOPE  H15X18612   2.314   4.593   8.692 -0.6920  1.3402 -1.6921
  165SOPE  H15Y18613   2.456   4.495   8.647 -0.7556 -0.4976 -0.0121
  165SOPE  C31618614   2.439   4.707   8.571  0.3890 -0.1267 -0.2271
  165SOPE  H16X18615   2.536   4.759   8.588  0.4681 -0.6852  1.1333
  165SOPE  H16Y18616   2.370   4.793   8.582 -0.6590 -0.9082 -0.5528
  165SOPE  C31718617   2.406   4.648   8.429 -0.9575  0.4390 -0.4450
  165SOPE  H17X18618   2.303   4.607   8.425 -0.5932 -0.9166  2.0692
  165SOPE  H17Y18619   2.479   4.564   8.421 -0.0528  0.9567  1.6412
  165SOPE  C31818620   2.417   4.745   8.310 -0.0279  0.7805 -0.1791
  165SOPE  H18X18621   2.524   4.765   8.287 -0.4810  2.5676 -0.8633
  165SOPE  H18Y18622   2.373   4.845   8.330  0.2263  0.5213  1.9808
  165SOPE  H18Z18623   2.376   4.703   8.216 -2.7698  0.4699  1.0581
  166SOPE     N18624   4.120   2.995  10.766  0.1149  0.1988 -0.4206
  166SOPE   HN118625   4.145   3.031  10.861 -0.4174 -1.3253  0.3349
  166SOPE   HN218626   4.126   2.892  10.775  2.5193  0.3363  0.5688
  166SOPE   HN318627   4.196   3.020  10.699  1.4547  0.6660  1.1983
  166SOPE   C1218628   3.985   3.049  10.729  0.0086 -0.3896 -0.2254
  166SOPE  H12A18629   3.927   2.974  10.671  0.7738  0.7246 -2.5626
  166SOPE  H12B18630   4.009   3.138  10.667  0.4742 -0.5409 -0.2705
  166SOPE   C1118631   3.919   3.092  10.863 -0.1973  0.4040  0.2584
  166SOPE  H11A18632   3.902   2.997  10.919 -1.2556  0.1232 -0.5213
  166SOPE  H11B18633   3.818   3.125  10.834 -0.2242  0.8111  0.8061
  166SOPE     P18634   3.947   3.339  10.942 -0.3422  0.0437 -0.1303
  166SOPE   O1318635   4.047   3.412  11.028 -0.0470  0.0100 -0.1312
  166SOPE   O1418636   3.804   3.362  10.985 -0.2086 -0.1041  0.3973
  166SOPE   O1218637   3.995   3.186  10.939  0.6469 -0.1387 -0.5705
  166SOPE   O1118638   3.955   3.372  10.789 -0.0635 -0.9122  0.1919
  166SOPE    C118639   4.030   3.469  10.726 -0.2536 -0.7169 -0.4692
  166SOPE    HA18640   4.079   3.536  10.799  1.2663 -2.1620 -0.0864
  166SOPE    HB18641   3.963   3.524  10.657  0.5449  0.1179 -0.6005
  166SOPE    C218642   4.152   3.413  10.649  0.2206 -0.6615  0.4163
  166SOPE    HS18643   4.201   3.495  10.591 -3.2063  1.5087  0.2802
  166SOPE   O2118644   4.107   3.312  10.553 -0.1775 -0.5463  0.9306
  166SOPE   C2118645   4.049   3.366  10.440 -0.3842 -0.9066 -0.0659
  166SOPE   O2218646   4.047   3.480  10.410  0.0147 -0.6188  0.2020
  166SOPE   C2218647   3.982   3.262  10.346 -0.1374 -0.0692  0.3086
  166SOPE   H2R18648   3.909   3.216  10.415 -0.4097 -0.4085 -0.1990
  166SOPE   H2S18649   4.063   3.193  10.316 -0.8115 -0.1555 -1.4308
  166SOPE    C318650   4.264   3.349  10.742 -0.6259 -0.5351 -0.5660
  166SOPE    HX18651   4.223   3.271  10.810 -0.0602 -1.2962 -1.0795
  166SOPE    HY18652   4.293   3.433  10.809 -0.2813  0.2264 -1.6578
  166SOPE   O3118653   4.380   3.318  10.669  0.3638 -0.0083 -0.2175
  166SOPE   C3118654   4.377   3.209  10.603  0.1261  0.1261  0.7143
  166SOPE   O3218655   4.309   3.110  10.622  0.2847  0.1563 -0.0470
  166SOPE   C3218656   4.479   3.216  10.491  1.0051  0.0828  0.7707
  166SOPE   H2X18657   4.575   3.211  10.547  3.2965 -0.7300 -2.9036
  166SOPE   H2Y18658   4.478   3.313  10.438 -1.3453  0.5257  1.5260
  166SOPE   C2318659   3.927   3.315  10.213 -0.6106 -0.3407 -0.0593
  166SOPE   H3R18660   3.856   3.401  10.213  1.1501  1.2619 -2.4635
  166SOPE   H3S18661   3.861   3.236  10.171 -0.9674 -0.0512 -0.0578
  166SOPE   C2418662   4.040   3.349  10.108 -0.2660  0.1612 -0.0149
  166SOPE   H4R18663   4.101   3.434  10.145  0.4222  0.0718 -0.9173
  166SOPE   H4S18664   4.096   3.254  10.098 -1.3455 -0.4311 -0.5491
  166SOPE   C2518665   3.986   3.384   9.981 -0.7371 -0.4472 -0.2668
  166SOPE   H5R18666   3.917   3.305   9.943 -0.5708 -0.1910 -1.1097
  166SOPE   H5S18667   3.927   3.478   9.991  1.7422  1.2294 -0.6427
  166SOPE   C2618668   4.081   3.403   9.868 -0.2009 -0.3863 -0.1103
  166SOPE   H6R18669   4.139   3.497   9.882  0.4257 -0.8167  0.2198
  166SOPE   H6S18670   4.153   3.319   9.871  0.2071 -0.0337  0.0580
  166SOPE   C2718671   3.996   3.399   9.732  0.4096  0.8752  0.0348
  166SOPE   H7R18672   3.921   3.318   9.745  0.2234  0.8091 -1.2991
  166SOPE   H7S18673   3.941   3.494   9.719 -2.4606 -0.6779 -0.0618
  166SOPE   C2818674   4.078   3.361   9.604  0.0094 -0.3193 -0.4271
  166SOPE   H8R18675   4.119   3.260   9.624 -3.7428 -2.0618 -0.6950
  166SOPE   H8S18676   4.007   3.346   9.519  0.9359 -1.8107 -0.9731
  166SOPE   C2918677   4.187   3.463   9.577  0.1397 -0.3892  0.5586
  166SOPE   H9118678   4.273   3.456   9.645 -0.9212 -2.1497  1.7995
  166SOPE  C21018679   4.187   3.548   9.479  0.3928 -1.1657  0.3320
  166SOPE  H10118680   4.283   3.600   9.466  1.7258 -3.5291  0.0580
  166SOPE  C21118681   4.080   3.575   9.373  0.0614  0.0024 -0.3113
  166SOPE  H11R18682   4.112   3.675   9.336  0.7442  0.0377  0.3445
  166SOPE  H11S18683   3.980   3.563   9.420  0.7593 -1.9225  0.8112
  166SOPE  C21218684   4.082   3.481   9.246 -0.3629  0.6134 -0.5608
  166SOPE  H12R18685   4.053   3.534   9.152  3.2836  1.7678 -1.1911
  166SOPE  H12S18686   4.004   3.407   9.272 -0.4329  1.4456  1.8733
  166SOPE  C21318687   4.217   3.427   9.213 -0.1341 -0.1981 -0.2274
  166SOPE  H13R18688   4.259   3.370   9.299  0.1136 -1.3311 -1.0756
  166SOPE  H13S18689   4.280   3.519   9.209  0.4155 -0.6066 -1.8010
  166SOPE  C21418690   4.218   3.334   9.094  0.4067 -0.0797 -0.3660
  166SOPE  H14R18691   4.123   3.278   9.106  0.3889  0.4020  2.5989
  166SOPE  H14S18692   4.298   3.258   9.108 -0.4578 -0.6250  2.0579
  166SOPE  C21518693   4.229   3.398   8.950  0.7585 -0.3894 -0.0787
  166SOPE  H15R18694   4.317   3.465   8.939  0.8726 -0.5554 -0.1716
  166SOPE  H15S18695   4.150   3.475   8.964  1.3118  0.2310 -0.2777
  166SOPE  C21618696   4.207   3.302   8.838  0.3879  0.5267 -0.8411
  166SOPE  H16R18697   4.110   3.253   8.860  0.3064  1.0247 -0.0737
  166SOPE  H16S18698   4.269   3.211   8.853 -0.7162 -0.0206  0.6657
  166SOPE  C21718699   4.232   3.356   8.694  0.4455  0.1890 -0.0447
  166SOPE  H17R18700   4.207   3.273   8.624 -0.3735  0.2012  0.2266
  166SOPE  H17S18701   4.338   3.378   8.667  0.4386  0.4825  0.1615
  166SOPE  C21818702   4.142   3.473   8.653 -0.0983 -0.2561  0.3724
  166SOPE  H18R18703   4.063   3.499   8.727  0.2598 -0.7307  0.9312
  166SOPE  H18S18704   4.084   3.449   8.562  0.8450 -5.6990  0.8740
  166SOPE  H18T18705   4.200   3.567   8.657  1.6799 -1.3395  1.2683
  166SOPE   C3318706   4.472   3.109  10.386  0.3336 -0.1067 -0.0767
  166SOPE   H3X18707   4.432   3.012  10.422 -0.4469 -0.3500 -1.5101
  166SOPE   H3Y18708   4.576   3.086  10.352  0.3416  2.4476 -2.0304
  166SOPE   C3418709   4.383   3.156  10.266  0.0655 -0.0991 -0.6943
  166SOPE   H4X18710   4.393   3.266  10.262 -0.5404  0.1861  2.4857
  166SOPE   H4Y18711   4.276   3.142  10.293  1.3059  0.0436  6.1668
  166SOPE   C3518712   4.414   3.101  10.124 -0.1778 -0.4284 -0.1851
  166SOPE   H5X18713   4.496   3.163  10.082  1.5598 -0.4188  2.9205
  166SOPE   H5Y18714   4.326   3.127  10.062 -0.6601  2.0621  1.4232
  166SOPE   C3618715   4.439   2.953  10.107  0.2478  0.6370  0.1764
  166SOPE   H6X18716   4.366   2.880  10.150  2.6031 -1.4116  0.9173
  166SOPE   H6Y18717   4.533   2.921  10.156  0.0494 -1.4850 -0.6942
  166SOPE   C3718718   4.438   2.930   9.954  0.0780  0.1278 -0.3932
  166SOPE   H7X18719   4.517   2.995   9.909  0.1716 -0.2723 -0.8141
  166SOPE   H7Y18720   4.337   2.961   9.920 -0.4822 -0.8520  0.3574
  166SOPE   C3818721   4.456   2.785   9.906  0.2539  0.2419  0.1948
  166SOPE   H8X18722   4.371   2.721   9.939 -1.0600  1.6732 -0.3003
  166SOPE   H8Y18723   4.536   2.746   9.972  1.6595  1.9209 -0.4288
  166SOPE   C3918724   4.478   2.772   9.755 -0.8550  0.0028 -0.4268
  166SOPE   H9X18725   4.580   2.808   9.728 -0.0859 -1.6540  0.0964
  166SOPE   H9Y18726   4.405   2.819   9.686 -2.7177 -2.4551 -0.2829
  166SOPE  C31018727   4.481   2.622   9.715  0.1559 -0.1326 -0.1933
  166SOPE  H10X18728   4.385   2.568   9.725  0.4933 -0.3111  2.8206
  166SOPE  H10Y18729   4.548   2.561   9.779  0.7053 -1.4012 -1.8907
  166SOPE  C31118730   4.506   2.609   9.564 -0.2351 -0.8805  0.3829
  166SOPE  H11X18731   4.601   2.662   9.543 -1.7867  2.0159  0.1794
  166SOPE  H11Y18732   4.425   2.655   9.503 -0.8046 -1.3226  0.7951
  166SOPE  C31218733   4.521   2.466   9.502  0.3063  0.1140  0.2194
  166SOPE  H12X18734   4.427   2.413   9.529  0.5135 -0.1561  0.4151
  166SOPE  H12Y18735   4.592   2.396   9.552 -0.8911 -0.7157  0.8232
  166SOPE  C31318736   4.554   2.470   9.350  0.0704 -0.4132  0.4108
  166SOPE  H13X18737   4.555   2.368   9.307 -0.5518  0.0058 -0.6328
  166SOPE  H13Y18738   4.661   2.498   9.342 -0.4466  1.5172 -0.3643
  166SOPE  C31418739   4.464   2.555   9.259  0.5048 -0.1369  0.2936
  166SOPE  H14X18740   4.499   2.661   9.253  1.6130 -0.4955  0.1862
  166SOPE  H14Y18741   4.362   2.559   9.302  0.0742  2.0374 -0.7711
  166SOPE  C31518742   4.460   2.491   9.112  0.0450 -0.1054 -0.3917
  166SOPE  H15X18743   4.436   2.382   9.115 -0.9690  0.0843  2.6812
  166SOPE  H15Y18744   4.562   2.505   9.072 -0.4064 -0.3612 -1.6755
  166SOPE  C31618745   4.368   2.565   9.012  0.1655  0.4908  0.2599
  166SOPE  H16X18746   4.395   2.673   9.020  2.3430 -0.0666  1.1270
  166SOPE  H16Y18747   4.262   2.556   9.042 -0.2457  0.4193 -1.1345
  166SOPE  C31718748   4.369   2.521   8.859 -0.4910 -0.0831 -0.5307
  166SOPE  H17X18749   4.351   2.412   8.848 -2.3939  0.1848 -0.5628
  166SOPE  H17Y18750   4.467   2.538   8.811 -0.2621  0.2348  0.0352
  166SOPE  C31818751   4.272   2.604   8.781  0.1367 -0.0784  0.1824
  166SOPE  H18X18752   4.300   2.710   8.771  0.0040  0.0291  0.8697
  166SOPE  H18Y18753   4.173   2.594   8.832  0.1968  0.1404  0.3445
  166SOPE  H18Z18754   4.254   2.551   8.685 -0.3598 -4.4439  2.4341
  167SOPE     N18755   6.634   0.167   6.103  0.1270 -0.5075  0.3721
  167SOPE   HN118756   6.694   0.248   6.129 -2.0659  1.4435 -0.2943
  167SOPE   HN218757   6.689   0.116   6.031 -0.4359  0.7088 -0.9460
  167SOPE   HN318758   6.548   0.204   6.058 -0.3912 -1.1041  0.8479
  167SOPE   C1218759   6.589   0.068   6.214 -0.1875 -0.6033  0.0378
  167SOPE  H12A18760   6.685   0.026   6.252 -1.6505 -2.0109  2.4395
  167SOPE  H12B18761   6.522  -0.004   6.163  0.5792 -1.8805  0.7697
  167SOPE   C1118762   6.505   0.151   6.321 -1.1708  0.0453  0.4558
  167SOPE  H11A18763   6.585   0.205   6.377 -1.4307 -1.5093  2.4516
  167SOPE  H11B18764   6.449   0.085   6.391 -0.4421  0.5707  1.5609
  167SOPE     P18765   6.320   0.329   6.339  0.0945 -0.0880 -0.2176
  167SOPE   O1318766   6.194   0.253   6.371  0.3585  0.4096  0.1387
  167SOPE   O1418767   6.295   0.459   6.273  0.3615 -0.0411 -0.1111
  167SOPE   O1218768   6.424   0.241   6.251 -0.2804 -0.3924 -0.1047
  167SOPE   O1118769   6.392   0.357   6.477  0.0068 -0.1565  0.5811
  167SOPE    C118770   6.506   0.453   6.481 -0.0647 -0.1722  0.4243
  167SOPE    HA18771   6.519   0.511   6.387  1.9126  1.6447  1.7114
  167SOPE    HB18772   6.604   0.399   6.482 -1.0713 -2.1163 -0.1772
  167SOPE    C218773   6.496   0.558   6.593 -0.2956  0.5667 -0.3727
  167SOPE    HS18774   6.594   0.608   6.605 -0.3204  0.8830 -1.4173
  167SOPE   O2118775   6.453   0.489   6.717 -0.0102 -0.6882  0.9687
  167SOPE   C2118776   6.528   0.398   6.767 -0.0742  0.5344  0.7613
  167SOPE   O2218777   6.638   0.369   6.728  0.2670  0.0409 -0.1093
  167SOPE   C2218778   6.455   0.321   6.882 -0.0716 -0.1849 -0.0263
  167SOPE   H2R18779   6.429   0.222   6.838 -1.3272 -0.2289  0.7484
  167SOPE   H2S18780   6.360   0.374   6.904 -0.0287 -0.4249  0.7843
  167SOPE    C318781   6.402   0.680   6.560  0.1040  0.3690  0.3478
  167SOPE    HX18782   6.302   0.642   6.531 -0.4127  1.1921  1.0023
  167SOPE    HY18783   6.443   0.724   6.467 -0.2448 -0.2521 -0.1078
  167SOPE   O3118784   6.385   0.763   6.673 -0.5180  0.6969 -0.2621
  167SOPE   C3118785   6.439   0.881   6.674 -1.0569  0.1637 -0.4200
  167SOPE   O3218786   6.511   0.929   6.592 -0.2592  0.4259  0.1504
  167SOPE   C3218787   6.391   0.950   6.799  0.3029 -0.1968 -0.6185
  167SOPE   H2X18788   6.415   0.882   6.883  0.2850 -0.6208 -0.9516
  167SOPE   H2Y18789   6.281   0.964   6.791  0.3287  1.7660  1.3496
  167SOPE   C2318790   6.530   0.304   7.020 -0.0991  0.2438 -0.0323
  167SOPE   H3R18791   6.588   0.398   7.033  1.9645 -0.6039 -2.2388
  167SOPE   H3S18792   6.614   0.231   7.012 -0.6694 -0.3325 -0.9442
  167SOPE   C2418793   6.436   0.284   7.140 -0.2434  0.2108  0.1153
  167SOPE   H4R18794   6.358   0.364   7.134  0.8944  1.4439  1.0445
  167SOPE   H4S18795   6.390   0.184   7.127 -0.4894  0.1469  1.3866
  167SOPE   C2518796   6.520   0.300   7.268  0.0209  0.1358 -1.1420
  167SOPE   H5R18797   6.609   0.233   7.273  0.8878  1.3506  0.4718
  167SOPE   H5S18798   6.562   0.403   7.270 -1.1448  0.6138 -0.1503
  167SOPE   C2618799   6.445   0.262   7.396  0.2177 -0.5010  0.2837
  167SOPE   H6R18800   6.342   0.305   7.397  0.1029 -0.6675  2.8738
  167SOPE   H6S18801   6.428   0.153   7.407  0.3273 -0.3480  2.3499
  167SOPE   C2718802   6.499   0.317   7.523  0.0043  0.0721  1.1038
  167SOPE   H7R18803   6.596   0.263   7.522 -0.5590 -1.1327 -2.1358
  167SOPE   H7S18804   6.522   0.426   7.514  1.7865 -0.3197  0.2826
  167SOPE   C2818805   6.419   0.287   7.652 -0.6116 -0.1551 -0.0054
  167SOPE   H8R18806   6.421   0.176   7.659 -0.2630 -0.0925  1.1588
  167SOPE   H8S18807   6.480   0.335   7.732  0.4508  0.5350 -1.1811
  167SOPE   C2918808   6.277   0.338   7.635  0.0501  0.1357  0.0349
  167SOPE   H9118809   6.224   0.273   7.565 -2.1197  1.2771  0.5356
  167SOPE  C21018810   6.224   0.460   7.671 -0.3921  0.0402 -0.3917
  167SOPE  H10118811   6.118   0.482   7.651 -0.2452  2.6854  1.2828
  167SOPE  C21118812   6.297   0.555   7.768  0.3828 -0.0561  0.0058
  167SOPE  H11R18813   6.271   0.660   7.743 -0.7054  0.2452  2.1128
  167SOPE  H11S18814   6.405   0.532   7.783  0.2722 -0.5411  0.0729
  167SOPE  C21218815   6.224   0.541   7.909 -0.1592  0.0272 -0.8933
  167SOPE  H12R18816   6.211   0.437   7.946 -0.6217  1.2030  2.5594
  167SOPE  H12S18817   6.121   0.572   7.882 -0.5444 -1.7926 -1.6375
  167SOPE  C21318818   6.286   0.641   8.010 -0.7292 -0.4290 -0.2162
  167SOPE  H13R18819   6.294   0.735   7.951  0.9574 -1.4904 -1.7568
  167SOPE  H13S18820   6.391   0.607   8.021 -0.4547  0.0789 -1.1836
  167SOPE  C21418821   6.207   0.651   8.137  1.1569 -0.0096 -0.7583
  167SOPE  H14R18822   6.161   0.554   8.165 -0.6391  1.1609  0.5392
  167SOPE  H14S18823   6.127   0.727   8.128  1.1055  1.3012  5.6548
  167SOPE  C21518824   6.308   0.686   8.243  0.4413 -0.6806 -0.2875
  167SOPE  H15R18825   6.340   0.788   8.213  1.6854 -1.4321 -1.6236
  167SOPE  H15S18826   6.403   0.629   8.238  0.8958  0.1329 -1.2426
  167SOPE  C21618827   6.230   0.687   8.369 -0.6942 -0.1855  0.0269
  167SOPE  H16R18828   6.234   0.583   8.407  1.0777 -0.3266 -0.4560
  167SOPE  H16S18829   6.123   0.703   8.342 -0.0558 -0.1518 -2.8548
  167SOPE  C21718830   6.293   0.773   8.485 -0.0139  0.4873  0.4376
  167SOPE  H17R18831   6.291   0.879   8.453  2.0740  0.4135 -0.0990
  167SOPE  H17S18832   6.396   0.731   8.492 -0.2633 -0.2057  0.0504
  167SOPE  C21818833   6.225   0.762   8.618 -0.2945 -0.3222  0.8006
  167SOPE  H18R18834   6.231   0.656   8.648  1.2272 -0.1798  1.0906
  167SOPE  H18S18835   6.119   0.795   8.612 -0.1070  0.0519 -1.4715
  167SOPE  H18T18836   6.262   0.831   8.697 -0.6923 -0.8892  1.4851
  167SOPE   C3318837   6.450   1.089   6.815  0.0943  0.3284  0.2653
  167SOPE   H3X18838   6.447   1.153   6.724 -0.8081 -0.3245 -0.1777
  167SOPE   H3Y18839   6.559   1.079   6.834  0.3358 -1.1624 -1.6206
  167SOPE   C3418840   6.394   1.165   6.937  0.2931  0.9096 -1.1228
  167SOPE   H4X18841   6.284   1.183   6.932  0.4062  3.7061  2.7535
  167SOPE   H4Y18842   6.437   1.266   6.949 -2.0570  1.7063  1.4675
  167SOPE   C3518843   6.425   1.079   7.063 -0.2437  0.4611  0.2032
  167SOPE   H5X18844   6.534   1.061   7.069  0.1993  2.5534 -0.6925
  167SOPE   H5Y18845   6.368   0.984   7.060 -0.7817  0.8060 -0.9130
  167SOPE   C3618846   6.387   1.149   7.185  0.2155  0.0445  0.6084
  167SOPE   H6X18847   6.279   1.171   7.170 -0.3345 -1.8655  1.5009
  167SOPE   H6Y18848   6.439   1.247   7.191 -1.5935  1.0812  0.1602
  167SOPE   C3718849   6.401   1.072   7.316 -1.1054 -0.6918 -0.4900
  167SOPE   H7X18850   6.506   1.056   7.347 -1.8664  0.0061  2.8144
  167SOPE   H7Y18851   6.350   0.975   7.299 -1.6535 -0.6658  0.9002
  167SOPE   C3818852   6.331   1.145   7.429  0.0323  0.7254  0.0567
  167SOPE   H8X18853   6.228   1.153   7.387  0.6193  0.9856 -1.4203
  167SOPE   H8Y18854   6.374   1.248   7.423 -1.5586  1.3312 -2.8418
  167SOPE   C3918855   6.352   1.074   7.561 -0.0946  0.9532 -0.2388
  167SOPE   H9X18856   6.462   1.056   7.559  0.0624  1.5275  1.7656
  167SOPE   H9Y18857   6.305   0.975   7.580  0.2267  1.3057  2.8294
  167SOPE  C31018858   6.303   1.158   7.675  0.7998 -0.7810 -0.0618
  167SOPE  H10X18859   6.192   1.156   7.669  0.7108  2.4545 -1.4706
  167SOPE  H10Y18860   6.319   1.266   7.655 -0.9600 -0.6136 -0.7035
  167SOPE  C31118861   6.357   1.115   7.816 -0.6689 -0.4345 -0.3498
  167SOPE  H11X18862   6.468   1.120   7.810 -0.7301 -0.4576 -2.1062
  167SOPE  H11Y18863   6.333   1.010   7.842  1.1498 -0.7806  0.0526
  167SOPE  C31218864   6.313   1.223   7.921  0.5466  0.2438 -0.8829
  167SOPE  H12X18865   6.205   1.246   7.921  0.1386 -1.3924  0.6843
  167SOPE  H12Y18866   6.364   1.320   7.901 -0.0934  1.0110  0.9894
  167SOPE  C31318867   6.339   1.176   8.062 -0.3970 -0.2258  0.3229
  167SOPE  H13X18868   6.449   1.187   8.075 -0.7282  0.9852  2.4529
  167SOPE  H13Y18869   6.308   1.074   8.092 -1.3891  0.1556  0.6351
  167SOPE  C31418870   6.276   1.269   8.159  0.5851 -0.3645 -0.6196
  167SOPE  H14X18871   6.166   1.256   8.151  0.5288 -1.3001  1.1544
  167SOPE  H14Y18872   6.295   1.375   8.131  2.5246 -0.8648 -1.3967
  167SOPE  C31518873   6.308   1.232   8.303  0.0455 -0.6442 -0.6952
  167SOPE  H15X18874   6.352   1.321   8.352 -0.3952 -0.0283 -1.4057
  167SOPE  H15Y18875   6.386   1.153   8.309  1.0298  0.4084  1.2120
  167SOPE  C31618876   6.188   1.185   8.384 -0.0685 -0.0161 -0.0912
  167SOPE  H16X18877   6.157   1.086   8.345  0.9917 -1.1660  1.8351
  167SOPE  H16Y18878   6.118   1.270   8.366 -0.0989 -0.0065  0.0699
  167SOPE  C31718879   6.224   1.174   8.532  0.3204  0.4134  0.6447
  167SOPE  H17X18880   6.261   1.272   8.568  2.6792 -0.4059  0.5831
  167SOPE  H17Y18881   6.311   1.105   8.539 -1.0103 -1.4514 -0.3859
  167SOPE  C31818882   6.104   1.136   8.623  1.1071 -0.2418  0.6704
  167SOPE  H18X18883   6.043   1.051   8.585  0.2967 -0.9035  3.2783
  167SOPE  H18Y18884   6.038   1.224   8.617  0.3186 -0.9012 -2.4292
  167SOPE  H18Z18885   6.131   1.119   8.729 -0.8280 -0.4704  1.1675
  168SOPE     N18886   2.879   6.344   6.299  0.2875 -0.1473  0.4433
  168SOPE   HN118887   2.785   6.370   6.335  0.6792  0.9247  0.7007
  168SOPE   HN218888   2.913   6.399   6.218 -1.4614 -0.7655 -0.7810
  168SOPE   HN318889   2.868   6.246   6.265  0.9504  0.4340 -1.5881
  168SOPE   C1218890   2.975   6.332   6.416  0.5736 -0.1993  0.3827
  168SOPE  H12A18891   2.929   6.265   6.491 -0.4740  0.2762  0.1879
  168SOPE  H12B18892   2.981   6.428   6.472 -1.3393 -0.9607  2.0174
  168SOPE   C1118893   3.124   6.293   6.379  0.1194  0.4402  0.3632
  168SOPE  H11A18894   3.200   6.328   6.453  0.6549 -0.9261  0.4838
  168SOPE  H11B18895   3.150   6.342   6.282  0.6820  0.7391  0.6581
  168SOPE     P18896   3.202   6.058   6.479  0.0104  0.1211 -0.0422
  168SOPE   O1318897   3.233   5.925   6.419  0.0085 -0.6143  0.6586
  168SOPE   O1418898   3.118   6.051   6.595  0.1323  0.0383  0.0992
  168SOPE   O1218899   3.137   6.149   6.367  0.2192  0.3018  0.4702
  168SOPE   O1118900   3.341   6.132   6.515  0.5243  0.2722  0.1302
  168SOPE    C118901   3.398   6.129   6.642  0.6578 -0.1187  0.0592
  168SOPE    HA18902   3.312   6.135   6.712  0.6093  0.4305 -0.0387
  168SOPE    HB18903   3.457   6.222   6.660  0.3502 -0.0504  0.7330
  168SOPE    C218904   3.488   6.009   6.661 -0.3037  1.1000  0.1410
  168SOPE    HS18905   3.427   5.917   6.655  3.4502 -1.5193 -2.1232
  168SOPE   O2118906   3.558   6.005   6.787 -0.0245  0.4247  0.2727
  168SOPE   C2118907   3.476   5.975   6.883  0.2783  0.4990 -1.2440
  168SOPE   O2218908   3.359   5.944   6.880  0.7405  0.1552  0.2125
  168SOPE   C2218909   3.564   5.996   7.012  0.6110  0.2110 -0.2695
  168SOPE   H2R18910   3.598   6.101   7.026 -1.7338  1.0327 -0.2928
  168SOPE   H2S18911   3.654   5.933   6.996  2.6509  2.9501 -0.4631
  168SOPE    C318912   3.585   5.983   6.541  0.6096  0.0337 -0.2683
  168SOPE    HX18913   3.527   5.999   6.448 -0.2400  1.2455  0.4436
  168SOPE    HY18914   3.611   5.875   6.550  1.4725  0.3170  0.9038
  168SOPE   O3118915   3.697   6.084   6.553  0.5262  0.4666  0.0634
  168SOPE   C3118916   3.823   6.027   6.561 -0.4020  0.1449  0.3042
  168SOPE   O3218917   3.842   5.906   6.558 -0.2373 -0.0786  0.0045
  168SOPE   C3218918   3.933   6.135   6.556 -0.3022  0.2156 -0.1317
  168SOPE   H2X18919   3.887   6.235   6.540 -0.6872  0.3918  1.8524
  168SOPE   H2Y18920   3.991   6.116   6.463 -0.6877  1.3722 -0.6243
  168SOPE   C2318921   3.488   5.966   7.140  0.6857 -0.2444  0.0259
  168SOPE   H3R18922   3.432   5.871   7.126  2.4306 -1.6455  2.1226
  168SOPE   H3S18923   3.407   6.036   7.173  1.4853  1.1736 -0.8998
  168SOPE   C2418924   3.577   5.947   7.263 -0.0434 -0.5203  0.1408
  168SOPE   H4R18925   3.643   5.858   7.261  0.4874 -0.1652  1.2405
  168SOPE   H4S18926   3.655   6.023   7.284  1.8547 -2.2551 -0.3134
  168SOPE   C2518927   3.495   5.930   7.393 -0.1007  0.3201 -0.4962
  168SOPE   H5R18928   3.410   6.001   7.400 -2.1184 -2.0604  0.5142
  168SOPE   H5S18929   3.455   5.826   7.392 -1.8218  0.8572  1.9216
  168SOPE   C2618930   3.582   5.940   7.521 -0.6985  0.3797  0.2576
  168SOPE   H6R18931   3.655   5.859   7.503 -0.9658 -0.0561  1.0434
  168SOPE   H6S18932   3.632   6.039   7.527 -0.2845  0.0846  2.4847
  168SOPE   C2718933   3.507   5.909   7.645 -0.0662 -0.2044 -0.4395
  168SOPE   H7R18934   3.413   5.968   7.650 -0.1320 -0.3797  0.8186
  168SOPE   H7S18935   3.483   5.803   7.667 -0.0478 -0.1027  0.0715
  168SOPE   C2818936   3.594   5.959   7.763 -0.3384  0.3139 -0.1667
  168SOPE   H8R18937   3.685   5.896   7.765  0.5931  1.6339  1.6570
  168SOPE   H8S18938   3.633   6.062   7.751  1.9078 -0.4881 -0.2192
  168SOPE   C2918939   3.518   5.947   7.892  0.3278 -0.4764  0.0895
  168SOPE   H9118940   3.423   6.001   7.890  0.8821  0.6061 -3.4228
  168SOPE  C21018941   3.536   5.865   7.994 -0.4270 -0.1451 -0.1465
  168SOPE  H10118942   3.470   5.886   8.080 -0.1697  1.1411 -0.2344
  168SOPE  C21118943   3.652   5.765   8.009 -0.1929 -0.6979  0.3897
  168SOPE  H11R18944   3.729   5.766   7.929  1.7650 -0.1568  2.1801
  168SOPE  H11S18945   3.613   5.661   8.011 -1.2793 -0.3073  0.4519
  168SOPE  C21218946   3.713   5.789   8.150  0.6278 -0.1807  0.1068
  168SOPE  H12R18947   3.631   5.785   8.224  0.8944 -2.5274  0.3641
  168SOPE  H12S18948   3.763   5.888   8.153  0.5584 -0.0792 -1.3350
  168SOPE  C21318949   3.814   5.678   8.198 -0.1826  0.0466 -0.1949
  168SOPE  H13R18950   3.894   5.659   8.123 -1.3881 -0.6504 -1.3573
  168SOPE  H13S18951   3.757   5.584   8.210 -0.0271 -0.2043 -1.2589
  168SOPE  C21418952   3.867   5.726   8.324 -0.4306 -0.2313 -0.3411
  168SOPE  H14R18953   3.786   5.780   8.377  0.3165 -1.1400  1.8216
  168SOPE  H14S18954   3.942   5.808   8.315 -1.4737  0.7339 -0.4170
  168SOPE  C21518955   3.925   5.625   8.424 -0.0901  1.1181  0.5582
  168SOPE  H15R18956   3.917   5.668   8.526  0.1514 -0.2025  1.1467
  168SOPE  H15S18957   4.024   5.595   8.383 -1.3430 -2.3944 -0.2574
  168SOPE  C21618958   3.834   5.499   8.432 -0.1159 -0.8840  0.0568
  168SOPE  H16R18959   3.836   5.458   8.329  1.4139  3.2707 -1.7704
  168SOPE  H16S18960   3.733   5.529   8.466 -0.5961 -1.2563 -1.0254
  168SOPE  C21718961   3.884   5.389   8.520  0.2865  0.6161  0.1954
  168SOPE  H17R18962   3.858   5.291   8.475  1.0139  1.2569 -1.7002
  168SOPE  H17S18963   3.831   5.391   8.618  0.6132 -1.4161  0.4551
  168SOPE  C21818964   4.036   5.389   8.540 -0.2988 -0.1389 -0.0256
  168SOPE  H18R18965   4.068   5.480   8.595 -0.6896 -0.6643  1.0995
  168SOPE  H18S18966   4.088   5.382   8.442  0.9137  0.2877  0.5664
  168SOPE  H18T18967   4.075   5.298   8.591 -1.4645 -0.7277 -0.1470
  168SOPE   C3318968   4.015   6.145   6.681 -0.5853  0.4284  0.2438
  168SOPE   H3X18969   4.103   6.211   6.667  2.0383 -2.7234  0.6566
  168SOPE   H3Y18970   4.051   6.045   6.715 -1.3358  0.4208  1.0505
  168SOPE   C3418971   3.928   6.200   6.801 -0.0703  0.1532  0.1082
  168SOPE   H4X18972   3.826   6.160   6.820  0.4416 -1.2690 -0.0165
  168SOPE   H4Y18973   3.913   6.309   6.795  1.2435  0.3555  0.1682
  168SOPE   C3518974   4.001   6.174   6.933 -0.7220 -0.4933 -0.6233
  168SOPE   H5X18975   4.102   6.220   6.927 -0.7504 -0.2200  0.6435
  168SOPE   H5Y18976   4.013   6.070   6.971 -2.1155  0.4582  2.7952
  168SOPE   C3618977   3.924   6.241   7.044  0.6447  0.0488 -0.0237
  168SOPE   H6X18978   3.826   6.189   7.047  0.8907 -0.4406 -0.4320
  168SOPE   H6Y18979   3.905   6.351   7.037  1.8073  0.3860  1.6445
  168SOPE   C3718980   3.988   6.212   7.178 -0.3607  0.2374  0.3146
  168SOPE   H7X18981   4.068   6.287   7.195 -0.5245  0.5019 -0.0661
  168SOPE   H7Y18982   4.053   6.121   7.179 -0.0908  0.4321  0.8946
  168SOPE   C3818983   3.893   6.207   7.296 -0.0123 -0.6781 -0.6285
  168SOPE   H8X18984   3.814   6.130   7.285 -1.9819  1.0319  0.5927
  168SOPE   H8Y18985   3.834   6.301   7.303 -1.1888 -1.5279  2.4154
  168SOPE   C3918986   3.974   6.197   7.425 -0.3007  0.0592  0.8623
  168SOPE   H9X18987   4.063   6.262   7.410  0.1176 -0.8992 -1.1172
  168SOPE   H9Y18988   4.004   6.091   7.423 -1.0654 -0.1920  1.7609
  168SOPE  C31018989   3.901   6.239   7.551 -0.2964  0.2502  0.0566
  168SOPE  H10X18990   3.813   6.170   7.551 -0.5829  0.6151 -0.1877
  168SOPE  H10Y18991   3.856   6.341   7.552  0.1842  0.4697  1.5332
  168SOPE  C31118992   3.984   6.233   7.675 -0.4167  0.5375 -0.2174
  168SOPE  H11X18993   4.067   6.305   7.661  1.2628 -1.0114  1.3152
  168SOPE  H11Y18994   4.021   6.129   7.690  0.5005  0.6171 -1.7671
  168SOPE  C31218995   3.909   6.281   7.799  0.5798  0.2069  0.2079
  168SOPE  H12X18996   3.819   6.218   7.818  2.1645 -2.3066 -0.0612
  168SOPE  H12Y18997   3.882   6.388   7.790 -0.9382 -0.1469  0.3070
  168SOPE  C31318998   4.007   6.275   7.920  0.1686 -0.1869 -0.9804
  168SOPE  H13X18999   4.105   6.322   7.895  0.2890  1.8446  2.5472
  168SOPE  H13Y19000   4.026   6.169   7.949 -0.3962  0.2414  1.1086
  168SOPE  C31419001   3.961   6.371   8.036 -0.0283 -0.1796  0.0637
  168SOPE  H14X19002   3.864   6.331   8.073 -1.0698 -0.0349 -2.2804
  168SOPE  H14Y19003   3.933   6.472   7.999 -2.0608 -0.5622  0.4337
  168SOPE  C31519004   4.056   6.391   8.155  0.1282  0.1628 -0.2305
  168SOPE  H15X19005   4.156   6.414   8.114 -0.0010 -0.6412 -1.0504
  168SOPE  H15Y19006   4.068   6.299   8.216 -3.3223  1.3418  2.5703
  168SOPE  C31619007   4.002   6.494   8.260 -0.0533 -0.5750  0.2174
  168SOPE  H16X19008   3.895   6.466   8.267 -1.2901  3.9511  3.3683
  168SOPE  H16Y19009   4.018   6.594   8.214 -0.2039 -0.2190  0.9332
  168SOPE  C31719010   4.074   6.486   8.388 -0.1327  0.2333  0.1755
  168SOPE  H17X19011   4.042   6.389   8.432  0.0160 -0.3055 -0.8713
  168SOPE  H17Y19012   4.034   6.561   8.459  2.1544  1.4298  0.3067
  168SOPE  C31819013   4.226   6.512   8.372 -0.3024 -0.0160 -0.0948
  168SOPE  H18X19014   4.284   6.520   8.466 -1.9731  1.0221  0.9000
  168SOPE  H18Y19015   4.230   6.606   8.313 -0.0744  0.5096  0.7571
  168SOPE  H18Z19016   4.276   6.428   8.318 -0.3450  0.5836 -1.1003
  169SOPE     N19017   3.285   3.414   6.104 -0.1202  0.2942 -0.1168
  169SOPE   HN119018   3.250   3.320   6.130 -0.5197  0.1980 -0.9680
  169SOPE   HN219019   3.224   3.458   6.032  0.9029  0.7167 -0.7530
  169SOPE   HN319020   3.380   3.399   6.064 -0.2907 -2.0212  0.2101
  169SOPE   C1219021   3.286   3.487   6.235 -0.1312 -0.4799  0.0686
  169SOPE  H12A19022   3.181   3.488   6.272 -2.0665 -3.4566 -4.3832
  169SOPE  H12B19023   3.331   3.587   6.218  1.2270 -1.1951 -0.7860
  169SOPE   C1119024   3.379   3.421   6.342 -0.0551  0.5171  0.2529
  169SOPE  H11A19025   3.323   3.331   6.376 -2.0738  0.8237 -1.9236
  169SOPE  H11B19026   3.394   3.480   6.435  2.1859 -2.0826  1.6716
  169SOPE     P19027   3.626   3.465   6.294 -0.0283 -0.1038 -0.2431
  169SOPE   O1319028   3.584   3.591   6.228 -0.0647 -0.2794  0.5038
  169SOPE   O1419029   3.748   3.398   6.255 -0.1560  0.1704 -0.1750
  169SOPE   O1219030   3.499   3.370   6.279 -0.6811  0.2829 -0.4853
  169SOPE   O1119031   3.641   3.499   6.442  0.1381  0.0019 -1.0904
  169SOPE    C119032   3.609   3.635   6.497  0.3623  0.3349  0.3859
  169SOPE    HA19033   3.580   3.637   6.604  2.1673 -0.6577  0.9254
  169SOPE    HB19034   3.518   3.671   6.443 -0.8892 -1.2526  1.3699
  169SOPE    C219035   3.726   3.730   6.483  0.8207  0.8227  0.0176
  169SOPE    HS19036   3.765   3.723   6.379  1.4949  0.9590  0.2554
  169SOPE   O2119037   3.813   3.688   6.592  0.4473 -0.0799 -0.3126
  169SOPE   C2119038   3.937   3.744   6.595 -0.3387  0.1360 -0.4286
  169SOPE   O2219039   3.976   3.812   6.502  0.0773  0.0614 -0.2585
  169SOPE   C2219040   4.007   3.711   6.727  0.5259 -0.3160  0.0105
  169SOPE   H2R19041   4.113   3.745   6.720  0.4375 -0.1938 -0.8760
  169SOPE   H2S19042   4.010   3.602   6.748 -1.6262 -0.3432  0.3409
  169SOPE    C319043   3.688   3.880   6.496  0.0780  0.1215 -0.1196
  169SOPE    HX19044   3.624   3.909   6.410  1.2764  3.4471 -0.0468
  169SOPE    HY19045   3.784   3.935   6.481  0.4061 -0.2448  0.5912
  169SOPE   O3119046   3.619   3.894   6.620  0.1438 -0.1402  0.0897
  169SOPE   C3119047   3.664   3.996   6.701 -0.4348 -0.5199  0.0001
  169SOPE   O3219048   3.757   4.069   6.676 -0.5465 -0.0084  0.9072
  169SOPE   C3219049   3.576   4.020   6.827  0.0114 -0.6131 -0.6683
  169SOPE   H2X19050   3.500   3.939   6.822  0.7981 -1.2819 -2.2003
  169SOPE   H2Y19051   3.528   4.121   6.818  0.8011 -0.1793 -0.1287
  169SOPE   C2319052   3.932   3.786   6.849 -0.1234 -1.0248  0.4151
  169SOPE   H3R19053   3.823   3.763   6.847 -0.3264 -0.1204  0.6791
  169SOPE   H3S19054   3.926   3.895   6.826 -0.6720 -0.7411  1.8303
  169SOPE   C2419055   3.998   3.767   6.981  0.8639  0.1652 -0.0310
  169SOPE   H4R19056   4.025   3.663   7.009 -2.7824 -0.3944  2.0136
  169SOPE   H4S19057   4.095   3.821   6.975  1.4654 -0.0762  4.2309
  169SOPE   C2519058   3.921   3.817   7.109 -0.0428 -0.1134 -0.2325
  169SOPE   H5R19059   3.918   3.928   7.108 -1.2497 -0.1315  0.1424
  169SOPE   H5S19060   3.821   3.768   7.105 -0.0256 -0.0968 -1.1705
  169SOPE   C2619061   3.994   3.782   7.236 -0.3966 -0.7060  0.4915
  169SOPE   H6R19062   4.032   3.681   7.212 -1.3199 -1.2517  1.2514
  169SOPE   H6S19063   4.074   3.858   7.247 -0.0231 -1.1663  0.9916
  169SOPE   C2719064   3.915   3.766   7.365  0.7661 -0.1497 -0.2668
  169SOPE   H7R19065   3.871   3.865   7.391  0.8296  0.2262 -1.5310
  169SOPE   H7S19066   3.842   3.684   7.350  0.8953 -0.7901  2.1496
  169SOPE   C2819067   4.008   3.721   7.474 -0.6142  0.1082 -0.0578
  169SOPE   H8R19068   3.948   3.685   7.561 -1.9896  0.3974 -0.8461
  169SOPE   H8S19069   4.063   3.631   7.439  0.3107 -0.0533  1.6905
  169SOPE   C2919070   4.103   3.827   7.524 -0.0324  0.6225 -0.1527
  169SOPE   H9119071   4.200   3.846   7.475  1.0265  0.5257  1.8079
  169SOPE  C21019072   4.083   3.907   7.628 -0.4377  0.0892  0.1632
  169SOPE  H10119073   4.162   3.980   7.654 -0.0753 -0.3421  0.2870
  169SOPE  C21119074   3.960   3.909   7.717  0.9076  0.5634 -0.1008
  169SOPE  H11R19075   3.875   3.860   7.664  0.0110  2.3217 -0.3433
  169SOPE  H11S19076   3.930   4.014   7.737 -0.2896  0.3083 -0.4458
  169SOPE  C21219077   3.976   3.818   7.841 -0.6899 -0.3435 -0.3046
  169SOPE  H12R19078   4.038   3.730   7.814 -0.1418  0.1724 -0.7542
  169SOPE  H12S19079   3.877   3.777   7.871 -0.6705  0.6577  1.2626
  169SOPE  C21319080   4.031   3.882   7.971 -0.6014  0.0680 -0.2377
  169SOPE  H13R19081   4.138   3.910   7.971 -0.8760  1.2204  0.7491
  169SOPE  H13S19082   4.007   3.808   8.051 -2.0360  0.8253  0.0846
  169SOPE  C21419083   3.944   4.000   8.011 -0.3427  0.4366  0.0459
  169SOPE  H14R19084   3.848   3.999   7.956  0.9029 -0.9777 -2.3027
  169SOPE  H14S19085   3.983   4.094   7.967  1.9342 -1.2894 -1.9751
  169SOPE  C21519086   3.933   4.022   8.164  1.2733  0.0309  0.3023
  169SOPE  H15R19087   4.039   4.034   8.197  2.1080 -0.3821 -1.9905
  169SOPE  H15S19088   3.901   3.922   8.201 -0.4577  0.2439 -0.5415
  169SOPE  C21619089   3.828   4.130   8.190  0.1089 -0.5137 -0.0250
  169SOPE  H16R19090   3.723   4.106   8.163 -0.0394 -1.5094  1.2863
  169SOPE  H16S19091   3.856   4.221   8.134 -0.7267 -0.1594  0.1211
  169SOPE  C21719092   3.827   4.144   8.345  0.5500 -0.5871  0.1547
  169SOPE  H17R19093   3.934   4.145   8.375  0.5746  0.5314  0.0805
  169SOPE  H17S19094   3.768   4.057   8.382 -2.3134  1.8874  1.9390
  169SOPE  C21819095   3.751   4.273   8.405  0.1032  1.3237  0.5531
  169SOPE  H18R19096   3.747   4.277   8.516 -1.9428  1.6849  0.5022
  169SOPE  H18S19097   3.649   4.264   8.363  0.1486 -0.1290  0.7188
  169SOPE  H18T19098   3.798   4.359   8.353  1.3898  0.0859 -0.4230
  169SOPE   C3319099   3.643   4.011   6.970 -0.0453 -0.8155  0.1466
  169SOPE   H3X19100   3.694   4.110   6.968  1.9257 -1.7541 -3.3862
  169SOPE   H3Y19101   3.717   3.930   6.960  0.4666 -0.2342 -0.9970
  169SOPE   C3419102   3.542   3.994   7.084  0.3399  0.3901  0.0950
  169SOPE   H4X19103   3.498   3.893   7.068 -1.7986  1.5564 -1.9046
  169SOPE   H4Y19104   3.461   4.067   7.066 -0.5942 -0.9363 -1.3924
  169SOPE   C3519105   3.599   4.020   7.227  0.0847  0.2842 -0.1332
  169SOPE   H5X19106   3.634   4.124   7.246 -0.3058  0.3476  0.2676
  169SOPE   H5Y19107   3.683   3.949   7.242  0.0841  0.3747  0.3287
  169SOPE   C3619108   3.499   3.991   7.341  0.2713  0.4543 -0.3285
  169SOPE   H6X19109   3.454   3.890   7.333 -2.3774  1.2856  2.1905
  169SOPE   H6Y19110   3.415   4.063   7.332 -0.1260 -0.1244 -1.3621
  169SOPE   C3719111   3.567   3.996   7.480  0.4386  0.0745  0.4977
  169SOPE   H7X19112   3.589   4.103   7.503 -1.0577 -0.0875  3.0859
  169SOPE   H7Y19113   3.657   3.931   7.476  0.2731 -0.0867 -2.2019
  169SOPE   C3819114   3.474   3.957   7.592 -0.5186  0.2103  0.2014
  169SOPE   H8X19115   3.376   4.008   7.578 -0.8214 -0.5471 -0.5468
  169SOPE   H8Y19116   3.451   3.849   7.582  0.0505 -0.0398  1.4050
  169SOPE   C3919117   3.538   3.986   7.727 -0.3029  0.0162 -0.2158
  169SOPE   H9X19118   3.563   4.095   7.731 -0.3846  0.1995 -2.6776
  169SOPE   H9Y19119   3.637   3.935   7.730  0.1821  0.5067 -3.6519
  169SOPE  C31019120   3.458   3.954   7.851 -0.0683 -0.5852 -0.3472
  169SOPE  H10X19121   3.425   3.849   7.842 -0.7638 -0.3141 -1.1640
  169SOPE  H10Y19122   3.380   4.033   7.864 -0.4380 -0.7714 -1.3686
  169SOPE  C31119123   3.545   3.954   7.976 -0.6930  0.3248  0.3975
  169SOPE  H11X19124   3.615   4.040   7.980 -0.2951  0.7697 -6.1218
  169SOPE  H11Y19125   3.617   3.870   7.966  1.7057  1.9554  2.7108
  169SOPE  C31219126   3.473   3.940   8.113 -0.1256 -0.3459  0.7583
  169SOPE  H12X19127   3.551   3.923   8.191  0.2775  1.4912  0.8069
  169SOPE  H12Y19128   3.397   3.861   8.126 -2.5140  1.6807 -0.1145
  169SOPE  C31319129   3.402   4.061   8.153  0.1889 -0.6159  0.1147
  169SOPE  H13X19130   3.312   4.069   8.089  0.1666  0.9354  0.2926
  169SOPE  H13Y19131   3.457   4.154   8.126  0.0310 -0.5491  0.0278
  169SOPE  C31419132   3.369   4.060   8.299 -0.1181  0.4301  0.5982
  169SOPE  H14X19133   3.463   4.045   8.356  0.8610 -0.9060 -1.2697
  169SOPE  H14Y19134   3.307   3.969   8.316 -1.1960  0.6877 -1.5807
  169SOPE  C31519135   3.278   4.184   8.331  0.2247 -0.4426 -0.0988
  169SOPE  H15X19136   3.215   4.212   8.244 -0.3640 -1.4873 -0.0158
  169SOPE  H15Y19137   3.349   4.263   8.366  1.4592 -0.6027 -2.0325
  169SOPE  C31619138   3.176   4.156   8.440 -0.1516 -0.3824  0.0092
  169SOPE  H16X19139   3.125   4.061   8.414 -3.0323  0.6007  1.6283
  169SOPE  H16Y19140   3.110   4.243   8.461 -0.1504 -0.3795  0.0011
  169SOPE  C31719141   3.235   4.116   8.574  0.0109 -0.2468 -0.3402
  169SOPE  H17X19142   3.290   4.201   8.620 -1.8657  0.4974  0.6229
  169SOPE  H17Y19143   3.305   4.032   8.551  0.4985 -0.0520  0.3977
  169SOPE  C31819144   3.138   4.054   8.669  0.2203 -0.1378  0.1593
  169SOPE  H18X19145   3.097   3.965   8.616 -1.5589  1.7501 -1.8205
  169SOPE  H18Y19146   3.050   4.119   8.689 -1.0978 -1.8262  0.0669
  169SOPE  H18Z19147   3.182   4.012   8.762 -0.6978  1.9670  1.6373
  170SOPE     N19148   4.841   4.782   6.158  0.2706 -0.4161 -0.1730
  170SOPE   HN119149   4.922   4.722   6.184  0.3449  0.1234  0.9137
  170SOPE   HN219150   4.764   4.760   6.224  1.4415  0.0449  1.4360
  170SOPE   HN319151   4.801   4.764   6.064  1.6107  0.4928 -0.9532
  170SOPE   C1219152   4.892   4.922   6.188 -0.0054 -0.3221  1.1368
  170SOPE  H12A19153   4.933   4.919   6.292  0.3199 -3.6509  1.0171
  170SOPE  H12B19154   4.807   4.992   6.172 -0.0793 -0.1697  2.0969
  170SOPE   C1119155   5.006   4.969   6.088  0.6259  0.4978  0.1473
  170SOPE  H11A19156   5.000   5.080   6.085 -1.4501  0.4542  0.9720
  170SOPE  H11B19157   4.987   4.934   5.984 -1.2004 -1.8481  1.1679
  170SOPE     P19158   5.248   5.018   6.154  0.3464  0.1337  0.2788
  170SOPE   O1319159   5.254   5.116   6.040  0.0645 -0.1870  0.2373
  170SOPE   O1419160   5.366   4.942   6.177 -0.1087 -0.3664 -0.1845
  170SOPE   O1219161   5.132   4.915   6.126  0.3021  0.3135  0.1054
  170SOPE   O1119162   5.205   5.089   6.287  0.0134  0.3994  0.0383
  170SOPE    C119163   5.174   5.029   6.414 -0.1568  0.3856  0.6849
  170SOPE    HA19164   5.190   4.920   6.404  1.2820  0.5695  0.6628
  170SOPE    HB19165   5.074   5.069   6.441  0.2228  2.3433 -0.5385
  170SOPE    C219166   5.278   5.090   6.513  0.6463 -0.0133 -0.3510
  170SOPE    HS19167   5.373   5.073   6.457  1.1100  0.4046  0.2889
  170SOPE   O2119168   5.266   5.026   6.645  0.0265  0.1043 -0.3895
  170SOPE   C2119169   5.375   4.992   6.705 -0.6075  0.3372 -0.0116
  170SOPE   O2219170   5.491   4.988   6.659 -0.2382 -0.2021  0.3561
  170SOPE   C2219171   5.345   4.951   6.853  0.0607 -0.0069  0.2842
  170SOPE   H2R19172   5.385   4.847   6.856  1.0081  0.3402  0.0759
  170SOPE   H2S19173   5.238   4.930   6.872  0.5332 -3.7541 -0.4641
  170SOPE    C319174   5.267   5.244   6.511 -0.5945  0.7038 -0.3091
  170SOPE    HX19175   5.178   5.279   6.567  0.2158  3.3151 -0.5421
  170SOPE    HY19176   5.271   5.284   6.407  1.1425  1.5411  0.0425
  170SOPE   O3119177   5.375   5.311   6.576  0.8179  0.3329 -0.3515
  170SOPE   C3119178   5.485   5.320   6.510 -0.2137 -0.6738 -0.0305
  170SOPE   O3219179   5.507   5.286   6.392  0.0295 -0.3083  0.4517
  170SOPE   C3219180   5.593   5.384   6.604 -0.5121  0.2243  0.1721
  170SOPE   H2X19181   5.580   5.492   6.581 -2.8301 -0.7098 -3.8829
  170SOPE   H2Y19182   5.695   5.355   6.570 -0.9963 -0.2006 -0.9833
  170SOPE   C2319183   5.404   5.048   6.953 -0.4022 -0.3189  0.0689
  170SOPE   H3R19184   5.385   5.151   6.917 -0.5943  0.6451  2.7300
  170SOPE   H3S19185   5.514   5.031   6.950 -0.1672  1.0379  0.2389
  170SOPE   C2419186   5.357   5.029   7.098  0.5759 -0.8135  0.2145
  170SOPE   H4R19187   5.247   5.019   7.107  0.2449  0.2031 -1.9807
  170SOPE   H4S19188   5.414   4.937   7.125  2.7754  0.1752 -0.7955
  170SOPE   C2519189   5.401   5.144   7.190 -0.0793 -0.2312 -0.1848
  170SOPE   H5R19190   5.510   5.142   7.213  0.3086  0.1740 -1.8042
  170SOPE   H5S19191   5.393   5.236   7.128  0.4074  0.6915  1.0616
  170SOPE   C2619192   5.322   5.159   7.317  0.1633  0.3415 -0.4323
  170SOPE   H6R19193   5.343   5.256   7.367 -0.2326  1.7647 -2.8926
  170SOPE   H6S19194   5.212   5.159   7.302  0.0381  0.7222  0.4080
  170SOPE   C2719195   5.346   5.040   7.421 -0.0709 -0.8430  0.6722
  170SOPE   H7R19196   5.287   4.952   7.389  1.8642 -1.5116 -1.3303
  170SOPE   H7S19197   5.454   5.019   7.436  0.3464  0.0056 -0.8845
  170SOPE   C2819198   5.290   5.072   7.556 -0.0417 -0.7545  0.0360
  170SOPE   H8R19199   5.328   5.174   7.580 -1.9220 -0.5340  2.4315
  170SOPE   H8S19200   5.182   5.086   7.537 -0.0083 -2.0404 -1.2511
  170SOPE   C2919201   5.319   4.974   7.665  0.7081  0.6121  0.5608
  170SOPE   H9119202   5.264   4.880   7.650  1.4731  0.5226 -2.5243
  170SOPE  C21019203   5.395   4.988   7.773  0.0540 -0.3786 -0.0645
  170SOPE  H10119204   5.407   4.897   7.835  0.7761  0.8159  1.6517
  170SOPE  C21119205   5.483   5.100   7.809 -0.6003 -0.3006  0.4246
  170SOPE  H11R19206   5.507   5.165   7.723 -2.6559  1.0074  0.7697
  170SOPE  H11S19207   5.579   5.059   7.848 -1.0148  0.5277  2.4721
  170SOPE  C21219208   5.421   5.210   7.902 -0.0927  0.5982 -0.2269
  170SOPE  H12R19209   5.319   5.234   7.866  0.5846  1.0115 -1.9459
  170SOPE  H12S19210   5.477   5.307   7.900  0.5400  0.3291  1.6449
  170SOPE  C21319211   5.417   5.158   8.051 -0.6305  0.2667 -0.5555
  170SOPE  H13R19212   5.522   5.148   8.086 -0.0211  2.9979 -1.3311
  170SOPE  H13S19213   5.372   5.056   8.050 -0.4706  0.0091  3.6412
  170SOPE  C21419214   5.319   5.245   8.131 -0.4554 -0.3078 -0.5101
  170SOPE  H14R19215   5.270   5.186   8.212 -4.2912  1.2800 -1.4213
  170SOPE  H14S19216   5.229   5.262   8.068 -0.1487 -2.0319 -1.4590
  170SOPE  C21519217   5.398   5.365   8.181  1.0762 -0.6863  0.0856
  170SOPE  H15R19218   5.339   5.458   8.201  1.6679 -0.3567  0.3330
  170SOPE  H15S19219   5.470   5.400   8.104  1.2752  0.7275  0.8768
  170SOPE  C21619220   5.490   5.332   8.300  0.3247  1.0061  0.1417
  170SOPE  H16R19221   5.547   5.425   8.323  0.7207  0.8052 -0.0234
  170SOPE  H16S19222   5.565   5.258   8.266 -0.6763  0.7687 -1.6709
  170SOPE  C21719223   5.414   5.278   8.426 -1.0378  0.2649 -0.3692
  170SOPE  H17R19224   5.359   5.184   8.405  0.0861 -0.9547  1.7479
  170SOPE  H17S19225   5.334   5.350   8.455 -1.2848  0.0004 -0.3847
  170SOPE  C21819226   5.506   5.245   8.550 -0.2630  0.0811  0.0584
  170SOPE  H18R19227   5.582   5.166   8.535  0.0803  0.4971 -0.4292
  170SOPE  H18S19228   5.445   5.217   8.639 -1.4952  1.2637 -0.3817
  170SOPE  H18T19229   5.565   5.337   8.570 -0.6355  0.9767 -2.5987
  170SOPE   C3319230   5.558   5.374   6.759  0.6825  1.0290 -0.0164
  170SOPE   H3X19231   5.504   5.283   6.793  0.6858  1.3286  0.7878
  170SOPE   H3Y19232   5.488   5.453   6.794  0.2238 -0.3738  2.4272
  170SOPE   C3419233   5.685   5.385   6.845 -0.0038 -0.2995  0.6658
  170SOPE   H4X19234   5.724   5.486   6.821 -0.2169 -0.5801 -1.0369
  170SOPE   H4Y19235   5.761   5.310   6.814 -1.4535 -2.5608  2.2982
  170SOPE   C3519236   5.652   5.374   6.993 -0.1286  0.1946 -0.2355
  170SOPE   H5X19237   5.603   5.276   7.007  2.1934 -0.7340  2.1745
  170SOPE   H5Y19238   5.582   5.458   7.014  1.6237  1.6087  0.1698
  170SOPE   C3619239   5.780   5.372   7.080 -0.1958  0.0442  0.8345
  170SOPE   H6X19240   5.818   5.475   7.097 -1.0778  0.9275 -1.9968
  170SOPE   H6Y19241   5.852   5.303   7.030  0.4461  1.4274 -0.2317
  170SOPE   C3719242   5.728   5.316   7.216 -0.3424 -0.5450  0.0611
  170SOPE   H7X19243   5.712   5.208   7.195 -1.8163 -0.5584  1.0651
  170SOPE   H7Y19244   5.629   5.360   7.240  0.3156  0.0666  1.8150
  170SOPE   C3819245   5.819   5.334   7.337 -0.1124 -0.5670  0.0672
  170SOPE   H8X19246   5.791   5.264   7.419  0.7584 -1.4434 -0.3738
  170SOPE   H8Y19247   5.826   5.436   7.381  0.5801 -1.0292  1.0546
  170SOPE   C3919248   5.973   5.307   7.310  0.4769  0.2446 -0.5794
  170SOPE   H9X19249   5.997   5.389   7.239  1.2740 -0.1117 -0.7253
  170SOPE   H9Y19250   5.984   5.207   7.263 -0.2571  0.2754 -0.8286
  170SOPE  C31019251   6.062   5.329   7.428 -0.5594  0.8180 -0.2954
  170SOPE  H10X19252   6.056   5.428   7.477  2.0059  0.2526  1.3714
  170SOPE  H10Y19253   6.170   5.326   7.403 -0.3673 -2.2772  0.5165
  170SOPE  C31119254   6.043   5.229   7.550  0.1009 -0.4459 -0.3600
  170SOPE  H11X19255   6.058   5.127   7.510 -0.3686 -1.2464  1.4079
  170SOPE  H11Y19256   5.934   5.240   7.571  0.2052 -0.7861  0.3975
  170SOPE  C31219257   6.128   5.253   7.678 -0.3109 -0.1735 -0.2636
  170SOPE  H12X19258   6.114   5.358   7.709 -2.2334  0.1903 -2.1044
  170SOPE  H12Y19259   6.233   5.244   7.643 -0.2405 -0.1912 -0.0483
  170SOPE  C31319260   6.119   5.162   7.804 -0.0388 -0.2256 -0.7126
  170SOPE  H13X19261   6.175   5.068   7.786  0.4864 -0.6322  2.5369
  170SOPE  H13Y19262   6.013   5.129   7.803  0.0853 -0.7698  1.3826
  170SOPE  C31419263   6.148   5.229   7.935  0.0746 -0.4212  0.0993
  170SOPE  H14X19264   6.091   5.324   7.945 -0.9359 -0.8033 -1.6732
  170SOPE  H14Y19265   6.256   5.250   7.950  0.0799 -0.4374  0.0823
  170SOPE  C31519266   6.090   5.150   8.046 -0.1766  1.0157 -0.5902
  170SOPE  H15X19267   5.993   5.104   8.015 -0.2573  0.9513 -0.2420
  170SOPE  H15Y19268   6.064   5.197   8.143  1.9581 -1.1628  1.1739
  170SOPE  C31619269   6.186   5.032   8.087 -0.4505  0.5759 -0.2891
  170SOPE  H16X19270   6.289   5.071   8.104  0.4402 -1.3043 -1.1005
  170SOPE  H16Y19271   6.203   4.965   8.001  0.6165 -0.1275  0.4374
  170SOPE  C31719272   6.147   4.944   8.205  0.0019 -0.3344  0.5642
  170SOPE  H17X19273   6.202   4.848   8.215  1.1473  0.0639 -1.3639
  170SOPE  H17Y19274   6.042   4.920   8.178  0.5201  1.0974 -3.4594
  170SOPE  C31819275   6.150   5.013   8.341 -0.3089 -0.1691  0.5488
  170SOPE  H18X19276   6.121   4.940   8.421  0.0865 -1.4442 -0.4307
  170SOPE  H18Y19277   6.083   5.101   8.343 -0.1737  0.0497 -1.6740
  170SOPE  H18Z19278   6.256   5.038   8.364  0.0022  0.6678 -1.5836
  171SOPE     N19279   4.890   0.851   6.302  0.2846  0.4942 -0.0898
  171SOPE   HN119280   4.795   0.892   6.311 -0.0134  0.0298 -0.9640
  171SOPE   HN219281   4.916   0.823   6.399  1.7190 -0.7049 -0.7769
  171SOPE   HN319282   4.948   0.927   6.261 -0.5368 -0.1896 -2.7422
  171SOPE   C1219283   4.908   0.728   6.215 -0.1474  0.5371  0.3624
  171SOPE  H12A19284   5.012   0.692   6.230 -0.1583  0.3339 -0.0197
  171SOPE  H12B19285   4.902   0.763   6.109  0.0814  0.9412  0.4811
  171SOPE   C1119286   4.812   0.616   6.243  0.5943  0.6165 -0.0258
  171SOPE  H11A19287   4.829   0.529   6.176  1.3637  2.2829 -2.0805
  171SOPE  H11B19288   4.708   0.650   6.223  0.1944 -0.6917 -0.2966
  171SOPE     P19289   4.720   0.572   6.486  0.0005 -0.1949  0.1195
  171SOPE   O1319290   4.776   0.509   6.609 -0.0137  0.6471  0.1075
  171SOPE   O1419291   4.589   0.522   6.440 -0.0445  0.2994 -0.2550
  171SOPE   O1219292   4.830   0.576   6.378  1.0900 -0.2113  0.3221
  171SOPE   O1119293   4.704   0.723   6.509  0.6603 -0.6745 -0.0961
  171SOPE    C119294   4.700   0.782   6.637 -0.0309 -0.1377 -0.1383
  171SOPE    HA19295   4.755   0.878   6.627  0.9645 -0.2892  2.9114
  171SOPE    HB19296   4.741   0.714   6.715  1.2989  0.0225 -0.6676
  171SOPE    C219297   4.556   0.806   6.697  0.8163 -0.1638 -0.4616
  171SOPE    HS19298   4.568   0.845   6.800 -0.5516  0.5987 -0.5666
  171SOPE   O2119299   4.472   0.688   6.697  0.1376  0.4208 -0.2128
  171SOPE   C2119300   4.487   0.613   6.804  0.2271  0.2449 -0.2120
  171SOPE   O2219301   4.583   0.624   6.882 -0.1199 -0.1025  0.2041
  171SOPE   C2219302   4.372   0.515   6.822 -1.0107  0.4237  1.1535
  171SOPE   H2R19303   4.406   0.411   6.807 -0.9754  0.5238  0.4829
  171SOPE   H2S19304   4.286   0.537   6.754  0.3290  0.0716 -0.7351
  171SOPE    C319305   4.489   0.914   6.619  0.3904 -0.2094  0.0651
  171SOPE    HX19306   4.498   0.890   6.511 -0.7592  1.4050 -0.4340
  171SOPE    HY19307   4.544   1.010   6.630 -1.6068  0.8736  1.1816
  171SOPE   O3119308   4.356   0.940   6.663  0.0565  0.2031 -0.2531
  171SOPE   C3119309   4.263   0.878   6.588  0.5476  0.2068 -0.4169
  171SOPE   O3219310   4.277   0.804   6.493 -0.2219 -0.1603  0.1254
  171SOPE   C3219311   4.134   0.924   6.645  0.2365 -0.3180  0.2733
  171SOPE   H2X19312   4.065   0.843   6.615 -1.6389  0.8512  1.2771
  171SOPE   H2Y19313   4.096   1.012   6.590  3.0610  0.1467 -1.1201
  171SOPE   C2319314   4.326   0.521   6.975  0.1653 -0.3636  0.9912
  171SOPE   H3R19315   4.276   0.620   6.983  0.2399 -0.0378 -1.7225
  171SOPE   H3S19316   4.420   0.526   7.033  0.5365 -0.3632  0.3959
  171SOPE   C2419317   4.228   0.420   7.025 -0.5153 -0.0464  1.0279
  171SOPE   H4R19318   4.145   0.409   6.953 -0.4980 -1.1107  1.1466
  171SOPE   H4S19319   4.276   0.321   7.013  5.1719  2.4203  0.1475
  171SOPE   C2519320   4.161   0.433   7.167  0.0056 -0.7476  0.3256
  171SOPE   H5R19321   4.126   0.536   7.191  2.2458 -0.2320  1.7336
  171SOPE   H5S19322   4.068   0.373   7.174 -0.3630 -0.1976  0.2614
  171SOPE   C2619323   4.268   0.402   7.268  0.6768  0.3697  0.1426
  171SOPE   H6R19324   4.275   0.291   7.267  1.0128  0.3886 -1.0087
  171SOPE   H6S19325   4.369   0.446   7.255 -0.2679  2.4031 -0.6147
  171SOPE   C2719326   4.233   0.446   7.416  0.2484 -0.0900  0.2661
  171SOPE   H7R19327   4.227   0.557   7.424 -3.9636  0.1370 -2.7328
  171SOPE   H7S19328   4.143   0.402   7.465  0.4528 -0.2442  0.5081
  171SOPE   C2819329   4.348   0.399   7.506  0.3677 -0.1568 -0.5253
  171SOPE   H8R19330   4.351   0.288   7.497  1.1349 -0.1980  0.1024
  171SOPE   H8S19331   4.441   0.437   7.457  0.8418 -0.6462 -0.0276
  171SOPE   C2919332   4.331   0.437   7.651  0.2182 -0.5031 -0.4064
  171SOPE   H9119333   4.378   0.532   7.678 -2.2483  0.2135  1.8460
  171SOPE  C21019334   4.260   0.383   7.748 -0.2311  0.6406  0.2890
  171SOPE  H10119335   4.278   0.427   7.847 -0.1619 -2.9035  1.9838
  171SOPE  C21119336   4.177   0.261   7.752 -0.6355 -0.0185  0.0920
  171SOPE  H11R19337   4.214   0.187   7.678  0.5304  0.7266 -0.0826
  171SOPE  H11S19338   4.071   0.293   7.741  0.3176  3.2704 -0.7668
  171SOPE  C21219339   4.199   0.187   7.892  0.3990 -0.3390 -0.2116
  171SOPE  H12R19340   4.307   0.172   7.916  0.4022 -0.1636 -0.1118
  171SOPE  H12S19341   4.153   0.087   7.880 -0.8726  0.3083 -0.9056
  171SOPE  C21319342   4.138   0.260   8.011  0.2742  0.0277 -0.0974
  171SOPE  H13R19343   4.028   0.244   8.016 -0.0913  2.5235  1.2755
  171SOPE  H13S19344   4.161   0.367   7.990  3.3968 -0.5608 -0.2294
  171SOPE  C21419345   4.209   0.224   8.142 -0.8924  0.2320 -0.6007
  171SOPE  H14R19346   4.316   0.245   8.120 -0.5862 -1.9504 -1.4130
  171SOPE  H14S19347   4.199   0.117   8.168  2.1913 -0.6687 -2.5169
  171SOPE  C21519348   4.152   0.307   8.256  0.3119  0.7062 -0.9964
  171SOPE  H15R19349   4.045   0.280   8.267  0.5906 -0.3509 -0.7938
  171SOPE  H15S19350   4.166   0.412   8.222 -0.5568  0.5820 -1.7888
  171SOPE  C21619351   4.222   0.321   8.394  0.1363 -0.3707  0.2410
  171SOPE  H16R19352   4.330   0.342   8.386  0.2550 -1.2240 -0.5189
  171SOPE  H16S19353   4.223   0.225   8.451  2.9101  1.2388  3.2199
  171SOPE  C21719354   4.150   0.423   8.490  0.3616 -0.8310 -0.1757
  171SOPE  H17R19355   4.176   0.523   8.450 -0.3212 -0.4646  0.2899
  171SOPE  H17S19356   4.187   0.404   8.593 -1.6770 -3.1746  0.2151
  171SOPE  C21819357   3.999   0.422   8.492 -0.2151 -0.0638 -0.3578
  171SOPE  H18R19358   3.949   0.486   8.568 -2.3614 -2.5489  0.4709
  171SOPE  H18S19359   3.966   0.320   8.522 -0.6191 -0.6969 -2.7597
  171SOPE  H18T19360   3.953   0.434   8.391 -0.0774 -0.2533 -0.4426
  171SOPE   C3319361   4.136   0.945   6.798  0.2456 -0.1827 -0.7447
  171SOPE   H3X19362   4.175   1.047   6.820  1.3946 -0.5963 -0.7768
  171SOPE   H3Y19363   4.198   0.871   6.853  0.6734  0.6591 -0.0702
  171SOPE   C3419364   3.996   0.925   6.853 -0.6551 -0.4923  0.0211
  171SOPE   H4X19365   3.980   0.816   6.863  1.6885 -0.7672  1.4487
  171SOPE   H4Y19366   3.921   0.967   6.783 -0.7836 -0.5546  0.1215
  171SOPE   C3519367   3.971   0.979   6.997 -0.0557  0.7331 -0.7827
  171SOPE   H5X19368   3.868   0.953   7.030 -0.0178 -0.8590 -1.8112
  171SOPE   H5Y19369   3.992   1.088   6.991 -1.3087  1.0931  0.6284
  171SOPE   C3619370   4.058   0.915   7.103 -0.2146 -0.9036 -0.2713
  171SOPE   H6X19371   4.165   0.923   7.074 -0.0717  0.1732  0.5010
  171SOPE   H6Y19372   4.039   0.806   7.116 -0.3986 -0.7648  0.7140
  171SOPE   C3719373   4.050   0.998   7.232 -0.1129 -0.0332 -0.6351
  171SOPE   H7X19374   3.980   1.083   7.224  0.2061  0.2909 -0.0538
  171SOPE   H7Y19375   4.148   1.046   7.255  1.2207 -3.0728  0.5642
  171SOPE   C3819376   4.005   0.922   7.358  0.3284 -0.3579  0.1525
  171SOPE   H8X19377   4.080   0.841   7.372  0.2433 -0.6051 -0.7943
  171SOPE   H8Y19378   3.906   0.875   7.344  0.7947 -1.2217 -0.2913
  171SOPE   C3919379   3.980   1.023   7.474  0.2609 -0.0131  0.1154
  171SOPE   H9X19380   3.937   1.116   7.431  0.4104 -0.3286 -0.7335
  171SOPE   H9Y19381   4.082   1.044   7.514 -0.6870  1.8425  1.7209
  171SOPE  C31019382   3.916   0.966   7.595 -0.0031  0.1807 -0.8228
  171SOPE  H10X19383   3.979   0.892   7.648 -1.5064  0.3175  1.3349
  171SOPE  H10Y19384   3.827   0.908   7.562 -1.1795 -0.0707  2.3760
  171SOPE  C31119385   3.864   1.070   7.694  0.1488  0.0114  0.4838
  171SOPE  H11X19386   3.801   1.140   7.635  0.0104  0.9304  1.6797
  171SOPE  H11Y19387   3.946   1.133   7.735  1.2785 -1.5269  0.6330
  171SOPE  C31219388   3.776   1.020   7.807 -0.0258 -0.6908 -0.2546
  171SOPE  H12X19389   3.822   0.936   7.864  0.0817  0.3744  1.2837
  171SOPE  H12Y19390   3.686   0.981   7.755 -0.2641 -1.4897  0.7371
  171SOPE  C31319391   3.716   1.130   7.909 -0.6406  1.4182 -0.1292
  171SOPE  H13X19392   3.643   1.195   7.856 -2.7863 -0.4784  0.3410
  171SOPE  H13Y19393   3.798   1.191   7.952  1.5946 -0.2903 -1.7342
  171SOPE  C31419394   3.636   1.068   8.035  1.0565 -0.2199  0.7530
  171SOPE  H14X19395   3.707   0.992   8.073  1.5503 -2.7813 -4.4550
  171SOPE  H14Y19396   3.536   1.023   8.015  0.6887  0.6014  0.6865
  171SOPE  C31519397   3.613   1.178   8.140 -0.1389 -0.0751 -0.4206
  171SOPE  H15X19398   3.531   1.243   8.105  0.4705  1.2834  0.6035
  171SOPE  H15Y19399   3.714   1.225   8.144 -1.0684  2.0395 -0.5113
  171SOPE  C31619400   3.565   1.110   8.270  0.0345 -0.0807  0.1118
  171SOPE  H16X19401   3.635   1.031   8.304 -0.3230 -0.8735 -0.9452
  171SOPE  H16Y19402   3.473   1.058   8.235 -1.2592  3.3383 -2.1752
  171SOPE  C31719403   3.536   1.214   8.380 -0.8456  0.4937 -0.4522
  171SOPE  H17X19404   3.627   1.277   8.391 -0.8262  0.4167 -0.1448
  171SOPE  H17Y19405   3.531   1.161   8.478  2.0407  0.7795 -0.0407
  171SOPE  C31819406   3.415   1.302   8.358  0.4376 -0.5843  0.3773
  171SOPE  H18X19407   3.439   1.385   8.288 -1.7497  0.5751  0.9282
  171SOPE  H18Y19408   3.405   1.354   8.455  2.9180  0.3893  0.1686
  171SOPE  H18Z19409   3.326   1.245   8.321  0.9178 -0.6954 -0.6360
  172SOPE     N19410   5.481   2.888   6.487  0.7691 -0.2057  0.2150
  172SOPE   HN119411   5.458   2.990   6.487  0.3104 -0.3063  0.1040
  172SOPE   HN219412   5.391   2.837   6.502  0.4413  0.3156  0.0756
  172SOPE   HN319413   5.553   2.864   6.557  0.0336  1.4687  1.6292
  172SOPE   C1219414   5.539   2.842   6.353 -0.3521 -0.1943  0.3211
  172SOPE  H12A19415   5.520   2.932   6.291 -0.1558  0.0274  0.5773
  172SOPE  H12B19416   5.485   2.751   6.321 -2.0337 -0.0636  2.5539
  172SOPE   C1119417   5.695   2.826   6.366 -0.3996  0.4051 -0.8253
  172SOPE  H11A19418   5.739   2.813   6.265 -0.9230 -1.9779 -0.8212
  172SOPE  H11B19419   5.702   2.728   6.418 -0.0408  0.9110  0.1027
  172SOPE     P19420   5.903   2.986   6.423  0.0842  0.1827 -0.4541
  172SOPE   O1319421   5.909   3.132   6.430  0.8155 -0.2849 -0.0235
  172SOPE   O1419422   5.961   2.931   6.298  0.0270 -0.5233  0.9791
  172SOPE   O1219423   5.760   2.928   6.445 -0.1003 -0.1190  0.1565
  172SOPE   O1119424   5.985   2.926   6.538  0.4997 -0.0257  0.0033
  172SOPE    C119425   5.990   2.788   6.563  0.6177  0.8676 -0.8216
  172SOPE    HA19426   6.089   2.771   6.608 -0.5586 -0.4791  1.4495
  172SOPE    HB19427   5.979   2.723   6.474 -0.0238  1.8327 -1.4722
  172SOPE    C219428   5.881   2.753   6.672  0.6409 -0.8621  0.5015
  172SOPE    HS19429   5.796   2.710   6.614 -0.9389 -0.1427  2.1638
  172SOPE   O2119430   5.859   2.869   6.755 -0.3484 -0.1091 -0.1405
  172SOPE   C2119431   5.728   2.911   6.756 -0.9909  0.3326  0.1598
  172SOPE   O2219432   5.632   2.844   6.719 -0.6588 -0.0664  0.7428
  172SOPE   C2219433   5.711   3.050   6.793 -0.1571 -0.0814  0.2175
  172SOPE   H2R19434   5.657   3.110   6.717 -0.7184 -1.8244 -0.8048
  172SOPE   H2S19435   5.808   3.105   6.791  0.1846 -0.6960 -0.2143
  172SOPE    C319436   5.935   2.632   6.766 -0.3000 -0.1779  0.7238
  172SOPE    HX19437   6.032   2.672   6.803  0.9436 -0.4256 -2.0126
  172SOPE    HY19438   5.950   2.547   6.696 -1.1482  0.4752 -0.2775
  172SOPE   O3119439   5.833   2.589   6.867 -0.3248 -0.0925  0.1172
  172SOPE   C3119440   5.880   2.494   6.945  0.2102  0.8358  0.8739
  172SOPE   O3219441   5.989   2.437   6.932  0.2840  0.6505  0.3322
  172SOPE   C3219442   5.771   2.469   7.051 -0.0033  0.2241 -0.6516
  172SOPE   H2X19443   5.756   2.360   7.067  1.7503  0.2035  1.1870
  172SOPE   H2Y19444   5.689   2.535   7.017  0.9358  1.0849 -1.3129
  172SOPE   C2319445   5.640   3.060   6.929  0.2759 -0.2771  0.0420
  172SOPE   H3R19446   5.548   2.997   6.931 -0.9126  1.3646  2.2206
  172SOPE   H3S19447   5.590   3.159   6.929 -2.0334 -1.3440  1.2579
  172SOPE   C2419448   5.739   3.038   7.035  0.2923  0.8165  0.2339
  172SOPE   H4R19449   5.801   2.947   7.020  0.7607  0.9229  1.3505
  172SOPE   H4S19450   5.808   3.125   7.022  1.1018  0.3367  1.1780
  172SOPE   C2519451   5.678   3.046   7.172  0.1637 -0.1114 -0.2100
  172SOPE   H5R19452   5.618   3.139   7.183  1.0643  0.7553 -2.1178
  172SOPE   H5S19453   5.604   2.965   7.189  1.3134 -1.8844 -2.9126
  172SOPE   C2619454   5.782   3.038   7.287  0.2933  0.1133  0.0349
  172SOPE   H6R19455   5.843   2.946   7.271 -1.7049 -1.1649 -0.5008
  172SOPE   H6S19456   5.857   3.121   7.290  0.3147  0.2122 -2.1046
  172SOPE   C2719457   5.717   3.026   7.427  0.1888 -0.0485 -0.0050
  172SOPE   H7R19458   5.649   3.112   7.444 -1.8060 -1.8799  2.0657
  172SOPE   H7S19459   5.642   2.944   7.419 -1.5434  1.5320 -0.7974
  172SOPE   C2819460   5.805   3.009   7.551 -0.2190  0.4204 -0.6419
  172SOPE   H8R19461   5.752   3.005   7.648 -0.7598 -2.9461 -0.9625
  172SOPE   H8S19462   5.857   2.912   7.531 -0.4368  0.3148 -0.7002
  172SOPE   C2919463   5.915   3.121   7.555  0.0373 -0.4291  0.6496
  172SOPE   H9119464   5.915   3.199   7.478  0.9419 -2.0821 -1.1021
  172SOPE  C21019465   6.000   3.137   7.655  0.2789  0.6944  0.4323
  172SOPE  H10119466   6.064   3.226   7.639 -0.0498  0.5584 -2.1378
  172SOPE  C21119467   6.019   3.060   7.783  0.2906 -0.4737  0.2621
  172SOPE  H11R19468   6.126   3.036   7.800  0.0339 -0.8566  1.3842
  172SOPE  H11S19469   5.973   2.959   7.776  0.4053 -0.6120  1.3419
  172SOPE  C21219470   5.966   3.128   7.920  0.4893 -0.1527  0.4823
  172SOPE  H12R19471   5.859   3.154   7.908  0.3443  0.0997  2.0995
  172SOPE  H12S19472   6.021   3.224   7.924  0.9502 -0.4260  0.8322
  172SOPE  C21319473   5.989   3.053   8.054 -0.9463  0.1062  0.2024
  172SOPE  H13R19474   6.091   3.075   8.090 -1.3528  1.1122  0.7898
  172SOPE  H13S19475   5.985   2.944   8.034  0.1290 -0.1161  1.1412
  172SOPE  C21419476   5.902   3.081   8.177 -0.1003 -0.1679  0.8167
  172SOPE  H14R19477   5.800   3.039   8.167 -1.0568  1.3024  3.4091
  172SOPE  H14S19478   5.887   3.191   8.175 -0.1154 -0.1770 -0.4575
  172SOPE  C21519479   5.955   3.040   8.312  0.3044 -0.1317 -0.1709
  172SOPE  H15R19480   5.993   2.936   8.309  1.8345  0.4396 -1.3045
  172SOPE  H15S19481   5.868   3.037   8.382  0.1623 -3.5745 -0.3020
  172SOPE  C21619482   6.056   3.141   8.374  0.0701 -0.2721  0.0642
  172SOPE  H16R19483   6.013   3.241   8.354 -1.2317 -0.3748  2.0969
  172SOPE  H16S19484   6.154   3.121   8.325 -0.4691 -2.1604 -0.3663
  172SOPE  C21719485   6.062   3.115   8.526 -0.7838 -0.5515  0.6510
  172SOPE  H17R19486   6.104   3.014   8.542 -0.4046 -0.2246  1.8260
  172SOPE  H17S19487   5.959   3.132   8.565 -1.6821 -0.5834 -1.5554
  172SOPE  C21819488   6.166   3.203   8.603  0.2107 -0.8137 -0.2612
  172SOPE  H18R19489   6.266   3.187   8.557  0.6456  1.6430 -0.2944
  172SOPE  H18S19490   6.161   3.177   8.711  0.9812 -0.1621 -0.0526
  172SOPE  H18T19491   6.130   3.308   8.602 -0.0788 -0.9137 -0.3727
  172SOPE   C3319492   5.819   2.525   7.183 -0.0356 -0.1860 -1.0576
  172SOPE   H3X19493   5.851   2.630   7.163 -0.2716 -0.5278 -3.4882
  172SOPE   H3Y19494   5.904   2.466   7.224 -2.0355 -1.5150  1.4379
  172SOPE   C3419495   5.705   2.542   7.282  0.4131  0.6144 -0.1989
  172SOPE   H4X19496   5.676   2.438   7.308  3.0322 -0.1173  0.0682
  172SOPE   H4Y19497   5.622   2.581   7.219 -1.6375 -0.8948  1.4248
  172SOPE   C3519498   5.730   2.627   7.406 -0.3213  0.0825 -0.4342
  172SOPE   H5X19499   5.705   2.732   7.380  2.2788  0.4855 -1.6620
  172SOPE   H5Y19500   5.840   2.630   7.423 -0.0198  0.1454 -2.1865
  172SOPE   C3619501   5.653   2.584   7.537 -0.1277 -0.6909 -0.3105
  172SOPE   H6X19502   5.688   2.482   7.564 -0.3531 -0.4674  0.8653
  172SOPE   H6Y19503   5.545   2.607   7.524 -0.6102 -2.0181  1.0384
  172SOPE   C3719504   5.709   2.669   7.656 -0.3790  0.5347  0.1597
  172SOPE   H7X19505   5.701   2.780   7.651 -0.0812  0.5196 -1.0557
  172SOPE   H7Y19506   5.820   2.659   7.659 -0.3653  0.8182  1.8800
  172SOPE   C3819507   5.662   2.610   7.788 -0.8319  0.4702 -0.5337
  172SOPE   H8X19508   5.664   2.500   7.769 -1.0302  0.4644 -0.5231
  172SOPE   H8Y19509   5.556   2.633   7.814  0.0654  1.8696  2.2872
  172SOPE   C3919510   5.754   2.644   7.901 -0.0746 -0.2821 -0.8432
  172SOPE   H9X19511   5.761   2.755   7.900 -0.8126 -0.0879  2.6977
  172SOPE   H9Y19512   5.858   2.610   7.883  1.5257  3.6327  0.0135
  172SOPE  C31019513   5.715   2.599   8.044 -0.9912 -0.1687 -0.2019
  172SOPE  H10X19514   5.703   2.488   8.039 -0.7179 -0.2461  0.7352
  172SOPE  H10Y19515   5.620   2.652   8.069 -1.8079 -0.3030 -2.6804
  172SOPE  C31119516   5.828   2.635   8.148  0.0331 -0.2672 -0.3439
  172SOPE  H11X19517   5.796   2.722   8.210  0.6953 -1.6713  2.1232
  172SOPE  H11Y19518   5.915   2.668   8.088 -1.6881  1.6497 -1.9330
  172SOPE  C31219519   5.863   2.519   8.234  0.0353  0.1689 -0.3770
  172SOPE  H12X19520   5.923   2.441   8.182  2.0615  2.3269 -1.5016
  172SOPE  H12Y19521   5.767   2.479   8.272 -0.7107  0.0852 -2.2483
  172SOPE  C31319522   5.945   2.558   8.360  0.5886  0.2107 -0.5072
  172SOPE  H13X19523   6.046   2.602   8.345  0.7826  2.1081  4.3659
  172SOPE  H13Y19524   5.968   2.470   8.424  2.4226  1.2073  0.2820
  172SOPE  C31419525   5.873   2.662   8.452  1.0415  0.4624 -0.0193
  172SOPE  H14X19526   5.765   2.639   8.459  1.3026 -1.0515 -0.5129
  172SOPE  H14Y19527   5.881   2.764   8.410  1.0410  0.6587  0.4420
  172SOPE  C31519528   5.942   2.667   8.589 -0.0262 -0.4442 -0.9050
  172SOPE  H15X19529   6.051   2.689   8.576 -0.0795  0.9085  0.6072
  172SOPE  H15Y19530   5.935   2.564   8.630 -0.1205 -0.7675 -1.7131
  172SOPE  C31619531   5.890   2.764   8.689  0.5989  0.0927 -0.0421
  172SOPE  H16X19532   5.899   2.865   8.645 -1.3794  0.1360 -0.4524
  172SOPE  H16Y19533   5.949   2.759   8.783 -1.7528  0.7394  1.5780
  172SOPE  C31719534   5.746   2.739   8.749  0.3497 -0.7699  0.3303
  172SOPE  H17X19535   5.664   2.761   8.677  1.4551  0.0484 -0.7435
  172SOPE  H17Y19536   5.729   2.800   8.840 -0.4747 -0.1272 -0.2329
  172SOPE  C31819537   5.733   2.593   8.800 -0.5306 -0.2706 -0.9393
  172SOPE  H18X19538   5.823   2.571   8.861  0.3485  0.6231 -1.8704
  172SOPE  H18Y19539   5.735   2.520   8.716 -0.4897 -0.0831 -1.1032
  172SOPE  H18Z19540   5.637   2.587   8.856 -0.2110  1.5285 -0.1126
  173SAPI   C1219541   5.441   0.808  10.822 -0.4441  0.5147 -0.2995
  173SAPI    H219542   5.370   0.735  10.777 -0.2601 -0.6025  1.1349
  173SAPI    O219543   5.539   0.837  10.720  0.2999  0.3297 -0.1292
  173SAPI   HO219544   5.604   0.770  10.743 -1.5847 -2.2370 -1.7708
  173SAPI   C1319545   5.368   0.929  10.871  0.4192 -0.2267  0.0438
  173SAPI    H319546   5.299   0.904  10.954 -2.1696  3.7018 -0.6007
  173SAPI    O319547   5.283   0.963  10.764 -0.2726 -0.3999 -0.1321
  173SAPI   HO319548   5.342   0.990  10.693  0.1435 -0.7842  0.0691
  173SAPI   C1419549   5.462   1.036  10.918 -0.6356 -0.0457 -1.2785
  173SAPI    H419550   5.520   1.072  10.830  1.1451 -1.8029 -0.9072
  173SAPI    O419551   5.388   1.153  10.965  0.6641 -0.3668  0.0413
  173SAPI   HO419552   5.360   1.201  10.887  0.0599 -2.6559 -1.2384
  173SAPI   C1519553   5.557   0.981  11.027  0.8042  0.1851  0.3665
  173SAPI    H519554   5.496   0.971  11.120  0.4810  1.6909  0.3291
  173SAPI    O519555   5.665   1.068  11.053  0.0136  0.4813 -0.1921
  173SAPI   HO519556   5.714   1.062  10.971  1.2673  0.4489  0.5363
  173SAPI   C1619557   5.618   0.846  10.992  0.0294  0.3546  0.1571
  173SAPI    H619558   5.699   0.872  10.921 -0.8095 -0.5369 -1.1801
  173SAPI    O619559   5.675   0.783  11.104  0.0419  0.7136  0.3148
  173SAPI   HO619560   5.612   0.744  11.165 -0.2269  1.2770  0.3993
  173SAPI   C1119561   5.518   0.743  10.933  0.2740  0.3675 -0.1481
  173SAPI    H119562   5.447   0.734  11.018  0.9271  0.3388  0.4041
  173SAPI     P19563   5.558   0.473  10.960  0.2093  0.4217  0.5191
  173SAPI   O1319564   5.450   0.488  11.062 -0.0624  0.0476  0.2502
  173SAPI   O1419565   5.686   0.419  11.007  0.3937  0.0875  0.2572
  173SAPI   O1219566   5.580   0.618  10.890  0.0420 -0.5518  0.8059
  173SAPI   O1119567   5.507   0.377  10.843 -0.5668  0.0183  0.5997
  173SAPI    C119568   5.396   0.423  10.763 -0.0990 -0.2137  0.1879
  173SAPI    HA19569   5.301   0.383  10.805  0.6813 -0.8866  1.3698
  173SAPI    HB19570   5.384   0.533  10.770  0.6443 -0.1225  0.0627
  173SAPI    C219571   5.398   0.392  10.616 -0.1845 -0.2350  0.1794
  173SAPI    HS19572   5.311   0.432  10.558  1.0377 -0.0963 -1.6247
  173SAPI   O2119573   5.405   0.256  10.578 -0.4214 -0.1841 -0.3178
  173SAPI   C2119574   5.295   0.188  10.592 -0.2135 -0.1655  0.1436
  173SAPI   O2219575   5.185   0.230  10.630 -0.1960 -0.5527 -0.0782
  173SAPI   C2219576   5.326   0.040  10.565 -0.1037  0.0888  0.4833
  173SAPI   H2R19577   5.436   0.030  10.562 -0.1688 -0.4860 -0.1714
  173SAPI   H2S19578   5.274  -0.027  10.637 -0.0935  0.2662  0.6567
  173SAPI    C319579   5.528   0.458  10.558  0.2937 -0.6051  0.1681
  173SAPI    HX19580   5.623   0.426  10.606  1.0563 -1.0987 -1.5918
  173SAPI    HY19581   5.521   0.565  10.587  0.4026 -0.8954  1.3007
  173SAPI   O3119582   5.538   0.447  10.413 -0.3549 -0.2160 -0.5389
  173SAPI   C3119583   5.625   0.354  10.368  0.5086 -0.4330  0.0829
  173SAPI   O3219584   5.690   0.278  10.440  0.3214  0.0247  0.0536
  173SAPI   C3219585   5.616   0.351  10.215 -0.4099  0.7812 -0.2452
  173SAPI   H2X19586   5.633   0.458  10.188  1.1203  0.8732  0.9804
  173SAPI   H2Y19587   5.513   0.321  10.185 -1.4562  1.4650  2.3901
  173SAPI   C2319588   5.282   0.001  10.420 -1.2143 -0.2432  0.2310
  173SAPI   H3R19589   5.173   0.016  10.405 -1.1557 -0.2692 -0.2105
  173SAPI   H3S19590   5.307  -0.107  10.411  1.2244  0.3276 -0.6771
  173SAPI   C2419591   5.370   0.073  10.319  0.1116  0.3476  0.4742
  173SAPI   H4R19592   5.469   0.100  10.363 -0.3498 -0.6290  2.2207
  173SAPI   H4S19593   5.326   0.173  10.299 -0.2974 -0.0522 -0.6718
  173SAPI   C2519594   5.402  -0.010  10.194  1.0917 -0.5893 -0.8269
  173SAPI   H5R19595   5.482  -0.084  10.204  0.1559 -1.3459  1.8516
  173SAPI   C2619596   5.356  -0.007  10.070 -0.4751 -0.4142  0.0508
  173SAPI   H6R19597   5.409  -0.069   9.996 -0.1898  1.4344 -1.3820
  173SAPI   C2719598   5.253   0.097  10.012 -0.2821  0.0477 -0.3413
  173SAPI   H7R19599   5.186   0.138  10.090 -0.7419  0.7824 -1.1072
  173SAPI   H7S19600   5.185   0.032   9.953 -1.2816  1.8482 -1.2699
  173SAPI   C2819601   5.303   0.222   9.942  0.0622 -0.2478  0.3494
  173SAPI   H8R19602   5.384   0.276   9.992  0.2739  1.3277 -1.5624
  173SAPI   C2919603   5.248   0.278   9.831  0.0091  0.1652  0.2292
  173SAPI   H9R19604   5.316   0.353   9.787 -0.9973  0.2918 -1.1891
  173SAPI  C21019605   5.143   0.220   9.748 -0.4716 -0.0027  0.6229
  173SAPI  H10R19606   5.077   0.147   9.799 -0.8444  0.7352  1.2245
  173SAPI  H10S19607   5.186   0.164   9.662  0.3821  0.3344  0.8198
  173SAPI  C21119608   5.049   0.319   9.693 -0.2235 -0.4321  0.3741
  173SAPI  H11R19609   4.963   0.339   9.759 -0.1554  0.0691  0.3185
  173SAPI  C21219610   5.057   0.381   9.572  0.2022  0.5154 -0.3204
  173SAPI  H12R19611   4.983   0.461   9.561  0.8916  1.0119 -1.6118
  173SAPI  C21319612   5.162   0.359   9.469  0.3502 -0.2917  0.5278
  173SAPI  H13R19613   5.201   0.255   9.463 -0.0722 -0.3682 -2.3814
  173SAPI  H13S19614   5.254   0.414   9.499  0.8150 -0.6684 -0.1727
  173SAPI  C21419615   5.109   0.394   9.334 -0.0332 -0.0154 -0.5501
  173SAPI  H14R19616   5.119   0.500   9.306 -1.0342  0.1987 -0.1287
  173SAPI  C21519617   5.040   0.315   9.250 -0.1504  0.2456 -0.5730
  173SAPI  H15R19618   5.006   0.344   9.149  1.0743 -0.4133 -1.1894
  173SAPI  C21619619   5.015   0.170   9.278 -0.1923 -0.0919 -0.3116
  173SAPI  H16R19620   4.916   0.130   9.246 -0.0752  1.8751 -3.7238
  173SAPI  H16S19621   5.022   0.138   9.384 -0.3914 -2.1194 -0.8758
  173SAPI  C21719622   5.119   0.081   9.197  0.1914 -0.9052 -0.0964
  173SAPI  H17R19623   5.091  -0.025   9.214 -1.5880 -0.5336 -0.5334
  173SAPI  H17S19624   5.224   0.101   9.228  0.5967 -1.4675 -1.0865
  173SAPI  C21819625   5.114   0.103   9.047 -0.2310 -0.4499  0.0931
  173SAPI  H18R19626   5.200   0.047   9.005  1.9691  1.3314  1.9415
  173SAPI  H18S19627   5.150   0.206   9.027 -1.1600 -0.7276 -3.7445
  173SAPI  C21919628   4.978   0.088   8.967 -0.5268 -0.3115  0.1344
  173SAPI  H19R19629   4.911   0.175   8.987 -1.8118 -0.7068 -2.1101
  173SAPI  H19S19630   4.934  -0.010   8.997  0.6230 -0.8911 -0.0151
  173SAPI  C22019631   5.000   0.092   8.815 -0.6962  0.4412  0.7638
  173SAPI  H20R19632   5.093   0.039   8.787 -0.2625  2.3788 -1.6860
  173SAPI  H20S19633   4.999   0.201   8.796 -0.6723  0.4567  0.8540
  173SAPI  H20T19634   4.916   0.050   8.755 -0.2236 -1.6866  1.5039
  173SAPI   C3319635   5.707   0.257  10.141 -0.3786 -0.0728  0.2633
  173SAPI   H3X19636   5.721   0.164  10.200  1.3630  1.2743  2.1051
  173SAPI   H3Y19637   5.807   0.301  10.123 -0.8430  0.2127 -1.9067
  173SAPI   C3419638   5.661   0.214  10.003 -0.0540 -0.2030  0.4968
  173SAPI   H4X19639   5.560   0.170  10.014 -0.2359  0.3122  0.8872
  173SAPI   H4Y19640   5.727   0.132   9.966  0.4716  1.2727 -2.1266
  173SAPI   C3519641   5.668   0.320   9.894 -0.2890  0.3975  0.4869
  173SAPI   H5X19642   5.758   0.382   9.878 -0.8656  0.3165 -5.7964
  173SAPI   H5Y19643   5.586   0.393   9.912 -0.1650  0.8364 -0.6215
  173SAPI   C3619644   5.651   0.252   9.753  0.1937 -0.8312 -0.2253
  173SAPI   H6X19645   5.580   0.168   9.768 -0.6293  0.0048  0.6954
  173SAPI   H6Y19646   5.748   0.211   9.716  0.7091 -0.2478  0.4579
  173SAPI   C3719647   5.596   0.360   9.656 -0.2670  0.0143 -0.4456
  173SAPI   H7X19648   5.666   0.446   9.656  1.3907 -1.2864 -1.2086
  173SAPI   H7Y19649   5.509   0.418   9.692  1.7068  2.4394  0.7210
  173SAPI   C3819650   5.584   0.303   9.518  0.6857 -0.1349  0.0605
  173SAPI   H8X19651   5.497   0.234   9.511  1.1951 -0.9794  1.5499
  173SAPI   H8Y19652   5.677   0.246   9.495  1.0432 -0.4083  2.0304
  173SAPI   C3919653   5.563   0.412   9.407 -0.6910 -0.3424  0.1701
  173SAPI   H9X19654   5.649   0.482   9.397 -2.3384  1.6579 -0.9509
  173SAPI   H9Y19655   5.475   0.468   9.446 -1.4565 -1.6465  0.3595
  173SAPI  C31019656   5.531   0.360   9.276 -0.6844 -0.2106  0.7640
  173SAPI  H10X19657   5.461   0.273   9.283 -1.1500  0.2485  2.0042
  173SAPI  H10Y19658   5.624   0.316   9.233 -0.4928  1.6489 -0.8813
  173SAPI  C31119659   5.470   0.465   9.179 -0.3333  1.1376  0.3610
  173SAPI  H11X19660   5.517   0.561   9.208  2.2677 -0.3263  1.3524
  173SAPI  H11Y19661   5.360   0.469   9.192 -0.0416  1.1083  3.7361
  173SAPI  C31219662   5.498   0.429   9.029  0.0791 -0.1151  0.8529
  173SAPI  H12X19663   5.603   0.402   9.006 -0.8069 -2.8684 -0.4362
  173SAPI  H12Y19664   5.478   0.513   8.959 -0.5011 -0.8965  0.0548
  173SAPI  C31319665   5.407   0.313   8.984  0.5465 -0.8104  0.1072
  173SAPI  H13X19666   5.300   0.336   9.003  1.0108  1.3692  0.3903
  173SAPI  H13Y19667   5.434   0.230   9.052 -0.0715 -0.0715  1.2847
  173SAPI  C31419668   5.437   0.247   8.842 -0.1083  0.2501  0.1526
  173SAPI  H14X19669   5.420   0.320   8.760 -2.4236 -1.9218 -1.4617
  173SAPI  H14Y19670   5.358   0.169   8.834  2.2637 -2.3289  0.1233
  173SAPI  C31519671   5.574   0.185   8.817  0.0481 -0.7457  0.1780
  173SAPI  H15X19672   5.597   0.126   8.909  0.1909 -1.2078 -0.1543
  173SAPI  H15Y19673   5.654   0.262   8.825 -1.8248  1.2361  0.5861
  173SAPI  C31619674   5.572   0.101   8.685  1.0149  0.1327 -0.2985
  173SAPI  H16X19675   5.532   0.179   8.616 -2.3468  0.0606  1.3800
  173SAPI  H16Y19676   5.501   0.017   8.696 -0.4800  1.3930  0.0196
  173SAPI  C31719677   5.707   0.054   8.644  0.0217 -0.0503  0.0593
  173SAPI  H17X19678   5.716   0.027   8.537  2.4526 -1.4153  0.5526
  173SAPI  H17Y19679   5.723  -0.047   8.687  0.3852 -1.1534 -2.5089
  173SAPI  C31819680   5.837   0.143   8.670  0.8767  0.5750  0.3132
  173SAPI  H18X19681   5.827   0.192   8.769  0.8504  0.3236  0.4374
  173SAPI  H18Y19682   5.851   0.211   8.583  0.3162  0.8383  0.4300
  173SAPI  H18Z19683   5.928   0.079   8.673 -0.6969 -1.7311  1.5591
  174SAPI   C1219684   1.875   3.123  10.829  0.6053 -0.2442 -0.1723
  174SAPI    H219685   1.805   3.196  10.784  0.5560  0.6144  1.2480
  174SAPI    O219686   1.884   3.154  10.968  0.5731  0.1339 -0.0186
  174SAPI   HO219687   1.933   3.235  10.983 -0.0411  0.4222  0.4391
  174SAPI   C1319688   1.833   2.973  10.809  0.3202 -0.0266  0.3078
  174SAPI    H319689   1.817   2.950  10.702  2.5425  1.6359 -0.4761
  174SAPI    O319690   1.707   2.947  10.869  0.4303 -0.2428  0.2246
  174SAPI   HO319691   1.745   2.932  10.956  3.6425 -0.2165 -1.0299
  174SAPI   C1419692   1.944   2.888  10.863 -0.7809  0.2959 -0.2534
  174SAPI    H419693   1.966   2.910  10.970 -1.1964  0.1066 -0.1275
  174SAPI    O419694   1.920   2.749  10.878 -0.9063  0.6306 -0.1205
  174SAPI   HO419695   1.927   2.706  10.793  3.5184  0.1208  0.2738
  174SAPI   C1519696   2.074   2.921  10.781  0.3129  0.0476  0.4307
  174SAPI    H519697   2.053   2.899  10.674  0.3272 -1.9957  0.8103
  174SAPI    O519698   2.183   2.834  10.806  0.2739 -0.2158  0.0680
  174SAPI   HO519699   2.243   2.900  10.842 -1.1831  0.7755  0.7784
  174SAPI   C1619700   2.125   3.071  10.797 -0.0181 -0.1850  0.6257
  174SAPI    H619701   2.134   3.081  10.908 -1.3890 -0.4111  0.7762
  174SAPI    O619702   2.243   3.098  10.728 -0.2627 -0.7067 -0.4793
  174SAPI   HO619703   2.242   3.194  10.724  0.0645 -0.5554  1.9259
  174SAPI   C1119704   2.006   3.151  10.751  0.3510  0.0741 -0.0715
  174SAPI    H119705   1.987   3.114  10.648 -2.3097  0.7030  0.1130
  174SAPI     P19706   1.976   3.383  10.629 -0.0349  0.5682  0.4906
  174SAPI   O1319707   2.036   3.518  10.627  0.9961  0.1346  0.0259
  174SAPI   O1419708   1.830   3.379  10.617 -0.2866  0.1383 -0.3739
  174SAPI   O1219709   2.035   3.292  10.755  0.6235  0.2121 -0.5787
  174SAPI   O1119710   2.035   3.315  10.502  0.7450  0.4577 -0.0723
  174SAPI    C119711   1.964   3.290  10.384  0.5918 -0.0805 -0.3355
  174SAPI    HA19712   1.890   3.208  10.396  0.2877  0.2224 -0.1208
  174SAPI    HB19713   1.909   3.381  10.354  0.5335  0.4407  1.2585
  174SAPI    C219714   2.074   3.266  10.272  0.3616  0.3123 -0.8177
  174SAPI    HS19715   2.021   3.244  10.176 -3.4264 -0.1567  1.2007
  174SAPI   O2119716   2.154   3.150  10.308 -0.3424  0.4055  0.4144
  174SAPI   C2119717   2.097   3.036  10.333 -0.5363  0.1946 -0.1479
  174SAPI   O2219718   1.978   2.997  10.330  0.7516 -0.1860  0.0090
  174SAPI   C2219719   2.211   2.941  10.358 -0.3057  0.9334 -0.0828
  174SAPI   H2R19720   2.263   2.937  10.259  0.6232  0.6290  0.4110
  174SAPI   H2S19721   2.276   2.998  10.427  0.2092 -0.9864  1.0808
  174SAPI    C319722   2.166   3.392  10.249  1.0103 -0.4137  0.9262
  174SAPI    HX19723   2.233   3.396  10.337  1.2062 -0.8938  0.8042
  174SAPI    HY19724   2.094   3.475  10.236  1.5745  0.1001  1.0116
  174SAPI   O3119725   2.253   3.386  10.129 -0.6410 -0.5907 -0.3537
  174SAPI   C3119726   2.197   3.437  10.019  0.4845  1.1638 -0.3269
  174SAPI   O3219727   2.091   3.486  10.011  0.1420  0.7378 -0.0782
  174SAPI   C3219728   2.285   3.415   9.899 -0.2553 -0.2009  0.4929
  174SAPI   H2X19729   2.277   3.304   9.890 -0.6313 -0.1227 -0.1447
  174SAPI   H2Y19730   2.392   3.427   9.928 -0.5251  0.5890  1.1799
  174SAPI   C2319731   2.186   2.794  10.413  0.2224  0.4731 -0.0542
  174SAPI   H3R19732   2.082   2.768  10.440  0.6375 -1.7615 -0.3989
  174SAPI   H3S19733   2.262   2.773  10.492 -1.7793 -3.0533  1.1296
  174SAPI   C2419734   2.225   2.680  10.313  0.0896 -0.0238 -0.1314
  174SAPI   H4R19735   2.221   2.585  10.372 -1.9427 -0.5385 -1.0033
  174SAPI   H4S19736   2.328   2.682  10.271  0.7422 -4.0595  0.8145
  174SAPI   C2519737   2.120   2.662  10.203 -0.9711  0.8323 -0.1667
  174SAPI   H5R19738   2.016   2.658  10.238 -0.8384  2.4313  0.5231
  174SAPI   C2619739   2.136   2.650  10.067 -0.6946 -0.4957 -0.1374
  174SAPI   H6R19740   2.051   2.641   9.998 -0.9267  1.4496 -0.1480
  174SAPI   C2719741   2.262   2.655   9.989 -0.1105 -0.6936  0.0944
  174SAPI   H7R19742   2.310   2.555   9.992  1.0715 -0.1485 -0.0630
  174SAPI   H7S19743   2.340   2.721  10.032 -0.6381  0.7929 -1.1156
  174SAPI   C2819744   2.231   2.721   9.852 -0.3964  1.0315  0.8259
  174SAPI   H8R19745   2.162   2.806   9.840 -0.4463  0.8772 -0.0504
  174SAPI   C2919746   2.284   2.678   9.738  0.2026 -0.4149  0.5285
  174SAPI   H9R19747   2.251   2.733   9.649 -0.7024 -1.8742 -0.0827
  174SAPI  C21019748   2.368   2.554   9.720  0.0870  0.9522  0.5855
  174SAPI  H10R19749   2.302   2.492   9.655  1.0003 -1.1858  1.6111
  174SAPI  H10S19750   2.384   2.492   9.810  2.1423 -0.0796 -0.4300
  174SAPI  C21119751   2.502   2.557   9.657 -0.8085 -0.3592 -0.9071
  174SAPI  H11R19752   2.584   2.553   9.730 -1.4894 -0.5915 -0.1495
  174SAPI  C21219753   2.528   2.548   9.528 -0.5787 -0.1986  0.2374
  174SAPI  H12R19754   2.634   2.557   9.502  0.6444 -1.5131  4.0949
  174SAPI  C21319755   2.419   2.545   9.422 -0.5345 -0.3699  0.1577
  174SAPI  H13R19756   2.342   2.618   9.453  1.8342  2.0226  0.7144
  174SAPI  H13S19757   2.387   2.439   9.429  1.3102 -1.2276 -2.6230
  174SAPI  C21419758   2.462   2.582   9.289  0.3753 -0.0438 -0.3257
  174SAPI  H14R19759   2.565   2.620   9.280  0.0639  0.4106 -2.8413
  174SAPI  C21519760   2.383   2.581   9.179  0.2523  0.4099 -0.4468
  174SAPI  H15R19761   2.421   2.615   9.081  0.0370  0.5544 -0.4804
  174SAPI  C21619762   2.244   2.522   9.167 -0.5500 -0.2879  0.1604
  174SAPI  H16R19763   2.172   2.573   9.235  1.1444  2.1443  0.2662
  174SAPI  H16S19764   2.244   2.414   9.194 -0.0911 -0.5400 -0.8053
  174SAPI  C21719765   2.195   2.530   9.019 -0.1978  0.0403  0.2603
  174SAPI  H17R19766   2.189   2.636   8.986  1.0739  0.0873  0.1479
  174SAPI  H17S19767   2.092   2.489   9.031  0.0336  0.1904  3.7470
  174SAPI  C21819768   2.271   2.437   8.925 -0.4491 -0.2211  0.5535
  174SAPI  H18R19769   2.254   2.331   8.955 -1.8045 -0.1625  0.0472
  174SAPI  H18S19770   2.382   2.448   8.925 -0.2044 -1.5344 -2.2353
  174SAPI  C21919771   2.217   2.461   8.784  0.5187 -0.6694  0.5855
  174SAPI  H19R19772   2.232   2.568   8.756 -0.0629 -1.0060 -1.1237
  174SAPI  H19S19773   2.110   2.433   8.780 -0.3045  1.9528  1.7984
  174SAPI  C22019774   2.284   2.384   8.676 -0.4214  0.4565  0.2197
  174SAPI  H20R19775   2.237   2.378   8.575 -1.1745 -1.1014  0.6180
  174SAPI  H20S19776   2.297   2.277   8.706 -0.5856 -0.2007 -1.8381
  174SAPI  H20T19777   2.385   2.428   8.664  1.3480 -3.0322  0.9635
  174SAPI   C3319778   2.253   3.492   9.777 -0.2785 -0.2057  0.5217
  174SAPI   H3X19779   2.292   3.596   9.780  2.2678 -0.9752 -2.3590
  174SAPI   H3Y19780   2.143   3.497   9.763  0.0994  0.5384 -2.9921
  174SAPI   C3419781   2.300   3.430   9.642 -0.0095  0.1192  0.2641
  174SAPI   H4X19782   2.280   3.321   9.638 -2.1016  0.3534  2.5647
  174SAPI   H4Y19783   2.410   3.436   9.629  0.0199 -0.4464  0.2124
  174SAPI   C3519784   2.242   3.487   9.512  0.3347  0.1987 -0.0042
  174SAPI   H5X19785   2.242   3.597   9.500 -0.6938  0.2918  0.7418
  174SAPI   H5Y19786   2.131   3.480   9.516  0.4176 -1.1891  0.4214
  174SAPI   C3619787   2.290   3.417   9.387 -0.0493  0.4144 -0.3988
  174SAPI   H6X19788   2.241   3.318   9.377  0.5110  0.1494 -0.5522
  174SAPI   H6Y19789   2.398   3.398   9.404 -0.7604 -3.8970  0.4814
  174SAPI   C3719790   2.307   3.486   9.249  0.3876  0.7354 -0.0988
  174SAPI   H7X19791   2.355   3.417   9.176  0.1599 -2.3386  2.4590
  174SAPI   H7Y19792   2.370   3.575   9.269  1.1080 -0.5036  4.3367
  174SAPI   C3819793   2.175   3.535   9.199 -0.5592  0.0180  0.3027
  174SAPI   H8X19794   2.114   3.579   9.281 -0.6921 -0.1833  0.3105
  174SAPI   H8Y19795   2.122   3.450   9.153  0.1269  0.1888 -0.8476
  174SAPI   C3919796   2.199   3.644   9.089  0.2510 -0.9747 -0.6143
  174SAPI   H9X19797   2.275   3.610   9.016  1.1900  0.7671 -0.4917
  174SAPI   H9Y19798   2.249   3.723   9.148 -0.7088 -0.3568 -0.6003
  174SAPI  C31019799   2.070   3.717   9.038 -0.4434 -0.4050 -0.8539
  174SAPI  H10X19800   2.115   3.807   8.990 -0.7919 -1.4465 -3.2349
  174SAPI  H10Y19801   2.013   3.739   9.132 -0.0420 -2.9801  0.0711
  174SAPI  C31119802   1.996   3.626   8.941  0.3339  0.0657  0.0964
  174SAPI  H11X19803   1.947   3.536   8.983 -0.2506 -1.4717 -3.4835
  174SAPI  H11Y19804   2.073   3.587   8.870 -0.7463  1.2598 -1.8368
  174SAPI  C31219805   1.887   3.706   8.858 -0.3196  0.0677 -0.0246
  174SAPI  H12X19806   1.921   3.804   8.817 -0.9231  0.9481  1.4885
  174SAPI  H12Y19807   1.808   3.744   8.926 -0.9700  0.5761 -1.0429
  174SAPI  C31319808   1.846   3.623   8.743  0.5959  0.5516 -0.3523
  174SAPI  H13X19809   1.831   3.518   8.776  0.4961  1.0671  1.3546
  174SAPI  H13Y19810   1.933   3.622   8.674  1.2578 -1.1250  0.4357
  174SAPI  C31419811   1.722   3.676   8.673 -0.2651 -0.1401 -0.1788
  174SAPI  H14X19812   1.741   3.784   8.659  0.6082 -0.4074 -1.1580
  174SAPI  H14Y19813   1.633   3.659   8.737  1.5689 -0.2759  2.4966
  174SAPI  C31519814   1.692   3.607   8.540 -0.1450  0.1372 -0.1540
  174SAPI  H15X19815   1.688   3.496   8.538  1.3712  0.0678 -1.7610
  174SAPI  H15Y19816   1.779   3.634   8.476  0.3373 -0.0898  0.4021
  174SAPI  C31619817   1.562   3.663   8.479  0.7404  0.4901  0.1782
  174SAPI  H16X19818   1.565   3.774   8.478 -0.4274  0.5271 -0.3988
  174SAPI  H16Y19819   1.485   3.621   8.549  1.7879 -0.6937  0.6687
  174SAPI  C31719820   1.542   3.610   8.339  0.1273 -0.0286 -0.9251
  174SAPI  H17X19821   1.538   3.499   8.333  2.2721 -0.1082 -1.8423
  174SAPI  H17Y19822   1.609   3.655   8.262  0.5485  3.4636  1.2668
  174SAPI  C31819823   1.401   3.651   8.291 -0.5175 -0.4546 -0.0434
  174SAPI  H18X19824   1.385   3.757   8.261  1.6898  0.0752  0.4776
  174SAPI  H18Y19825   1.320   3.625   8.363 -1.5372 -1.1607 -1.4036
  174SAPI  H18Z19826   1.380   3.597   8.196 -0.1355 -1.1923  0.2840
  175SAPI   C1219827   4.640   2.465   6.337  0.5741  0.3281  0.7855
  175SAPI    H219828   4.610   2.430   6.438 -2.5949 -0.2157 -0.2240
  175SAPI    O219829   4.569   2.392   6.247  0.9945  0.3870  0.2542
  175SAPI   HO219830   4.480   2.381   6.280  0.2731  0.5260 -1.5286
  175SAPI   C1319831   4.611   2.614   6.325  0.3529 -0.4448 -0.4309
  175SAPI    H319832   4.674   2.668   6.399 -0.0684  0.4332 -0.7030
  175SAPI    O319833   4.476   2.634   6.362  0.1467 -0.0411  0.4943
  175SAPI   HO319834   4.475   2.656   6.456  1.7454 -1.1325  0.8142
  175SAPI   C1419835   4.656   2.675   6.193 -0.9444  0.4342  0.4439
  175SAPI    H419836   4.603   2.615   6.116  0.5446  0.8245 -0.9424
  175SAPI    O419837   4.622   2.811   6.173  0.1052  0.4731  0.0538
  175SAPI   HO419838   4.549   2.840   6.228  0.9685  0.7785  1.0801
  175SAPI   C1519839   4.807   2.647   6.163 -0.3874 -0.4600 -0.4079
  175SAPI    H519840   4.867   2.701   6.240  2.5446  2.5141 -4.3248
  175SAPI    O519841   4.844   2.700   6.037 -0.3814  0.2817 -0.3895
  175SAPI   HO519842   4.933   2.735   6.050 -0.2213 -0.0458 -0.5804
  175SAPI   C1619843   4.843   2.499   6.187  0.5610 -0.5231  0.4772
  175SAPI    H619844   4.789   2.448   6.103 -0.1297  1.1819 -0.1580
  175SAPI    O619845   4.979   2.489   6.176 -0.0407 -0.1113  0.2627
  175SAPI   HO619846   4.998   2.410   6.227  1.5868  0.1750  0.1702
  175SAPI   C1119847   4.788   2.441   6.323 -0.0396 -0.0972 -0.2333
  175SAPI    H119848   4.834   2.502   6.403  1.0732  1.3446 -1.8791
  175SAPI     P19849   4.950   2.241   6.401  0.1455 -0.1485  0.2679
  175SAPI   O1319850   5.070   2.309   6.339  0.3879  0.2624 -0.0332
  175SAPI   O1419851   4.939   2.094   6.400  0.4280 -0.0304 -1.0489
  175SAPI   O1219852   4.811   2.298   6.331  0.0429 -0.3715 -0.0053
  175SAPI   O1119853   4.952   2.286   6.544  0.3187 -0.4655  0.3389
  175SAPI    C119854   4.832   2.289   6.624  0.1297 -0.2612  0.0873
  175SAPI    HA19855   4.793   2.387   6.658 -0.7388 -0.7482  0.5454
  175SAPI    HB19856   4.741   2.243   6.581 -1.7845 -0.2789  3.7190
  175SAPI    C219857   4.854   2.199   6.749 -0.2000  0.0671 -0.1136
  175SAPI    HS19858   4.882   2.101   6.706 -1.1570  0.2766 -1.2553
  175SAPI   O2119859   4.732   2.206   6.828 -0.4096 -0.2885 -0.3824
  175SAPI   C2119860   4.719   2.094   6.898 -0.2421  0.3006  0.2662
  175SAPI   O2219861   4.784   1.988   6.876  0.3899 -0.4769  0.2488
  175SAPI   C2219862   4.606   2.112   6.993  0.0309 -0.4634  0.5070
  175SAPI   H2R19863   4.637   2.165   7.086 -0.0437 -2.0103  1.4630
  175SAPI   H2S19864   4.522   2.171   6.951  0.2468 -0.1991  0.4503
  175SAPI    C319865   4.979   2.242   6.833 -0.0077 -0.5450 -0.1247
  175SAPI    HX19866   4.947   2.336   6.884 -0.4250 -0.6360 -0.2168
  175SAPI    HY19867   5.066   2.272   6.770  0.6179  3.0454  2.1768
  175SAPI   O3119868   5.013   2.150   6.937 -0.4166  0.0909 -0.4705
  175SAPI   C3119869   5.101   2.055   6.893 -0.2201  0.0031 -0.8536
  175SAPI   O3219870   5.132   2.038   6.779 -0.3576 -0.0240 -0.0079
  175SAPI   C3219871   5.115   1.950   7.012  0.4929  0.3840 -0.0987
  175SAPI   H2X19872   5.224   1.928   7.015  0.2323 -0.9868  2.3526
  175SAPI   H2Y19873   5.068   1.853   6.985  3.3715 -0.8716 -0.9328
  175SAPI   C2319874   4.555   1.972   7.049 -0.7953  0.3348 -0.0763
  175SAPI   H3R19875   4.621   1.932   7.130 -0.2699 -2.6278 -1.8322
  175SAPI   H3S19876   4.551   1.910   6.957 -1.8447  0.3921 -0.0766
  175SAPI   C2419877   4.413   1.983   7.113 -0.1708 -0.5806 -0.1226
  175SAPI   H4R19878   4.357   2.052   7.046  0.0806  0.4142  0.6820
  175SAPI   H4S19879   4.427   2.048   7.202 -1.1298  0.9317 -1.0252
  175SAPI   C2519880   4.347   1.846   7.136 -0.3359 -0.1629 -0.7638
  175SAPI   H5R19881   4.332   1.773   7.055  0.6728 -2.0780  0.6882
  175SAPI   C2619882   4.311   1.794   7.258  0.3564  0.2858 -0.0625
  175SAPI   H6R19883   4.269   1.693   7.272  1.5562 -0.4158 -1.2513
  175SAPI   C2719884   4.331   1.870   7.388  0.4880  0.1968  0.4426
  175SAPI   H7R19885   4.245   1.835   7.449  1.3082 -2.0321  0.3966
  175SAPI   H7S19886   4.304   1.977   7.372 -2.6448 -0.6947 -0.9909
  175SAPI   C2819887   4.464   1.844   7.454 -0.2892  0.2460 -0.2236
  175SAPI   H8R19888   4.554   1.884   7.406  2.1409 -2.0421  2.0835
  175SAPI   C2919889   4.477   1.755   7.556  0.8312 -0.6330  0.2395
  175SAPI   H9R19890   4.576   1.742   7.603  0.8418  1.3944  0.8829
  175SAPI  C21019891   4.374   1.668   7.624 -0.1773 -0.2455  0.4520
  175SAPI  H10R19892   4.330   1.590   7.557 -1.1698 -0.7093  1.6193
  175SAPI  H10S19893   4.290   1.737   7.648 -0.2191 -0.1820  0.1316
  175SAPI  C21119894   4.427   1.588   7.738 -0.2891  0.1464 -0.4012
  175SAPI  H11R19895   4.481   1.495   7.713  0.9361  0.2537  1.6340
  175SAPI  C21219896   4.425   1.619   7.867 -0.1923 -0.2191 -0.0444
  175SAPI  H12R19897   4.451   1.537   7.936  1.4527  0.2109 -0.1183
  175SAPI  C21319898   4.368   1.750   7.921 -0.1271 -0.2856 -0.5008
  175SAPI  H13R19899   4.261   1.763   7.895 -0.2488  0.6377  0.4019
  175SAPI  H13S19900   4.411   1.843   7.878 -1.5280  0.8348  0.4296
  175SAPI  C21419901   4.372   1.735   8.074  0.4266 -0.0189  0.2389
  175SAPI  H14R19902   4.277   1.704   8.120 -0.7856  0.4013 -1.8396
  175SAPI  C21519903   4.471   1.777   8.156 -0.3925 -0.8051  0.5829
  175SAPI  H15R19904   4.468   1.764   8.265  3.0108 -2.4661  0.6277
  175SAPI  C21619905   4.604   1.833   8.101  0.2582 -0.3079  0.4562
  175SAPI  H16R19906   4.600   1.912   8.023  0.2675  0.1299  0.8966
  175SAPI  H16S19907   4.660   1.754   8.046 -0.5519 -0.5759 -0.0021
  175SAPI  C21719908   4.692   1.890   8.211 -0.3765  0.0911  0.1395
  175SAPI  H17R19909   4.734   1.805   8.268 -1.5393 -0.9246 -0.4828
  175SAPI  H17S19910   4.622   1.950   8.273 -1.3239 -0.2737 -0.5568
  175SAPI  C21819911   4.803   1.989   8.159 -0.0405 -0.4561 -0.0440
  175SAPI  H18R19912   4.836   2.054   8.242 -1.4969 -1.6064  1.5007
  175SAPI  H18S19913   4.770   2.058   8.079 -0.5029 -0.8573 -0.2101
  175SAPI  C21919914   4.924   1.928   8.087 -0.0420 -1.0774  0.2372
  175SAPI  H19R19915   4.902   1.917   7.979 -2.4857 -0.6294  0.6348
  175SAPI  H19S19916   4.932   1.828   8.135  1.4373 -0.5417  1.1882
  175SAPI  C22019917   5.051   2.005   8.108 -0.1574  0.5215  0.1170
  175SAPI  H20R19918   5.073   2.017   8.216 -0.1608  0.5720  0.1120
  175SAPI  H20S19919   5.045   2.101   8.051  0.1167 -0.0150 -0.8512
  175SAPI  H20T19920   5.134   1.956   8.052 -2.0914 -1.6990 -1.0331
  175SAPI   C3319921   5.083   2.002   7.154  0.1882  0.6120 -0.6491
  175SAPI   H3X19922   5.085   2.113   7.146 -0.7225  0.5151 -3.2177
  175SAPI   H3Y19923   5.157   1.951   7.219 -0.6435  0.7713  0.4522
  175SAPI   C3419924   4.941   1.952   7.189 -0.7159  0.1988 -0.0687
  175SAPI   H4X19925   4.934   1.841   7.182  1.2041  0.0131  0.5766
  175SAPI   H4Y19926   4.882   1.977   7.098 -0.7860 -1.5793 -0.5574
  175SAPI   C3519927   4.879   2.024   7.314 -0.2341  0.5389  0.3826
  175SAPI   H5X19928   4.770   2.005   7.306 -0.1231  0.2804 -0.6106
  175SAPI   H5Y19929   4.902   2.132   7.303  0.8004  0.1288 -2.1712
  175SAPI   C3619930   4.946   1.978   7.443  0.2939 -0.5589 -0.3944
  175SAPI   H6X19931   5.054   1.996   7.427  0.8706  0.9876  3.8370
  175SAPI   H6Y19932   4.935   1.869   7.460 -2.1995 -0.0887  1.6828
  175SAPI   C3719933   4.897   2.054   7.571 -0.2347  0.2354  0.2209
  175SAPI   H7X19934   4.916   2.163   7.556  1.7309  0.1663  1.7767
  175SAPI   H7Y19935   4.959   2.023   7.658 -0.5912  0.9044  0.7223
  175SAPI   C3819936   4.755   2.024   7.612  0.0620  0.3985  0.6346
  175SAPI   H8X19937   4.759   1.921   7.654  3.9755 -0.3582 -1.0803
  175SAPI   H8Y19938   4.688   2.026   7.523 -0.6948  2.3475  1.2072
  175SAPI   C3919939   4.697   2.131   7.703  0.3418 -0.1744 -0.4527
  175SAPI   H9X19940   4.720   2.226   7.650  2.1648 -1.2913 -1.7711
  175SAPI   H9Y19941   4.738   2.143   7.806  2.1202 -2.8127 -0.7723
  175SAPI  C31019942   4.545   2.110   7.732 -1.0914 -0.0360  0.3932
  175SAPI  H10X19943   4.534   2.011   7.782 -2.7448 -1.3607 -2.3626
  175SAPI  H10Y19944   4.487   2.112   7.637 -2.2383 -1.3161  1.0205
  175SAPI  C31119945   4.484   2.222   7.832  0.3837 -0.0449  0.3541
  175SAPI  H11X19946   4.511   2.318   7.782 -0.4002 -1.2585 -2.6687
  175SAPI  H11Y19947   4.532   2.202   7.930  0.1718 -0.6624  0.3387
  175SAPI  C31219948   4.332   2.227   7.850 -0.3247  0.1257 -0.2890
  175SAPI  H12X19949   4.302   2.124   7.881 -0.3483  1.0376  3.0916
  175SAPI  H12Y19950   4.278   2.249   7.755  0.8469  0.1358 -0.9721
  175SAPI  C31319951   4.294   2.335   7.949  0.5299 -0.4245 -0.9942
  175SAPI  H13X19952   4.293   2.436   7.903 -0.1579 -1.2392 -2.8951
  175SAPI  H13Y19953   4.366   2.337   8.034 -1.4942  1.7798  0.8020
  175SAPI  C31419954   4.147   2.319   8.003 -0.2356 -1.1416  0.0279
  175SAPI  H14X19955   4.133   2.219   8.049  1.3004  0.4397  4.4670
  175SAPI  H14Y19956   4.078   2.327   7.916 -2.3955 -2.3247  1.5165
  175SAPI  C31519957   4.100   2.441   8.099  0.2937  0.2767  0.4477
  175SAPI  H15X19958   4.068   2.526   8.036 -3.7000  0.3128  2.2709
  175SAPI  H15Y19959   4.174   2.478   8.173  1.3668 -0.5506 -0.1754
  175SAPI  C31619960   3.981   2.402   8.191  0.3385  0.3893 -0.7314
  175SAPI  H16X19961   4.026   2.315   8.242  0.8344  1.1199  0.1078
  175SAPI  H16Y19962   3.890   2.376   8.132 -0.0478 -0.4207  0.2028
  175SAPI  C31719963   3.937   2.517   8.281 -0.3125  0.1451 -0.7273
  175SAPI  H17X19964   3.842   2.486   8.330  0.0922 -2.7493 -1.6155
  175SAPI  H17Y19965   3.918   2.598   8.206  1.1083  0.2502 -1.0023
  175SAPI  C31819966   4.044   2.569   8.386  0.1070 -0.5056  0.1384
  175SAPI  H18X19967   3.989   2.630   8.461 -0.1685 -0.7343  0.1199
  175SAPI  H18Y19968   4.116   2.639   8.337  1.3858 -0.0304  2.5150
  175SAPI  H18Z19969   4.100   2.486   8.434 -1.0028 -1.3813 -0.0559
  176SAPI   C1219970   6.369   3.665   6.490 -0.4955 -0.0580  0.4563
  176SAPI    H219971   6.285   3.678   6.562 -0.8254  0.7461 -0.0533
  176SAPI    O219972   6.494   3.650   6.551  0.6785 -0.7217  0.0867
  176SAPI   HO219973   6.484   3.630   6.645 -0.5496 -1.0595 -0.1035
  176SAPI   C1319974   6.338   3.538   6.414 -0.0560  0.6427  0.2608
  176SAPI    H319975   6.237   3.560   6.375 -0.7107 -0.0840  1.4621
  176SAPI    O319976   6.318   3.425   6.497 -0.0745  0.1457  0.0034
  176SAPI   HO319977   6.404   3.385   6.510  0.4602  1.3102  0.1869
  176SAPI   C1419978   6.441   3.517   6.294  0.8351 -0.2591  0.7370
  176SAPI    H419979   6.543   3.508   6.339  1.2874 -1.4582 -0.4717
  176SAPI    O419980   6.410   3.389   6.231  0.3082 -0.2976 -0.2456
  176SAPI   HO419981   6.491   3.356   6.190 -0.6829 -3.0006 -0.2425
  176SAPI   C1519982   6.446   3.634   6.195  0.2277  0.0386  0.5171
  176SAPI    H519983   6.341   3.635   6.160  0.0640 -0.7427  0.9698
  176SAPI    O519984   6.539   3.609   6.090 -0.1138 -0.2740  0.4023
  176SAPI   HO519985   6.628   3.627   6.122  0.0630  1.2856 -0.8483
  176SAPI   C1619986   6.467   3.761   6.275  0.3523  0.2498  0.3881
  176SAPI    H619987   6.575   3.754   6.303  0.9001  2.9855 -0.7177
  176SAPI    O619988   6.453   3.876   6.183 -0.4637  0.4127 -0.0953
  176SAPI   HO619989   6.381   3.854   6.123 -0.6031 -0.9177  0.5088
  176SAPI   C1119990   6.366   3.779   6.387 -0.2252  0.3104 -0.6363
  176SAPI    H119991   6.269   3.794   6.335 -0.2284  0.2842 -0.6377
  176SAPI     P19992   6.306   4.017   6.489 -0.2088 -0.0201 -0.1401
  176SAPI   O1319993   6.178   3.961   6.540 -0.0042 -0.1999 -0.0787
  176SAPI   O1419994   6.291   4.107   6.378  0.2169 -0.4653  0.4706
  176SAPI   O1219995   6.406   3.894   6.456 -0.0547  0.5746 -0.4692
  176SAPI   O1119996   6.381   4.092   6.609  0.2877 -0.4189 -0.1961
  176SAPI    C119997   6.438   4.020   6.719 -0.6648  0.0529 -0.7124
  176SAPI    HA19998   6.534   3.976   6.685  0.5946  1.8083  0.4134
  176SAPI    HB19999   6.473   4.096   6.793  1.5066 -1.6165  0.0607
  176SAPI    C220000   6.354   3.908   6.781 -0.5252 -0.3708  0.0709
  176SAPI    HS20001   6.322   3.836   6.702  0.1132  0.8378 -1.3397
  176SAPI   O2120002   6.235   3.963   6.844  0.0124 -0.6809  0.6498
  176SAPI   C2120003   6.143   3.875   6.879  0.5070  0.1802 -0.0975
  176SAPI   O2220004   6.136   3.762   6.847 -0.3117  0.5529 -0.2617
  176SAPI   C2220005   6.038   3.936   6.969  0.2503 -0.4169 -0.0231
  176SAPI   H2R20006   6.060   4.044   6.981 -1.5268 -0.1620  1.3227
  176SAPI   H2S20007   5.938   3.939   6.920 -0.2984  1.7446  1.1224
  176SAPI    C320008   6.441   3.823   6.882  0.2417  0.1692 -0.2018
  176SAPI    HX20009   6.469   3.894   6.963 -2.3271  0.2320  0.7337
  176SAPI    HY20010   6.524   3.779   6.822  0.2836  2.1709 -1.7066
  176SAPI   O3120011   6.368   3.711   6.946 -0.4812 -0.0512 -0.0830
  176SAPI   C3120012   6.374   3.588   6.899  0.0504  0.6096  0.5794
  176SAPI   O3220013   6.445   3.553   6.803  0.0003 -0.1110 -1.0438
  176SAPI   C3220014   6.296   3.498   6.995  0.2210 -0.2271  0.4970
  176SAPI   H2X20015   6.190   3.524   6.974  0.8481  1.2453 -1.0404
  176SAPI   H2Y20016   6.328   3.525   7.098  1.1763 -0.2430  0.2106
  176SAPI   C2320017   6.023   3.861   7.098 -0.7711  0.0734  0.3217
  176SAPI   H3R20018   5.989   3.757   7.080 -0.2990  0.0464 -0.4654
  176SAPI   H3S20019   5.941   3.906   7.157 -0.2406  0.4750  0.7645
  176SAPI   C2420020   6.140   3.869   7.188 -0.6930 -0.3372  0.3851
  176SAPI   H4R20021   6.225   3.818   7.137 -0.8969 -0.7415  0.4519
  176SAPI   H4S20022   6.111   3.813   7.279 -4.1596  2.2264  1.0521
  176SAPI   C2520023   6.171   4.011   7.213  0.0718  0.1377 -0.6577
  176SAPI   H5R20024   6.212   4.071   7.131  0.0809 -0.2669 -0.9545
  176SAPI   C2620025   6.180   4.071   7.332  0.3897  0.1152 -0.4527
  176SAPI   H6R20026   6.204   4.178   7.338 -0.4483  0.2979 -0.2616
  176SAPI   C2720027   6.164   4.000   7.467 -0.5152 -0.9415  0.2063
  176SAPI   H7R20028   6.265   3.967   7.497  0.1660  0.7386 -0.1016
  176SAPI   H7S20029   6.102   3.908   7.467 -1.3073 -0.4444  1.4654
  176SAPI   C2820030   6.103   4.081   7.572 -0.3488 -0.4069  0.3714
  176SAPI   H8R20031   6.031   4.153   7.530  0.5523  0.3030  0.0086
  176SAPI   C2920032   6.129   4.086   7.705 -0.4361 -0.5734 -0.1758
  176SAPI   H9R20033   6.074   4.157   7.769  0.2756  0.4808 -0.7127
  176SAPI  C21020034   6.223   3.985   7.772  0.0887 -1.0588 -0.1987
  176SAPI  H10R20035   6.269   3.903   7.712  2.9217  0.9838 -1.0416
  176SAPI  H10S20036   6.163   3.936   7.851  0.7636 -1.1032  0.2922
  176SAPI  C21120037   6.338   4.068   7.824 -0.2990 -0.2773  0.1719
  176SAPI  H11R20038   6.369   4.154   7.763  0.0638  1.1742  2.2824
  176SAPI  C21220039   6.386   4.041   7.951 -0.7678  0.2918  1.0078
  176SAPI  H12R20040   6.470   4.102   7.987 -0.0382  0.1639 -0.4342
  176SAPI  C21320041   6.353   3.931   8.046  0.5316 -1.0502 -0.2541
  176SAPI  H13R20042   6.440   3.901   8.109 -0.3611  0.4603  1.7965
  176SAPI  H13S20043   6.330   3.834   7.996 -0.1425 -2.3130  2.3618
  176SAPI  C21420044   6.242   3.960   8.148 -0.2376 -0.0982 -0.3271
  176SAPI  H14R20045   6.155   3.893   8.136  0.9895 -1.8418  0.1469
  176SAPI  C21520046   6.246   4.050   8.255  0.1923  0.5546 -0.2709
  176SAPI  H15R20047   6.154   4.062   8.315 -0.5652  0.6954 -1.4322
  176SAPI  C21620048   6.356   4.137   8.293 -0.0143  0.4357 -0.2946
  176SAPI  H16R20049   6.366   4.235   8.241  1.2980  0.3543 -0.2340
  176SAPI  H16S20050   6.452   4.093   8.258 -0.8798 -1.2390 -0.6643
  176SAPI  C21720051   6.368   4.162   8.453  0.3062  0.1534  0.6992
  176SAPI  H17R20052   6.269   4.209   8.469  0.3366  0.9774 -1.2092
  176SAPI  H17S20053   6.456   4.230   8.461  0.9547 -0.4615 -0.7499
  176SAPI  C21820054   6.388   4.032   8.526 -0.1929 -0.4361  0.2928
  176SAPI  H18R20055   6.489   3.999   8.495 -0.0338 -1.5159  1.8305
  176SAPI  H18S20056   6.313   3.955   8.496 -0.6847  0.1157  0.0938
  176SAPI  C21920057   6.368   4.053   8.681 -0.2185  0.6939 -0.3817
  176SAPI  H19R20058   6.427   3.981   8.742 -0.6570  0.1847 -0.5556
  176SAPI  H19S20059   6.262   4.040   8.710  0.2512 -0.5827  0.9155
  176SAPI  C22020060   6.403   4.195   8.735 -0.2237  0.4176 -0.1219
  176SAPI  H20R20061   6.390   4.199   8.845  0.1409 -1.5894  0.0344
  176SAPI  H20S20062   6.343   4.275   8.686 -1.8105  1.1072  2.7111
  176SAPI  H20T20063   6.510   4.212   8.710  0.1310 -2.3339 -0.8532
  176SAPI   C3320064   6.321   3.356   6.949  0.4246 -0.2728 -0.3279
  176SAPI   H3X20065   6.424   3.319   6.966  0.3300 -1.4159 -2.0081
  176SAPI   H3Y20066   6.320   3.348   6.838 -0.5993 -0.5139 -0.3056
  176SAPI   C3420067   6.229   3.245   7.016 -0.0527  0.6690 -0.2027
  176SAPI   H4X20068   6.258   3.156   6.956 -1.0746  0.6674 -0.7148
  176SAPI   H4Y20069   6.121   3.269   7.008 -0.3009  0.6126  2.2547
  176SAPI   C3520070   6.269   3.217   7.161 -0.0553 -0.6067 -0.5745
  176SAPI   H5X20071   6.380   3.210   7.166 -0.0582 -0.1883  0.3596
  176SAPI   H5Y20072   6.235   3.116   7.192 -0.3697 -0.5298 -0.6615
  176SAPI   C3620073   6.223   3.322   7.272  1.0218 -0.2216 -0.1486
  176SAPI   H6X20074   6.120   3.347   7.239  1.8010  1.8385 -1.2102
  176SAPI   H6Y20075   6.294   3.408   7.265 -0.6004  1.2376  0.7029
  176SAPI   C3720076   6.220   3.265   7.412  0.2413  0.2536  0.0849
  176SAPI   H7X20077   6.169   3.166   7.408  0.2409  0.2810 -0.6126
  176SAPI   H7Y20078   6.157   3.333   7.472 -0.6563 -0.9050  0.5096
  176SAPI   C3820079   6.364   3.250   7.464  0.0322  0.5067 -0.1383
  176SAPI   H8X20080   6.398   3.351   7.432 -0.1415  0.5407 -0.2149
  176SAPI   H8Y20081   6.408   3.176   7.394 -0.0421 -0.6296  0.9738
  176SAPI   C3920082   6.383   3.222   7.617 -0.2372  0.0306  0.3173
  176SAPI   H9X20083   6.492   3.203   7.632 -0.3574 -0.2927  0.7832
  176SAPI   H9Y20084   6.326   3.134   7.650 -2.0900  0.1036 -2.3218
  176SAPI  C31020085   6.348   3.338   7.707 -0.0256 -0.0459 -0.1502
  176SAPI  H10X20086   6.243   3.373   7.704  0.7924  2.7245  0.1974
  176SAPI  H10Y20087   6.414   3.425   7.686  0.5454 -0.4719 -0.1459
  176SAPI  C31120088   6.394   3.311   7.852  0.0468  0.3295  0.4170
  176SAPI  H11X20089   6.504   3.293   7.848  0.2533  0.9020  2.3108
  176SAPI  H11Y20090   6.347   3.220   7.894  0.3388 -0.3672 -0.7419
  176SAPI  C31220091   6.363   3.446   7.934  0.9388  0.1793 -0.8491
  176SAPI  H12X20092   6.253   3.458   7.941  1.3282  4.4681  0.9315
  176SAPI  H12Y20093   6.403   3.544   7.901  2.5830 -0.0399  0.3701
  176SAPI  C31320094   6.410   3.450   8.084 -0.4885 -0.4645  0.1213
  176SAPI  H13X20095   6.518   3.476   8.089 -0.1996 -1.7144  1.3455
  176SAPI  H13Y20096   6.381   3.351   8.127 -2.7222  0.3911  0.6924
  176SAPI  C31420097   6.317   3.553   8.159 -0.1921  0.6163 -0.3841
  176SAPI  H14X20098   6.219   3.506   8.136  1.8171 -4.4518  0.0790
  176SAPI  H14Y20099   6.323   3.655   8.115  0.5189  0.4950 -0.5910
  176SAPI  C31520100   6.327   3.545   8.310 -0.9863 -0.9091 -0.4653
  176SAPI  H15X20101   6.331   3.440   8.346 -1.2758 -0.3924  1.1371
  176SAPI  H15Y20102   6.246   3.599   8.363  1.1834  0.8661  1.2155
  176SAPI  C31620103   6.466   3.600   8.357 -0.0700  0.5958  0.0603
  176SAPI  H16X20104   6.482   3.695   8.303 -1.2479  0.9034  0.2109
  176SAPI  H16Y20105   6.552   3.530   8.350 -0.2412  0.4613 -0.7939
  176SAPI  C31720106   6.458   3.629   8.509 -0.2381  0.0162 -0.1817
  176SAPI  H17X20107   6.401   3.724   8.516  0.4303  0.6807 -2.6313
  176SAPI  H17Y20108   6.558   3.657   8.548 -0.9872 -0.2005  2.0389
  176SAPI  C31820109   6.403   3.517   8.599 -0.4690  0.4788 -0.8050
  176SAPI  H18X20110   6.292   3.513   8.598 -0.7427  3.3648  1.3225
  176SAPI  H18Y20111   6.432   3.534   8.705 -2.3968 -0.9928  0.0085
  176SAPI  H18Z20112   6.451   3.424   8.564 -0.9964  0.0767 -0.4715
  177SLPC     N20113   3.442   3.355  11.191 -0.1826 -0.1280  0.1498
  177SLPC   C1320114   3.491   3.398  11.325  0.0192  0.1118 -0.3690
  177SLPC  H13A20115   3.580   3.344  11.352  0.1574 -0.3107 -1.6259
  177SLPC  H13B20116   3.538   3.495  11.322  3.5870 -1.4949 -2.4095
  177SLPC  H13C20117   3.423   3.387  11.409  1.1473 -0.1077  0.5295
  177SLPC   C1420118   3.397   3.205  11.209  0.1478  0.2729 -0.0905
  177SLPC  H14A20119   3.334   3.196  11.296  0.6413  2.1668  0.5235
  177SLPC  H14B20120   3.340   3.174  11.123 -1.3546 -0.0150  0.9758
  177SLPC  H14C20121   3.486   3.145  11.210  0.2746  0.4253  2.0891
  177SLPC   C1520122   3.556   3.361  11.095 -0.0206  0.1926 -0.4271
  177SLPC  H15A20123   3.515   3.310  11.009 -2.9896 -1.8179  1.9817
  177SLPC  H15B20124   3.567   3.464  11.065  0.4234 -0.2120 -1.7262
  177SLPC  H15C20125   3.643   3.305  11.127  0.5637  1.3159  0.0186
  177SLPC   C1220126   3.326   3.440  11.153  0.5687 -0.1068  0.3198
  177SLPC  H12A20127   3.361   3.542  11.162  1.3037 -0.4180  1.1464
  177SLPC  H12B20128   3.240   3.435  11.218 -2.4568  2.3087 -3.0878
  177SLPC   C1120129   3.263   3.429  11.008 -0.2123  0.6033  0.1739
  177SLPC  H11A20130   3.173   3.493  11.013 -1.1807 -0.7524  0.8582
  177SLPC  H11B20131   3.218   3.330  10.985  0.7465  0.8104 -2.9940
  177SLPC     P20132   3.322   3.523  10.771 -0.5455 -0.0249  0.0962
  177SLPC   O1320133   3.214   3.620  10.794 -0.5197 -0.4949  0.6708
  177SLPC   O1420134   3.442   3.579  10.712 -0.5507 -0.5173 -0.1204
  177SLPC   O1220135   3.364   3.463  10.907  0.1828 -0.0445 -0.2146
  177SLPC   O1120136   3.275   3.397  10.698 -0.1339 -0.7176 -0.2016
  177SLPC    C120137   3.340   3.274  10.700  0.4768  1.2319 -0.2211
  177SLPC    HA20138   3.379   3.237  10.797 -0.7427  0.0895 -0.1492
  177SLPC    HB20139   3.265   3.196  10.676  0.9653  0.6245  0.1865
  177SLPC    C220140   3.457   3.258  10.596  0.2977  0.1536  0.3694
  177SLPC    HS20141   3.547   3.313  10.630  0.2237 -1.2737  3.1397
  177SLPC   O2120142   3.409   3.302  10.462  0.2527 -0.1087 -0.3200
  177SLPC   C2120143   3.495   3.357  10.376  0.3785  0.0902  0.0264
  177SLPC   O2220144   3.614   3.384  10.402 -0.4156 -0.0694  0.4391
  177SLPC   C2220145   3.432   3.362  10.239  0.0826 -0.2582 -0.4069
  177SLPC   H2R20146   3.387   3.267  10.204 -3.2166  0.8165  0.5477
  177SLPC   H2S20147   3.343   3.428  10.249 -1.6558 -2.6930  1.3513
  177SLPC    C320148   3.518   3.119  10.574  0.6815  0.1380  0.0959
  177SLPC    HX20149   3.581   3.099  10.663 -0.7035  1.4758  1.4537
  177SLPC    HY20150   3.579   3.117  10.481  0.8664 -1.3987  0.2306
  177SLPC   O3120151   3.411   3.023  10.563  0.0191  0.1624 -0.4685
  177SLPC   C3120152   3.387   2.960  10.443  0.3037 -0.2905 -0.0861
  177SLPC   O3220153   3.463   2.946  10.351  0.5630 -0.5833 -0.3822
  177SLPC   C3220154   3.243   2.912  10.443  0.0146  0.3642 -0.5964
  177SLPC   H2X20155   3.195   2.983  10.372  0.3594  1.5321  0.2945
  177SLPC   H2Y20156   3.186   2.922  10.538  1.3082  1.0181  0.1439
  177SLPC   C2320157   3.528   3.427  10.139  0.2875  0.1580  0.2595
  177SLPC   H3R20158   3.612   3.356  10.120 -1.2402 -1.4831 -0.7792
  177SLPC   H3S20159   3.563   3.524  10.180 -0.4890  1.3301 -1.7028
  177SLPC   C2420160   3.466   3.460  10.005 -0.1108 -0.5018  0.0301
  177SLPC   H4R20161   3.394   3.543  10.022  2.0354  1.2153  1.3933
  177SLPC   H4S20162   3.428   3.366   9.960  1.0429 -0.6144 -0.7842
  177SLPC   C2520163   3.579   3.509   9.916 -0.1959  0.5686 -0.2082
  177SLPC   H5R20164   3.664   3.438   9.925 -0.8240 -0.1030  0.6838
  177SLPC   H5S20165   3.619   3.603   9.961  1.2501 -1.4434  3.0535
  177SLPC   C2620166   3.528   3.503   9.766 -0.8934 -0.0496 -0.5714
  177SLPC   H6R20167   3.475   3.595   9.733 -0.0020  0.5093 -0.4968
  177SLPC   H6S20168   3.455   3.420   9.766  1.3895 -2.2079 -1.2111
  177SLPC   C2720169   3.641   3.497   9.666  0.1526 -0.1168  0.1061
  177SLPC   H7R20170   3.688   3.397   9.659  0.7492  0.2121 -0.6797
  177SLPC   H7S20171   3.717   3.572   9.695 -0.1506  0.5507 -0.7749
  177SLPC   C2820172   3.601   3.554   9.525 -0.2003  0.5020  0.6869
  177SLPC   H8R20173   3.699   3.571   9.477 -0.3659 -0.7102 -0.1266
  177SLPC   H8S20174   3.562   3.658   9.530  0.6306  0.8733 -0.2589
  177SLPC   C2920175   3.499   3.458   9.457 -0.9461 -0.2685  0.1069
  177SLPC   H9R20176   3.428   3.423   9.533  0.0853  2.9147  2.7993
  177SLPC  C21020177   3.504   3.412   9.329  0.2648 -0.3773 -0.0693
  177SLPC  H10R20178   3.426   3.341   9.297  0.5658 -1.5368  1.5931
  177SLPC  C21120179   3.609   3.447   9.226  0.8564  0.0739 -0.7110
  177SLPC  H11R20180   3.704   3.479   9.273  0.6230 -0.7425  0.3701
  177SLPC  H11S20181   3.639   3.350   9.181  1.0130 -1.0456  1.6712
  177SLPC  C21220182   3.546   3.557   9.137 -0.0218 -0.1012 -0.2027
  177SLPC  H12R20183   3.510   3.652   9.179 -0.9928  1.4141 -4.0782
  177SLPC  C21320184   3.530   3.539   9.001  0.0785 -0.3987  0.1711
  177SLPC  H13R20185   3.474   3.615   8.944  0.9657  0.6389  0.6465
  177SLPC  C21420186   3.581   3.422   8.920  0.1218 -0.2269  0.7691
  177SLPC  H14R20187   3.511   3.338   8.940 -0.9385  0.4065 -0.1575
  177SLPC  H14S20188   3.681   3.379   8.940 -0.0029 -1.3899 -0.9307
  177SLPC  C21520189   3.585   3.458   8.770 -0.7559 -0.8441  0.0773
  177SLPC  H15R20190   3.658   3.539   8.750  0.1381 -1.1219  1.9917
  177SLPC  H15S20191   3.490   3.501   8.732  0.7713  1.4269 -1.4384
  177SLPC  C21620192   3.643   3.344   8.679  0.2226 -0.3428  0.4610
  177SLPC  H16R20193   3.619   3.380   8.577  4.3714 -1.4176 -1.1137
  177SLPC  H16S20194   3.584   3.253   8.703 -0.5566  0.2826  0.9741
  177SLPC  C21720195   3.794   3.328   8.673 -0.3434  0.5210 -0.5538
  177SLPC  H17R20196   3.833   3.275   8.763  0.2765 -0.6273 -1.4871
  177SLPC  H17S20197   3.834   3.432   8.663 -0.5478  0.6174 -0.3875
  177SLPC  C21820198   3.844   3.255   8.555  0.4390  0.3448 -0.1954
  177SLPC  H18R20199   3.833   3.146   8.577  1.5068  0.6475  2.1571
  177SLPC  H18S20200   3.951   3.282   8.548  1.2312 -1.9115  1.6337
  177SLPC  H18T20201   3.788   3.284   8.464  0.0410  1.5117  0.4018
  177SLPC   C3320202   3.216   2.777  10.386  0.5366  0.2831 -0.1587
  177SLPC   H3X20203   3.257   2.705  10.460  0.5309  0.8853  0.4415
  177SLPC   H3Y20204   3.273   2.761  10.292 -1.1209 -0.8795 -1.0130
  177SLPC   C3420205   3.067   2.754  10.345  0.1285  0.2416 -0.1249
  177SLPC   H4X20206   3.014   2.752  10.443  0.3695 -2.4847  0.0251
  177SLPC   H4Y20207   3.056   2.654  10.298  0.9795  0.4881 -0.8721
  177SLPC   C3520208   3.007   2.862  10.250  0.2489 -1.2472 -0.7730
  177SLPC   H5X20209   2.978   2.939  10.325 -2.0249 -1.7937 -1.0343
  177SLPC   H5Y20210   2.910   2.825  10.212 -0.5950 -0.1691  0.2562
  177SLPC   C3620211   3.085   2.911  10.130  0.4334  0.6806 -0.7652
  177SLPC   H6X20212   3.083   2.833  10.051  1.4196 -1.2964  1.0380
  177SLPC   H6Y20213   3.190   2.936  10.156  1.3450 -2.4527 -1.0656
  177SLPC   C3720214   3.010   3.030  10.080  0.1858  0.5940  0.6238
  177SLPC   H7X20215   2.991   3.106  10.160  1.2110  0.2359  1.2262
  177SLPC   H7Y20216   2.915   2.987  10.042  1.1487 -1.5292  0.4795
  177SLPC   C3820217   3.084   3.103   9.970  0.1063 -0.2070 -0.0365
  177SLPC   H8X20218   3.101   3.032   9.887 -0.9217 -0.2845 -0.1961
  177SLPC   H8Y20219   3.180   3.134  10.016 -0.8383 -0.0252  1.8966
  177SLPC   C3920220   3.021   3.233   9.925 -0.4639 -0.0088 -0.5634
  177SLPC   H9X20221   3.002   3.294  10.016 -0.6313  1.6664 -1.6766
  177SLPC   H9Y20222   2.920   3.202   9.891 -0.5109  0.2107 -0.6311
  177SLPC  C31020223   3.104   3.305   9.822 -0.1692  0.3772 -0.3167
  177SLPC  H10X20224   3.209   3.299   9.858 -0.5596 -1.1122  0.6640
  177SLPC  H10Y20225   3.096   3.416   9.818 -2.1672  0.2437 -1.5489
  177SLPC  C31120226   3.113   3.248   9.678 -0.0137 -0.4917  0.9423
  177SLPC  H11X20227   3.133   3.140   9.690 -0.8137 -0.6517  0.8915
  177SLPC  H11Y20228   3.202   3.288   9.624 -1.0488 -0.4827 -0.8109
  177SLPC  C31220229   2.986   3.270   9.591 -0.4073 -0.2423 -0.2076
  177SLPC  H12X20230   2.967   3.380   9.589  0.4198 -0.0874 -2.0846
  177SLPC  H12Y20231   2.900   3.221   9.642  0.1973 -0.8560  0.2325
  177SLPC  C31320232   2.996   3.215   9.451  0.2192 -0.0670 -0.5058
  177SLPC  H13X20233   2.907   3.255   9.399 -0.8544 -0.0707  1.2245
  177SLPC  H13Y20234   2.981   3.105   9.445 -1.2209  0.2045 -2.8583
  177SLPC  C31420235   3.115   3.261   9.362 -0.0884  0.6145  0.7111
  177SLPC  H14X20236   3.204   3.213   9.408 -0.8496 -1.9546 -0.2895
  177SLPC  H14Y20237   3.124   3.371   9.365  1.2999  0.5322  0.2283
  177SLPC  C31520238   3.092   3.222   9.213 -0.3752 -0.6336  0.0153
  177SLPC  H15X20239   3.004   3.276   9.174 -0.0780 -0.5285 -0.5263
  177SLPC  H15Y20240   3.079   3.113   9.203  0.3695 -0.5395 -2.7746
  177SLPC  C31620241   3.214   3.257   9.127  0.2242  0.5545  0.0049
  177SLPC  H16X20242   3.303   3.203   9.166 -0.6210 -0.0669  1.1383
  177SLPC  H16Y20243   3.232   3.366   9.134 -2.0418  1.0958 -1.4662
  177SLPC  C31720244   3.199   3.235   8.970 -0.1864 -0.0201  0.2426
  177SLPC  H17X20245   3.295   3.268   8.926 -1.2629  0.3782 -1.9683
  177SLPC  H17Y20246   3.129   3.309   8.926  1.6543  0.6744 -1.6770
  177SLPC  C31820247   3.163   3.087   8.923  0.0606 -0.5754  0.5274
  177SLPC  H18X20248   3.100   3.045   9.004  0.6781 -1.7190  0.4217
  177SLPC  H18Y20249   3.254   3.030   8.896  0.3935  0.0835  0.2363
  177SLPC  H18Z20250   3.103   3.110   8.833  3.3208  0.2155 -1.6218
  178SLPC     N20251   5.023   3.823  11.039 -0.3549  0.7155  0.3301
  178SLPC   C1320252   4.982   3.950  11.108 -0.0028 -0.0145  0.1056
  178SLPC  H13A20253   5.052   4.025  11.074  0.7397 -0.8318 -0.2314
  178SLPC  H13B20254   4.886   3.966  11.061  0.4453  0.2321 -0.7433
  178SLPC  H13C20255   4.978   3.948  11.216  0.2709  0.9070  0.1374
  178SLPC   C1420256   4.936   3.715  11.095  0.4929 -0.3756 -0.1398
  178SLPC  H14A20257   4.956   3.618  11.051  1.5813 -0.6265  0.8429
  178SLPC  H14B20258   4.952   3.709  11.201  0.3141  1.3533  0.0143
  178SLPC  H14C20259   4.831   3.727  11.074  0.2993  2.5213  1.9219
  178SLPC   C1520260   5.166   3.781  11.074 -0.4549 -0.0494 -0.2428
  178SLPC  H15A20261   5.178   3.743  11.174  2.3162  0.7165 -0.2037
  178SLPC  H15B20262   5.214   3.706  11.014 -0.2865 -1.6533  1.8004
  178SLPC  H15C20263   5.231   3.867  11.066 -0.6206  0.3200  1.8327
  178SLPC   C1220264   5.010   3.818  10.891  0.2763 -0.3396 -0.0012
  178SLPC  H12A20265   5.015   3.712  10.868 -0.2763 -0.5390  0.7666
  178SLPC  H12B20266   5.091   3.861  10.834  0.8364 -1.5471 -0.1658
  178SLPC   C1120267   4.879   3.871  10.838 -0.4568 -0.2469 -0.1140
  178SLPC  H11A20268   4.790   3.833  10.893 -1.1979  0.6752 -0.6452
  178SLPC  H11B20269   4.858   3.833  10.736 -0.0435  0.8341 -0.6181
  178SLPC     P20270   4.757   4.099  10.865  0.4568  0.1138  0.2949
  178SLPC   O1320271   4.714   4.065  11.003  0.1269  0.1966 -0.5421
  178SLPC   O1420272   4.804   4.241  10.848 -0.1230 -0.0451  0.4426
  178SLPC   O1220273   4.877   4.008  10.821 -0.0988 -0.4940 -0.8177
  178SLPC   O1120274   4.645   4.062  10.770  0.5759  0.0253  0.5829
  178SLPC    C120275   4.677   4.030  10.634  0.8442  0.5926  0.3094
  178SLPC    HA20276   4.782   4.051  10.604  0.5169 -0.1918 -1.5549
  178SLPC    HB20277   4.664   3.921  10.613  1.7246  0.6722 -0.7513
  178SLPC    C220278   4.581   4.112  10.544  0.8457  0.3009 -0.2026
  178SLPC    HS20279   4.485   4.057  10.547 -1.1379  3.4184 -1.2315
  178SLPC   O2120280   4.625   4.132  10.405  0.0171  0.0803 -0.3487
  178SLPC   C2120281   4.667   4.029  10.340 -1.0980  0.5302 -0.0781
  178SLPC   O2220282   4.679   3.916  10.390  0.4198 -0.2938 -0.4248
  178SLPC   C2220283   4.699   4.067  10.197 -0.1275  0.8395  0.2693
  178SLPC   H2R20284   4.622   4.140  10.164  0.4310  1.7742  0.9930
  178SLPC   H2S20285   4.802   4.106  10.188  1.1041 -2.3578 -0.7446
  178SLPC    C320286   4.552   4.249  10.609  0.3065  0.3155  0.9443
  178SLPC    HX20287   4.643   4.304  10.640  1.1283  0.4230 -1.4100
  178SLPC    HY20288   4.502   4.249  10.708  0.4894 -1.3229  1.0564
  178SLPC   O3120289   4.473   4.326  10.512  0.2645 -0.2137 -0.1120
  178SLPC   C3120290   4.523   4.435  10.466 -1.1502 -0.0592  0.0778
  178SLPC   O3220291   4.623   4.491  10.512 -0.3829 -0.2725  0.1717
  178SLPC   C3220292   4.443   4.469  10.336  0.2962 -0.8788 -0.3439
  178SLPC   H2X20293   4.474   4.571  10.305 -0.2059  0.1122  2.1635
  178SLPC   H2Y20294   4.336   4.487  10.357  0.8949  0.4101  1.9833
  178SLPC   C2320295   4.689   3.934  10.108 -0.6317 -0.3849 -0.0822
  178SLPC   H3R20296   4.583   3.907  10.128 -1.1694  0.3184 -1.7933
  178SLPC   H3S20297   4.765   3.856  10.130 -0.4062 -0.7178 -1.8384
  178SLPC   C2420298   4.692   3.965   9.952 -0.1297 -0.3548  0.4311
  178SLPC   H4R20299   4.796   3.963   9.914 -0.6323  3.6657 -1.7895
  178SLPC   H4S20300   4.652   4.066   9.928 -1.1878 -0.8773 -0.0879
  178SLPC   C2520301   4.616   3.866   9.862 -0.1256 -0.2769 -0.2480
  178SLPC   H5R20302   4.516   3.846   9.906  0.9780 -0.1540  2.5428
  178SLPC   H5S20303   4.675   3.773   9.874 -0.6016 -0.4195  1.2477
  178SLPC   C2620304   4.608   3.896   9.710  0.1638 -0.3283 -0.2632
  178SLPC   H6R20305   4.706   3.910   9.660  1.2115 -0.8345  1.5387
  178SLPC   H6S20306   4.550   3.990   9.706 -0.6913 -0.7124  1.8502
  178SLPC   C2720307   4.525   3.789   9.639 -0.4634  0.1825  0.0441
  178SLPC   H7R20308   4.442   3.766   9.709 -0.1682  0.8703  0.6304
  178SLPC   H7S20309   4.589   3.699   9.628 -1.2658 -0.5403  1.1404
  178SLPC   C2820310   4.467   3.826   9.507  0.2188 -0.6687 -0.5282
  178SLPC   H8R20311   4.406   3.915   9.532  0.9374 -0.6794  1.4363
  178SLPC   H8S20312   4.386   3.759   9.469 -3.0089  1.8832  1.2837
  178SLPC   C2920313   4.579   3.853   9.410  0.1564  0.3574 -0.6746
  178SLPC   H9R20314   4.629   3.950   9.428 -0.3590  0.5923 -0.4863
  178SLPC  C21020315   4.608   3.785   9.298  0.5553  0.6391 -0.2069
  178SLPC  H10R20316   4.698   3.806   9.237  0.3342  1.9392 -0.1185
  178SLPC  C21120317   4.530   3.660   9.255 -0.1478 -0.3570  0.5171
  178SLPC  H11R20318   4.534   3.652   9.145 -2.2615  0.2003  0.3612
  178SLPC  H11S20319   4.421   3.666   9.276  0.2642  1.2147  2.6539
  178SLPC  C21220320   4.601   3.539   9.314 -0.4697 -0.9824 -0.1353
  178SLPC  H12R20321   4.576   3.547   9.421  2.4776 -1.3291  0.6640
  178SLPC  C21320322   4.674   3.452   9.246 -0.7238 -0.0246  0.2057
  178SLPC  H13R20323   4.705   3.365   9.305 -3.9251  0.5955  3.0981
  178SLPC  C21420324   4.712   3.446   9.104  0.0595 -0.4219 -0.7896
  178SLPC  H14R20325   4.821   3.427   9.093  0.5419  1.0395  0.9041
  178SLPC  H14S20326   4.708   3.546   9.056 -0.8086 -0.4720 -0.8400
  178SLPC  C21520327   4.640   3.343   9.012 -0.4307 -0.3096 -0.0050
  178SLPC  H15R20328   4.533   3.327   9.038 -0.4700  0.9059  0.6233
  178SLPC  H15S20329   4.695   3.248   9.032 -1.1898 -0.7320  0.1178
  178SLPC  C21620330   4.654   3.370   8.862 -0.3883 -0.1975 -0.1111
  178SLPC  H16R20331   4.749   3.412   8.823  0.3711 -1.0087  0.8183
  178SLPC  H16S20332   4.575   3.443   8.832  0.3193  0.1503 -1.1879
  178SLPC  C21720333   4.616   3.243   8.790  0.3045 -0.0692  0.5253
  178SLPC  H17R20334   4.515   3.208   8.820 -0.6295  2.0566  0.0374
  178SLPC  H17S20335   4.690   3.172   8.833 -2.3478 -1.6314  2.7901
  178SLPC  C21820336   4.643   3.248   8.642 -0.3922 -0.0554 -0.1751
  178SLPC  H18R20337   4.747   3.282   8.629 -1.3429  4.5168  2.1912
  178SLPC  H18S20338   4.585   3.323   8.585 -0.5388 -1.1164 -1.4719
  178SLPC  H18T20339   4.621   3.149   8.595  0.4390 -0.3789  0.0988
  178SLPC   C3320340   4.467   4.364  10.223  0.1062  0.2303 -0.0505
  178SLPC   H3X20341   4.426   4.264  10.247  3.5152 -1.3252 -0.1033
  178SLPC   H3Y20342   4.576   4.343  10.223  0.2638  0.9133  1.3166
  178SLPC   C3420343   4.435   4.415  10.089  0.8298  0.0857 -0.4536
  178SLPC   H4X20344   4.499   4.502  10.063 -0.9304  1.6959  0.4022
  178SLPC   H4Y20345   4.335   4.462  10.093  0.3135 -1.0624  2.1614
  178SLPC   C3520346   4.435   4.303   9.981 -0.1168  0.0652 -0.0045
  178SLPC   H5X20347   4.392   4.207  10.015 -3.5726  1.7537  0.8178
  178SLPC   H5Y20348   4.545   4.301   9.968 -0.2115  1.2672 -1.1866
  178SLPC   C3620349   4.355   4.341   9.857 -0.2352  0.0715 -0.0516
  178SLPC   H6X20350   4.383   4.446   9.840 -0.1709  0.0046 -0.3536
  178SLPC   H6Y20351   4.245   4.349   9.872 -0.6383  3.1410 -3.3155
  178SLPC   C3720352   4.396   4.269   9.725 -0.3546 -0.4856  0.1602
  178SLPC   H7X20353   4.372   4.162   9.743 -2.0236 -0.0321  0.9211
  178SLPC   H7Y20354   4.506   4.272   9.718 -0.1724 -1.0073  2.0712
  178SLPC   C3820355   4.337   4.332   9.597  0.3668 -0.6299  0.2628
  178SLPC   H8X20356   4.384   4.428   9.566 -0.1389 -0.8937 -1.4358
  178SLPC   H8Y20357   4.226   4.346   9.600  0.4112  0.1155 -0.9931
  178SLPC   C3920358   4.363   4.227   9.485  0.6624  0.2761  0.1127
  178SLPC   H9X20359   4.275   4.159   9.494  0.0609  0.8666 -1.0815
  178SLPC   H9Y20360   4.458   4.171   9.493  1.4931  1.2508 -2.0754
  178SLPC  C31020361   4.369   4.300   9.348  0.2232  0.7910  0.2084
  178SLPC  H10X20362   4.435   4.387   9.368 -0.4369  1.0036  1.5644
  178SLPC  H10Y20363   4.264   4.327   9.326  0.4654 -0.9653 -4.1779
  178SLPC  C31120364   4.421   4.205   9.240 -0.1207  0.0676 -0.1020
  178SLPC  H11X20365   4.364   4.109   9.238 -1.2727  0.7306 -0.2224
  178SLPC  H11Y20366   4.524   4.179   9.270 -0.6773 -0.8225  1.1361
  178SLPC  C31220367   4.416   4.252   9.097  0.1620 -0.1714  0.1684
  178SLPC  H12X20368   4.454   4.356   9.091  0.1080 -0.0778  1.1956
  178SLPC  H12Y20369   4.309   4.247   9.069 -0.3694 -1.1952  2.1883
  178SLPC  C31320370   4.513   4.173   9.012  0.1128 -0.1843  0.1376
  178SLPC  H13X20371   4.612   4.172   9.062  0.5221 -1.9144 -0.6313
  178SLPC  H13Y20372   4.531   4.237   8.923 -0.8922  0.3720  0.3222
  178SLPC  C31420373   4.479   4.029   8.973  0.2698 -0.2918  0.2758
  178SLPC  H14X20374   4.382   4.030   8.918 -0.5469  1.2506  1.6909
  178SLPC  H14Y20375   4.459   3.971   9.066  0.1223 -0.5125  0.1106
  178SLPC  C31520376   4.570   3.945   8.875  0.2206  0.2701  0.4044
  178SLPC  H15X20377   4.593   4.005   8.783  2.8694 -1.4131 -0.1606
  178SLPC  H15Y20378   4.664   3.930   8.933 -0.9374  0.2904  2.3357
  178SLPC  C31620379   4.492   3.815   8.825 -0.1502 -0.0495  1.2354
  178SLPC  H16X20380   4.414   3.860   8.761 -0.6967 -0.1540  1.8159
  178SLPC  H16Y20381   4.441   3.759   8.906 -0.5065 -1.1193  0.2933
  178SLPC  C31720382   4.570   3.722   8.736  0.1071  0.0642  0.6746
  178SLPC  H17X20383   4.648   3.667   8.793  0.8957 -0.2060 -0.6279
  178SLPC  H17Y20384   4.633   3.780   8.665 -1.1970  1.4348  0.5801
  178SLPC  C31820385   4.473   3.629   8.660 -0.1310  0.3132  0.5722
  178SLPC  H18X20386   4.534   3.552   8.608 -0.6225  0.8426 -0.8241
  178SLPC  H18Y20387   4.399   3.676   8.592 -2.1908 -1.5870  1.3456
  178SLPC  H18Z20388   4.412   3.569   8.732  0.5344 -1.7757 -0.5292
  179SLPC     N20389   6.486   1.094  10.934  0.0240 -0.5070  0.3668
  179SLPC   C1320390   6.619   1.069  10.994  0.6182 -0.5970  0.0366
  179SLPC  H13A20391   6.690   1.137  10.950 -0.8684  1.6318  0.9098
  179SLPC  H13B20392   6.610   1.075  11.102  1.5007 -0.6993  0.1254
  179SLPC  H13C20393   6.652   0.973  10.958 -0.0902 -0.5328 -0.8161
  179SLPC   C1420394   6.467   1.241  10.959 -0.4853  0.1640 -0.0632
  179SLPC  H14A20395   6.547   1.299  10.914 -0.6241  0.2018 -0.2601
  179SLPC  H14B20396   6.374   1.277  10.919  0.2651  0.3530 -1.7175
  179SLPC  H14C20397   6.477   1.270  11.063  0.5766  0.6181 -0.2721
  179SLPC   C1520398   6.382   1.018  11.014 -0.2686  0.3528 -0.1247
  179SLPC  H15A20399   6.400   0.912  11.011  0.5551  0.2743  3.2838
  179SLPC  H15B20400   6.381   1.042  11.120  1.7265  0.7176 -0.1462
  179SLPC  H15C20401   6.281   1.036  10.982 -0.3909 -1.0216 -0.5677
  179SLPC   C1220402   6.478   1.062  10.788 -0.0504 -0.5256  0.1694
  179SLPC  H12A20403   6.381   1.102  10.760 -1.4214 -1.7598  2.7771
  179SLPC  H12B20404   6.476   0.956  10.770 -0.1206 -0.2365 -1.7344
  179SLPC   C1120405   6.567   1.130  10.675  0.7440 -0.3949 -0.0399
  179SLPC  H11A20406   6.548   1.090  10.573 -0.7223  2.0256 -0.7815
  179SLPC  H11B20407   6.673   1.108  10.701  0.8326  0.9008  0.7487
  179SLPC     P20408   6.397   1.326  10.618  0.1051  0.4227  0.0233
  179SLPC   O1320409   6.283   1.282  10.700  0.4250  0.3034  0.0426
  179SLPC   O1420410   6.419   1.475  10.602 -0.1720 -0.7619 -0.6721
  179SLPC   O1220411   6.536   1.267  10.672 -0.0088  0.6086 -0.3730
  179SLPC   O1120412   6.392   1.245  10.481  0.3613 -0.3565 -0.0021
  179SLPC    C120413   6.469   1.299  10.376 -0.3232 -0.2597 -0.1313
  179SLPC    HA20414   6.518   1.397  10.392 -1.2414  0.1310  0.3784
  179SLPC    HB20415   6.544   1.224  10.342 -1.5416 -0.9498 -1.4198
  179SLPC    C220416   6.381   1.333  10.255  0.2637 -0.1868 -0.6774
  179SLPC    HS20417   6.305   1.400  10.301  0.4648 -0.9727  0.8465
  179SLPC   O2120418   6.302   1.218  10.214  0.1334 -0.6548  0.2641
  179SLPC   C2120419   6.190   1.238  10.146  0.4938 -0.8086  0.3638
  179SLPC   O2220420   6.156   1.348  10.102  0.0717 -0.0622  0.4320
  179SLPC   C2220421   6.105   1.110  10.151  0.8844 -0.4103 -0.1933
  179SLPC   H2R20422   6.167   1.023  10.179  0.6104 -0.4075  0.4456
  179SLPC   H2S20423   6.037   1.142  10.234  0.6605  0.5558 -0.7304
  179SLPC    C320424   6.459   1.396  10.137  0.5665  0.0705 -0.2221
  179SLPC    HX20425   6.383   1.442  10.069 -1.6021 -0.3111  1.8247
  179SLPC    HY20426   6.512   1.314  10.083  0.4046 -0.9077  1.0598
  179SLPC   O3120427   6.536   1.509  10.181 -0.4839  0.0611 -0.0172
  179SLPC   C3120428   6.664   1.500  10.176 -0.4206  0.5360 -0.6018
  179SLPC   O3220429   6.725   1.398  10.139 -0.5163 -0.6500  0.2785
  179SLPC   C3220430   6.728   1.618  10.251 -0.4881  0.4310  0.4802
  179SLPC   H2X20431   6.827   1.585  10.288 -1.1000 -0.9695  0.9115
  179SLPC   H2Y20432   6.668   1.631  10.343 -0.5425 -1.1187  0.6826
  179SLPC   C2320433   6.040   1.081  10.016  0.4221 -0.4467  0.0192
  179SLPC   H3R20434   5.987   1.174   9.985  0.6744  0.5336  2.3377
  179SLPC   H3S20435   5.964   1.002  10.031 -0.4010  0.0551 -1.2572
  179SLPC   C2420436   6.136   1.046   9.895  0.1985  0.3163 -0.5584
  179SLPC   H4R20437   6.187   0.948   9.910  1.4812  1.2355  1.3736
  179SLPC   H4S20438   6.217   1.121   9.894  0.3388  0.2084  0.8753
  179SLPC   C2520439   6.066   1.041   9.754  0.8213 -0.2270 -0.3643
  179SLPC   H5R20440   6.030   1.144   9.734 -0.8146 -0.9191 -1.2043
  179SLPC   H5S20441   5.977   0.975   9.756  0.2120  0.5661 -0.5776
  179SLPC   C2620442   6.163   1.001   9.636  0.1907 -0.7323  0.0327
  179SLPC   H6R20443   6.160   0.890   9.628  0.4123 -0.8180  0.9631
  179SLPC   H6S20444   6.265   1.028   9.671 -0.1021 -0.1591  0.4664
  179SLPC   C2720445   6.127   1.060   9.498  1.0274  1.0848 -0.0733
  179SLPC   H7R20446   6.198   1.023   9.422  1.7025 -0.9667  1.4567
  179SLPC   H7S20447   6.137   1.171   9.504 -0.7100  1.4699 -2.7441
  179SLPC   C2820448   5.978   1.030   9.461 -0.1566  0.0224 -0.0387
  179SLPC   H8R20449   5.951   1.087   9.369  0.5048 -2.1526 -1.6707
  179SLPC   H8S20450   5.916   1.065   9.546 -1.4628 -0.4365 -0.7752
  179SLPC   C2920451   5.940   0.888   9.437 -0.3021 -0.0139  0.2072
  179SLPC   H9R20452   5.962   0.823   9.523  0.6555  0.3108  0.2219
  179SLPC  C21020453   5.892   0.825   9.329  0.0105 -0.5022  0.1644
  179SLPC  H10R20454   5.879   0.716   9.331  1.2050 -0.6552  1.5657
  179SLPC  C21120455   5.858   0.894   9.207  0.1259 -0.5762 -0.3057
  179SLPC  H11R20456   5.936   0.963   9.170 -0.0923 -0.5146 -0.6552
  179SLPC  H11S20457   5.778   0.964   9.240  1.7274  0.9330  0.4784
  179SLPC  C21220458   5.818   0.801   9.095 -0.1703 -0.5728 -0.2427
  179SLPC  H12R20459   5.803   0.694   9.118  1.5177 -0.6278  0.7335
  179SLPC  C21320460   5.848   0.830   8.971 -0.0077 -0.3039  0.6035
  179SLPC  H13R20461   5.800   0.766   8.895 -2.3565  0.2729  1.5197
  179SLPC  C21420462   5.911   0.959   8.915  0.2496  0.3687  0.5753
  179SLPC  H14R20463   6.015   0.943   8.878 -0.2531 -0.5596 -0.5188
  179SLPC  H14S20464   5.918   1.045   8.985 -2.5944 -2.2884  4.5980
  179SLPC  C21520465   5.816   0.989   8.794  0.3993 -0.2342  0.0133
  179SLPC  H15R20466   5.834   1.087   8.744 -1.0733 -0.5678 -1.2255
  179SLPC  H15S20467   5.713   1.007   8.831  0.7644  0.3578  0.7911
  179SLPC  C21620468   5.834   0.896   8.671 -0.3021 -0.0447  0.1103
  179SLPC  H16R20469   5.791   0.797   8.696 -1.5279 -0.0752 -1.8571
  179SLPC  H16S20470   5.944   0.890   8.657 -0.2934 -0.2648  0.2708
  179SLPC  C21720471   5.759   0.938   8.547 -0.3012 -0.2424 -0.1826
  179SLPC  H17R20472   5.779   0.869   8.463  1.9762 -0.0418  0.1246
  179SLPC  H17S20473   5.798   1.038   8.519 -2.0993  0.1056 -1.6279
  179SLPC  C21820474   5.606   0.945   8.570  0.0545 -0.4368 -0.0381
  179SLPC  H18R20475   5.578   0.994   8.665  2.1034  0.3612  0.1993
  179SLPC  H18S20476   5.565   0.842   8.581 -1.7312  0.2020 -0.3199
  179SLPC  H18T20477   5.561   0.997   8.482  1.3983  1.8101  0.5141
  179SLPC   C3320478   6.738   1.746  10.163  0.2802  0.3866 -0.3553
  179SLPC   H3X20479   6.758   1.837  10.224 -1.3817  0.9442 -0.6087
  179SLPC   H3Y20480   6.640   1.767  10.116 -2.1376 -0.9685  3.6273
  179SLPC   C3420481   6.857   1.737  10.062 -0.9411  0.5972  0.0436
  179SLPC   H4X20482   6.846   1.811   9.979  0.8788 -1.4672 -2.1591
  179SLPC   H4Y20483   6.836   1.639  10.015 -0.5659  1.2250 -1.4972
  179SLPC   C3520484   6.994   1.739  10.122  0.4169  0.4922 -0.1005
  179SLPC   H5X20485   6.994   1.691  10.222 -2.0653  0.9547  0.1806
  179SLPC   H5Y20486   7.029   1.844  10.135 -1.2809  1.0757 -0.0206
  179SLPC   C3620487   7.098   1.661  10.042  0.3561  0.1420 -0.0453
  179SLPC   H6X20488   7.060   1.558  10.023 -3.7269  1.2410  1.0198
  179SLPC   H6Y20489   7.184   1.650  10.111  1.3703  0.4281 -1.2163
  179SLPC   C3720490   7.135   1.738   9.914  0.8737  0.0369  0.5604
  179SLPC   H7X20491   7.094   1.841   9.920 -1.0471 -0.6774  0.4409
  179SLPC   H7Y20492   7.081   1.698   9.825 -0.6269 -0.8714  1.8160
  179SLPC   C3820493   7.287   1.749   9.885  0.2556 -0.0078 -0.3437
  179SLPC   H8X20494   7.337   1.655   9.914 -0.5739 -0.4572 -0.3320
  179SLPC   H8Y20495   7.340   1.830   9.940 -0.1642  0.0480 -0.0176
  179SLPC   C3920496   7.325   1.771   9.738  0.0247  0.3740  0.4316
  179SLPC   H9X20497   7.251   1.846   9.702 -0.2101 -0.0615 -0.0147
  179SLPC   H9Y20498   7.314   1.677   9.680  1.0881 -0.2316  1.1735
  179SLPC  C31020499   7.466   1.821   9.727  0.0412 -0.1161 -0.5615
  179SLPC  H10X20500   7.544   1.744   9.745  0.6426  1.0461  2.2395
  179SLPC  H10Y20501   7.489   1.914   9.783 -0.9879  0.6600 -1.3871
  179SLPC  C31120502   7.495   1.880   9.588  0.4047  0.8418 -0.2046
  179SLPC  H11X20503   7.602   1.909   9.575  0.3030  0.7177 -1.5101
  179SLPC  H11Y20504   7.447   1.980   9.578 -1.6958 -0.0146  0.6276
  179SLPC  C31220505   7.465   1.794   9.471 -0.0813 -0.3735 -0.2780
  179SLPC  H12X20506   7.357   1.778   9.451  0.1224 -1.0097 -0.9048
  179SLPC  H12Y20507   7.522   1.700   9.491  1.4804  0.5146 -0.3830
  179SLPC  C31320508   7.532   1.859   9.347  0.9064 -0.3347  0.1480
  179SLPC  H13X20509   7.640   1.854   9.373  0.8479 -2.7553  0.1879
  179SLPC  H13Y20510   7.499   1.965   9.346  0.2097 -0.5522 -0.6293
  179SLPC  C31420511   7.500   1.786   9.215 -0.0706 -0.5738 -0.7069
  179SLPC  H14X20512   7.389   1.775   9.212 -0.3594  1.8420 -1.0082
  179SLPC  H14Y20513   7.546   1.686   9.227 -0.1562 -0.4264  1.0970
  179SLPC  C31520514   7.549   1.855   9.083 -0.0576 -0.0601 -0.3308
  179SLPC  H15X20515   7.659   1.860   9.072 -0.1070 -1.1473 -1.5968
  179SLPC  H15Y20516   7.528   1.962   9.101 -1.3290 -0.8644  4.0393
  179SLPC  C31620517   7.486   1.805   8.954 -0.1566  0.5724  0.0744
  179SLPC  H16X20518   7.375   1.812   8.959 -0.3786 -1.0101 -1.6011
  179SLPC  H16Y20519   7.504   1.695   8.946 -0.7609  0.4624  0.2070
  179SLPC  C31720520   7.546   1.874   8.831 -0.0242 -0.2154 -0.1120
  179SLPC  H17X20521   7.648   1.833   8.813 -0.5104 -0.6116 -2.3218
  179SLPC  H17Y20522   7.553   1.981   8.859 -2.8540 -0.1906  0.8244
  179SLPC  C31820523   7.469   1.858   8.697 -0.3499 -0.3451 -0.3836
  179SLPC  H18X20524   7.528   1.915   8.621 -0.5234  1.9406  1.0929
  179SLPC  H18Y20525   7.370   1.904   8.716 -0.2437  0.0435 -0.7518
  179SLPC  H18Z20526   7.474   1.752   8.665 -0.8786 -1.5804  3.2214
  180SLPC     N20527   3.886   6.593  11.075 -0.5262  0.1390 -0.3967
  180SLPC   C1320528   4.017   6.665  11.041 -0.0675 -0.0805  0.3208
  180SLPC  H13A20529   4.057   6.704  11.134 -0.3807 -1.8670  1.2627
  180SLPC  H13B20530   4.093   6.597  11.004 -1.3415 -1.2707 -0.1880
  180SLPC  H13C20531   4.000   6.750  10.977  1.2253 -0.7263 -0.9378
  180SLPC   C1420532   3.814   6.557  10.955 -0.3350  0.1342  0.9928
  180SLPC  H14A20533   3.718   6.510  10.968 -0.3035 -0.6332 -1.1171
  180SLPC  H14B20534   3.805   6.644  10.891 -1.7085 -0.9742 -0.3743
  180SLPC  H14C20535   3.873   6.488  10.896 -0.0962 -1.2354  2.7571
  180SLPC   C1520536   3.789   6.683  11.154 -0.6456  0.0595 -0.3011
  180SLPC  H15A20537   3.830   6.687  11.254  1.3187  1.3232 -1.0883
  180SLPC  H15B20538   3.793   6.780  11.106 -0.9436 -0.8573 -2.2464
  180SLPC  H15C20539   3.687   6.648  11.157 -0.9255  0.2303 -3.9141
  180SLPC   C1220540   3.920   6.462  11.157 -0.4304  0.4166  0.1150
  180SLPC  H12A20541   3.834   6.399  11.174  0.6497 -0.9182  0.8695
  180SLPC  H12B20542   3.955   6.497  11.254 -2.5910  0.9873  0.7429
  180SLPC   C1120543   4.028   6.373  11.105 -0.6206  0.6000  0.1713
  180SLPC  H11A20544   4.056   6.288  11.170 -0.0492  0.8473  0.2534
  180SLPC  H11B20545   4.126   6.425  11.098  1.0452 -2.3075  0.5473
  180SLPC     P20546   4.066   6.227  10.905  0.1539 -0.2547 -0.1622
  180SLPC   O1320547   4.208   6.277  10.913 -0.4735  0.1718  0.4428
  180SLPC   O1420548   4.035   6.095  10.965  0.2733 -0.0899 -0.0192
  180SLPC   O1220549   3.978   6.328  10.984 -0.4637  0.4996  0.6688
  180SLPC   O1120550   4.012   6.234  10.758  0.9037 -0.4778  0.2111
  180SLPC    C120551   3.904   6.149  10.727 -0.0043 -0.1113 -0.5674
  180SLPC    HA20552   3.940   6.046  10.746  2.4144  0.6831 -0.4789
  180SLPC    HB20553   3.816   6.166  10.792  0.1568 -1.3460 -0.0040
  180SLPC    C220554   3.853   6.156  10.583  0.0851 -0.3963  0.2749
  180SLPC    HS20555   3.749   6.118  10.591  0.0860  0.0739  4.3052
  180SLPC   O2120556   3.942   6.093  10.491  0.1779 -0.6203  0.8682
  180SLPC   C2120557   3.925   5.966  10.477  0.1899 -0.3573 -0.1665
  180SLPC   O2220558   3.857   5.897  10.554  0.1547 -0.3751 -0.4790
  180SLPC   C2220559   3.998   5.899  10.365 -0.4332 -0.4659 -0.3771
  180SLPC   H2R20560   4.102   5.869  10.391 -0.3634 -0.1688 -0.2994
  180SLPC   H2S20561   3.942   5.805  10.345 -0.5734  0.0941 -2.9781
  180SLPC    C320562   3.836   6.302  10.537 -0.3420  0.6280  0.7410
  180SLPC    HX20563   3.931   6.360  10.548 -0.3613  0.7051  0.5104
  180SLPC    HY20564   3.762   6.352  10.603 -0.0300 -0.3765  1.8883
  180SLPC   O3120565   3.769   6.295  10.400 -0.6236 -0.5117 -0.2099
  180SLPC   C3120566   3.857   6.317  10.298  0.6882 -0.3641  0.5601
  180SLPC   O3220567   3.976   6.327  10.315  0.2640  0.5581 -0.3259
  180SLPC   C3220568   3.785   6.315  10.170 -0.5084  0.1213  0.0831
  180SLPC   H2X20569   3.682   6.355  10.180 -0.3402  0.2277  1.6461
  180SLPC   H2Y20570   3.781   6.212  10.128  0.3167  0.8226 -1.8426
  180SLPC   C2320571   3.980   5.974  10.225 -0.3263 -0.1440 -0.4091
  180SLPC   H3R20572   4.022   6.075  10.248 -0.6736  0.1765 -1.1328
  180SLPC   H3S20573   3.877   5.998  10.190 -0.1355 -0.3235 -1.0955
  180SLPC   C2420574   4.068   5.902  10.118 -0.0017  0.2641 -0.1191
  180SLPC   H4R20575   4.012   5.812  10.084 -0.2278  0.6148 -0.6887
  180SLPC   H4S20576   4.162   5.862  10.164 -0.0932  0.5436  0.3192
  180SLPC   C2520577   4.109   5.992  10.000 -0.3876 -0.4139 -0.0951
  180SLPC   H5R20578   4.150   5.916   9.932  2.8348  2.4739 -1.6985
  180SLPC   H5S20579   4.194   6.057  10.031 -1.7382  1.5021 -0.2001
  180SLPC   C2620580   3.984   6.069   9.941 -0.0752 -0.0574  0.8369
  180SLPC   H6R20581   4.031   6.127   9.859 -0.0152 -0.2603  0.7251
  180SLPC   H6S20582   3.939   6.137  10.015 -2.1500 -0.6404  0.1865
  180SLPC   C2720583   3.868   5.981   9.887  0.3156  0.0619  0.1654
  180SLPC   H7R20584   3.797   6.049   9.834  2.4703  1.2428 -1.4120
  180SLPC   H7S20585   3.820   5.944   9.980  0.4441 -0.9044 -0.1424
  180SLPC   C2820586   3.917   5.857   9.812  0.6602 -0.0669  1.1428
  180SLPC   H8R20587   3.823   5.808   9.780 -0.5857  1.2418  2.6580
  180SLPC   H8S20588   3.965   5.784   9.881  0.8701 -2.3744 -1.2725
  180SLPC   C2920589   4.004   5.886   9.695 -0.1051 -0.0472 -0.0979
  180SLPC   H9R20590   4.092   5.950   9.711 -0.7216  1.2728 -1.7178
  180SLPC  C21020591   3.982   5.862   9.565 -0.0782 -0.2719 -0.4226
  180SLPC  H10R20592   4.053   5.894   9.488  0.6686 -3.6164 -1.2763
  180SLPC  C21120593   3.854   5.807   9.503 -0.8685  1.2202  0.3830
  180SLPC  H11R20594   3.768   5.816   9.572  0.1602 -1.2507  2.1459
  180SLPC  H11S20595   3.864   5.697   9.498 -1.6366  1.1235  0.8251
  180SLPC  C21220596   3.814   5.870   9.374  0.3128 -0.7438  0.5515
  180SLPC  H12R20597   3.802   5.979   9.387  2.0977 -0.2708 -1.2952
  180SLPC  C21320598   3.758   5.810   9.267 -0.6138 -0.7335  0.2010
  180SLPC  H13R20599   3.735   5.877   9.182  2.1724  0.3229  0.1732
  180SLPC  C21420600   3.730   5.661   9.249 -0.3676 -0.1667 -0.4003
  180SLPC  H14R20601   3.631   5.634   9.208 -0.1538 -1.6982  0.0314
  180SLPC  H14S20602   3.733   5.615   9.350 -0.8028  1.4176  0.3554
  180SLPC  C21520603   3.840   5.596   9.168 -0.3505  0.6937  0.5967
  180SLPC  H15R20604   3.841   5.486   9.182  1.1824  0.6765  0.5892
  180SLPC  H15S20605   3.932   5.637   9.215 -0.5403  1.1827  0.5498
  180SLPC  C21620606   3.832   5.625   9.015  1.0336 -0.3486 -0.6592
  180SLPC  H16R20607   3.823   5.736   9.012  1.3795 -0.2636  0.7329
  180SLPC  H16S20608   3.739   5.594   8.962 -1.4773 -0.5027  3.3753
  180SLPC  C21720609   3.954   5.579   8.937  0.0638  0.0823 -0.0867
  180SLPC  H17R20610   3.946   5.469   8.922 -1.8603  0.2248 -0.2881
  180SLPC  H17S20611   4.039   5.617   8.998  0.0864  2.3652 -1.4377
  180SLPC  C21820612   3.959   5.647   8.802 -0.1249 -1.2906  0.2005
  180SLPC  H18R20613   4.055   5.630   8.747 -0.2905 -0.1804 -0.4549
  180SLPC  H18S20614   3.944   5.756   8.812  1.5413 -0.7878 -1.9518
  180SLPC  H18T20615   3.877   5.619   8.733 -0.6708 -3.7451  1.7281
  180SLPC   C3320616   3.855   6.402  10.063 -0.5068  0.5245  0.6339
  180SLPC   H3X20617   3.956   6.361  10.044 -1.4979 -1.9641  0.3085
  180SLPC   H3Y20618   3.857   6.510  10.088  0.2423  0.7959 -0.5486
  180SLPC   C3420619   3.767   6.396   9.927  0.0655 -0.7438  0.0348
  180SLPC   H4X20620   3.666   6.424   9.966  0.6112  1.7013 -0.1515
  180SLPC   H4Y20621   3.758   6.296   9.881  1.8997 -1.2692  0.7567
  180SLPC   C3520622   3.802   6.513   9.824 -0.3659  0.1789 -0.9202
  180SLPC   H5X20623   3.806   6.607   9.883  3.6599 -0.0113 -0.6631
  180SLPC   H5Y20624   3.724   6.515   9.745 -1.8332 -2.4263  0.3231
  180SLPC   C3620625   3.938   6.490   9.753 -0.5403  0.3645  0.5806
  180SLPC   H6X20626   4.017   6.449   9.820 -0.1284 -0.6295 -0.4912
  180SLPC   H6Y20627   3.979   6.584   9.709  1.3288 -0.5904  0.1732
  180SLPC   C3720628   3.923   6.380   9.646 -0.3747 -0.5770 -0.2268
  180SLPC   H7X20629   3.843   6.429   9.587  0.9986  1.5974 -0.3760
  180SLPC   H7Y20630   3.885   6.284   9.687  1.5890 -0.9225  0.8661
  180SLPC   C3820631   4.044   6.344   9.561 -0.1698  0.2057 -0.5513
  180SLPC   H8X20632   4.129   6.301   9.617  0.4430 -1.1085 -2.4121
  180SLPC   H8Y20633   4.084   6.441   9.525  0.6977  0.4576  1.0059
  180SLPC   C3920634   4.003   6.250   9.451  0.2037 -0.8640 -0.0785
  180SLPC   H9X20635   3.974   6.147   9.483 -0.8227 -1.1511 -1.7718
  180SLPC   H9Y20636   4.085   6.253   9.376 -0.1121 -1.4593 -0.4576
  180SLPC  C31020637   3.886   6.295   9.347 -0.7884  1.4144 -0.0085
  180SLPC  H10X20638   3.890   6.405   9.327 -1.0405  0.9516 -3.2041
  180SLPC  H10Y20639   3.788   6.265   9.390 -2.3384 -0.3511 -4.2239
  180SLPC  C31120640   3.893   6.229   9.211 -0.2576 -0.3444 -0.0298
  180SLPC  H11X20641   3.872   6.122   9.232 -2.0591 -0.6668 -2.9615
  180SLPC  H11Y20642   3.996   6.224   9.169  0.7473  1.7409  1.9457
  180SLPC  C31220643   3.794   6.274   9.104 -0.0403  0.6910 -0.4303
  180SLPC  H12X20644   3.812   6.370   9.050  1.6922 -1.0643 -3.2547
  180SLPC  H12Y20645   3.689   6.272   9.139 -0.3403  1.7380 -1.2214
  180SLPC  C31320646   3.804   6.179   8.978  0.5502 -0.1673  0.1883
  180SLPC  H13X20647   3.744   6.086   8.994 -0.5629  0.5274  0.1936
  180SLPC  H13Y20648   3.911   6.155   8.960  0.6877 -0.2187  1.0248
  180SLPC  C31420649   3.752   6.252   8.851 -0.2377  0.2467 -0.3272
  180SLPC  H14X20650   3.820   6.338   8.832 -0.3430  1.0746  2.6015
  180SLPC  H14Y20651   3.651   6.292   8.876  0.2638  0.6178  1.2368
  180SLPC  C31520652   3.757   6.153   8.734 -0.6886  0.1360 -0.9311
  180SLPC  H15X20653   3.703   6.059   8.757 -0.7616  0.1437 -1.0692
  180SLPC  H15Y20654   3.862   6.119   8.721 -0.2621  0.8120  0.5201
  180SLPC  C31620655   3.695   6.224   8.614  0.3663 -0.7075  0.2182
  180SLPC  H16X20656   3.739   6.324   8.594 -3.2141  1.1504  0.9627
  180SLPC  H16Y20657   3.589   6.250   8.634 -0.9659 -3.7964 -2.0036
  180SLPC  C31720658   3.683   6.136   8.483  0.1063  0.2353  0.1355
  180SLPC  H17X20659   3.643   6.199   8.401  1.6995 -1.2289 -1.8774
  180SLPC  H17Y20660   3.600   6.065   8.501 -0.2601 -0.2337 -2.8406
  180SLPC  C31820661   3.806   6.067   8.433 -0.5260  0.3499  1.4192
  180SLPC  H18X20662   3.882   6.136   8.391 -1.2935  1.2623  1.4741
  180SLPC  H18Y20663   3.769   6.012   8.344 -0.1455  3.7811 -1.0781
  180SLPC  H18Z20664   3.852   5.994   8.503  0.6906 -0.6702 -0.3869
  181SLPC     N20665   4.684   3.147  11.190  0.6217 -0.4495 -0.3617
  181SLPC   C1320666   4.680   3.025  11.273 -0.7746 -0.4572 -0.7475
  181SLPC  H13A20667   4.758   3.031  11.347  1.5088 -1.3901 -2.9163
  181SLPC  H13B20668   4.587   3.010  11.326 -1.0043 -0.1499 -1.0575
  181SLPC  H13C20669   4.680   2.934  11.214  0.4990  1.5732 -4.1476
  181SLPC   C1420670   4.817   3.178  11.127 -0.3206  0.6688  0.0945
  181SLPC  H14A20671   4.812   3.275  11.079 -1.4754  1.3153  1.4790
  181SLPC  H14B20672   4.894   3.190  11.202 -0.8943 -0.3325  0.8530
  181SLPC  H14C20673   4.838   3.101  11.054 -0.8595 -0.3166  0.9629
  181SLPC   C1520674   4.648   3.270  11.272 -0.6292  0.2251 -0.8292
  181SLPC  H15A20675   4.649   3.362  11.215 -1.1978  0.4609 -0.4712
  181SLPC  H15B20676   4.556   3.252  11.325  1.1043 -1.2918  1.8455
  181SLPC  H15C20677   4.722   3.269  11.350  0.0783 -0.4550 -1.4856
  181SLPC   C1220678   4.572   3.138  11.087 -0.0303 -0.5152 -0.2243
  181SLPC  H12A20679   4.572   3.227  11.026 -1.5792  0.2890  0.9077
  181SLPC  H12B20680   4.478   3.132  11.139  0.4576 -1.1822  0.6094
  181SLPC   C1120681   4.592   3.015  10.987 -0.7955 -0.4189  0.5894
  181SLPC  H11A20682   4.698   3.016  10.953 -0.9943  0.7615 -0.0684
  181SLPC  H11B20683   4.534   3.032  10.894 -0.2677  2.2529  0.6756
  181SLPC     P20684   4.605   2.758  11.001 -0.1613 -0.1261 -0.4764
  181SLPC   O1320685   4.742   2.740  11.056 -0.4804  0.2703  0.1647
  181SLPC   O1420686   4.512   2.644  11.035  0.2318 -0.3420  0.6883
  181SLPC   O1220687   4.544   2.895  11.051  0.0343  0.0395 -0.1195
  181SLPC   O1120688   4.614   2.765  10.846  0.5070 -0.1823  0.3190
  181SLPC    C120689   4.516   2.787  10.747  0.1611 -0.3489 -0.8829
  181SLPC    HA20690   4.436   2.710  10.741 -0.8312  0.4884  0.6401
  181SLPC    HB20691   4.473   2.887  10.769  0.9889 -0.1814  0.0247
  181SLPC    C220692   4.596   2.810  10.619 -0.6068 -0.1326 -0.0084
  181SLPC    HS20693   4.536   2.855  10.537 -0.2148 -2.6242 -1.7867
  181SLPC   O2120694   4.647   2.683  10.581  0.0873 -0.0354 -0.2801
  181SLPC   C2120695   4.572   2.621  10.491 -0.7127  0.2214  0.6049
  181SLPC   O2220696   4.468   2.669  10.448 -0.5062  0.1438 -0.0212
  181SLPC   C2220697   4.642   2.494  10.443  0.2473 -0.2311 -0.6569
  181SLPC   H2R20698   4.748   2.518  10.421  0.7045 -2.9784 -1.8524
  181SLPC   H2S20699   4.640   2.425  10.530  0.6262 -1.8515 -1.8748
  181SLPC    C320700   4.718   2.908  10.632  0.0224 -0.2052 -0.0426
  181SLPC    HX20701   4.788   2.864  10.706  1.4250  1.7074 -0.1513
  181SLPC    HY20702   4.677   3.005  10.667 -0.3122  0.5271 -2.2726
  181SLPC   O3120703   4.784   2.927  10.507  0.5380  0.3103  0.2158
  181SLPC   C3120704   4.910   2.977  10.512  0.5343 -0.2948  0.0141
  181SLPC   O3220705   4.982   2.976  10.611  0.5720 -1.1507 -0.5967
  181SLPC   C3220706   4.940   3.030  10.369 -0.4926  0.1093 -0.0888
  181SLPC   H2X20707   4.867   2.994  10.294  0.2483  4.3258 -3.1868
  181SLPC   H2Y20708   5.040   2.989  10.345 -0.2701  0.1908  0.6660
  181SLPC   C2320709   4.584   2.424  10.317  0.4080 -0.2935 -0.5231
  181SLPC   H3R20710   4.473   2.421  10.327  0.4849  0.8331  0.8746
  181SLPC   H3S20711   4.630   2.323  10.306 -0.8237 -0.8114 -1.1227
  181SLPC   C2420712   4.612   2.503  10.183  0.1142  0.2370 -0.1117
  181SLPC   H4R20713   4.714   2.546  10.186  0.5748 -0.8817  0.9741
  181SLPC   H4S20714   4.552   2.597  10.185  0.1727  0.2620  0.5822
  181SLPC   C2520715   4.591   2.419  10.065  0.0903  0.1616 -0.3897
  181SLPC   H5R20716   4.634   2.318  10.078 -1.0395 -0.3353 -0.3655
  181SLPC   H5S20717   4.646   2.460   9.977  1.8731 -1.6416 -0.1956
  181SLPC   C2620718   4.445   2.402  10.018 -0.0157  0.5783  0.2339
  181SLPC   H6R20719   4.421   2.506   9.990 -0.8048  0.3270 -0.0545
  181SLPC   H6S20720   4.380   2.383  10.107  0.4038  0.5334  0.5352
  181SLPC   C2720721   4.416   2.317   9.901 -0.1960  0.4880  0.1731
  181SLPC   H7R20722   4.455   2.216   9.926  0.2504  1.2697  3.0269
  181SLPC   H7S20723   4.469   2.355   9.810  0.6428 -0.3009  0.3133
  181SLPC   C2820724   4.262   2.305   9.872  0.2985 -0.8924  1.3530
  181SLPC   H8R20725   4.235   2.398   9.817  0.4263 -0.1168  2.5747
  181SLPC   H8S20726   4.206   2.305   9.968 -1.0650 -1.3900  0.5890
  181SLPC   C2920727   4.219   2.186   9.790 -0.5011  0.2465 -0.1766
  181SLPC   H9R20728   4.239   2.087   9.834  0.0211  0.0593 -0.8163
  181SLPC  C21020729   4.164   2.182   9.663 -0.3752 -0.2755  0.5117
  181SLPC  H10R20730   4.149   2.081   9.622  0.4782 -0.8889  1.6617
  181SLPC  C21120731   4.134   2.296   9.566  0.0404  0.2868 -0.6506
  181SLPC  H11R20732   4.169   2.269   9.465 -2.8690 -0.2447 -1.6156
  181SLPC  H11S20733   4.200   2.379   9.601 -1.2910  0.8578  0.6425
  181SLPC  C21220734   3.995   2.362   9.576  0.2205  0.5845  0.0561
  181SLPC  H12R20735   3.916   2.290   9.602  0.8785 -0.4430 -0.6836
  181SLPC  C21320736   3.959   2.484   9.537  0.6906  0.6864 -0.4130
  181SLPC  H13R20737   3.852   2.511   9.545  0.0439 -0.2834 -4.0582
  181SLPC  C21420738   4.050   2.596   9.485  0.0139 -0.5378  0.4217
  181SLPC  H14R20739   4.154   2.559   9.477  0.2102 -0.1628  1.1265
  181SLPC  H14S20740   4.064   2.687   9.547 -0.2571 -0.2038  0.0018
  181SLPC  C21520741   4.007   2.647   9.344 -0.2896  0.8358 -0.0708
  181SLPC  H15R20742   4.080   2.723   9.307  0.7603 -1.0068 -2.0132
  181SLPC  H15S20743   3.908   2.696   9.349 -2.5393 -3.1145 -1.3637
  181SLPC  C21620744   4.007   2.540   9.229  0.3801  0.4235  0.4088
  181SLPC  H16R20745   3.929   2.461   9.239  0.2131  0.4761 -0.4024
  181SLPC  H16S20746   4.107   2.496   9.207  0.9688  0.7136  2.3319
  181SLPC  C21720747   3.960   2.607   9.097  0.2425 -0.0091  0.0341
  181SLPC  H17R20748   4.041   2.677   9.065 -0.5904  0.5003 -1.0180
  181SLPC  H17S20749   3.870   2.671   9.108 -1.2305 -1.5698 -2.1354
  181SLPC  C21820750   3.920   2.504   8.986 -0.6793 -0.0620 -0.2175
  181SLPC  H18R20751   3.876   2.545   8.893 -0.9828  1.2771  0.4866
  181SLPC  H18S20752   3.859   2.421   9.028  1.8521 -0.7580  2.4135
  181SLPC  H18T20753   4.018   2.456   8.968 -0.0033  0.9973  0.4668
  181SLPC   C3320754   4.922   3.189  10.367 -0.0261 -0.2056  0.0139
  181SLPC   H3X20755   5.009   3.244  10.409 -1.1068  1.6442 -0.1008
  181SLPC   H3Y20756   4.838   3.207  10.438  0.0942 -0.5542  0.2547
  181SLPC   C3420757   4.873   3.229  10.219  0.6459 -0.5520 -0.3496
  181SLPC   H4X20758   4.848   3.337  10.223 -1.4374 -0.9452 -1.2324
  181SLPC   H4Y20759   4.778   3.171  10.214  1.2071 -2.4520  4.7227
  181SLPC   C3520760   4.978   3.193  10.115  0.4814 -0.3355 -0.5627
  181SLPC   H5X20761   5.014   3.089  10.133  1.3698 -0.0423 -0.5832
  181SLPC   H5Y20762   5.063   3.264  10.122  0.6980 -0.6286 -0.1465
  181SLPC   C3620763   4.913   3.214   9.983  0.0709 -0.2975  0.2234
  181SLPC   H6X20764   4.879   3.319   9.979  0.4238 -0.2003 -0.2269
  181SLPC   H6Y20765   4.834   3.136   9.969  0.7872 -0.6182 -2.7943
  181SLPC   C3720766   5.019   3.183   9.874 -0.2897 -0.0137 -0.3794
  181SLPC   H7X20767   5.070   3.085   9.891 -0.8108 -0.1411  0.5171
  181SLPC   H7Y20768   5.096   3.260   9.895  0.3064 -0.9199  0.8817
  181SLPC   C3820769   4.958   3.188   9.740  0.8198 -0.4543 -0.3635
  181SLPC   H8X20770   4.901   3.283   9.729 -0.4209 -1.1899 -0.5087
  181SLPC   H8Y20771   4.884   3.105   9.731  0.7872 -0.2195 -3.0866
  181SLPC   C3920772   5.048   3.179   9.622 -0.0504  0.8028 -0.0278
  181SLPC   H9X20773   5.105   3.084   9.620 -0.8552  0.3026  0.1651
  181SLPC   H9Y20774   5.126   3.257   9.614 -1.7329  2.3407 -2.8952
  181SLPC  C31020775   4.964   3.189   9.493 -0.6859  0.1471  0.3277
  181SLPC  H10X20776   4.908   3.285   9.494 -0.7219  0.1303  1.4864
  181SLPC  H10Y20777   4.897   3.102   9.483  0.8043 -0.8168 -2.8435
  181SLPC  C31120778   5.064   3.190   9.372  0.5783 -0.2313  0.2651
  181SLPC  H11X20779   5.125   3.099   9.356  0.7612 -0.2477  1.0212
  181SLPC  H11Y20780   5.137   3.273   9.382  2.5980 -1.3750 -3.1807
  181SLPC  C31220781   4.988   3.198   9.241  0.1240 -0.3811  0.2984
  181SLPC  H12X20782   4.932   3.294   9.238 -0.8037 -0.9428 -0.6846
  181SLPC  H12Y20783   4.910   3.119   9.246 -1.5540  1.2447  3.2691
  181SLPC  C31320784   5.073   3.162   9.117 -0.0131 -0.1626  0.2637
  181SLPC  H13X20785   5.100   3.054   9.123  0.0879 -0.1797 -0.3961
  181SLPC  H13Y20786   5.171   3.213   9.117 -1.1975  2.3063 -1.0481
  181SLPC  C31420787   4.999   3.195   8.985  0.8452 -0.6106 -0.3001
  181SLPC  H14X20788   4.977   3.303   8.967  1.2172 -0.4481  0.2083
  181SLPC  H14Y20789   4.901   3.142   8.983 -1.8198  3.7734  0.2714
  181SLPC  C31520790   5.070   3.143   8.864  0.2913  0.2991 -0.2306
  181SLPC  H15X20791   5.034   3.039   8.855  1.9150 -0.1753 -1.8794
  181SLPC  H15Y20792   5.181   3.138   8.875  0.1944 -0.7583  0.3699
  181SLPC  C31620793   5.034   3.219   8.738  0.7469 -0.1704  0.0137
  181SLPC  H16X20794   5.107   3.302   8.725  0.5289  0.2493  1.3269
  181SLPC  H16Y20795   4.930   3.256   8.751  0.1725 -1.9125  0.6344
  181SLPC  C31720796   5.022   3.139   8.603 -0.5785  0.0349  0.1946
  181SLPC  H17X20797   4.959   3.199   8.535 -2.1543 -1.1231  0.5632
  181SLPC  H17Y20798   4.959   3.052   8.633  0.0364  0.2107  2.1866
  181SLPC  C31820799   5.154   3.101   8.541 -0.3606  0.2575 -0.1739
  181SLPC  H18X20800   5.200   3.016   8.595  2.6507  1.6009 -0.4564
  181SLPC  H18Y20801   5.218   3.190   8.557  0.5854 -0.4124 -0.1454
  181SLPC  H18Z20802   5.152   3.083   8.431  2.3537  0.6808 -0.3636
  182SLPC     N20803   3.032   5.119  11.441 -0.2055  0.5400 -0.1300
  182SLPC   C1320804   3.124   5.226  11.384  0.4659  0.2519  0.5208
  182SLPC  H13A20805   3.225   5.201  11.412  0.1930  1.2637  2.5949
  182SLPC  H13B20806   3.117   5.231  11.276 -0.5984 -1.5963  0.4636
  182SLPC  H13C20807   3.107   5.322  11.430  0.1182  0.9442 -0.9708
  182SLPC   C1420808   2.896   5.171  11.424 -0.1724 -0.7541 -0.2524
  182SLPC  H14A20809   2.887   5.278  11.437 -0.8604 -0.9262  0.8584
  182SLPC  H14B20810   2.856   5.159  11.325 -1.7777 -1.3732  0.4253
  182SLPC  H14C20811   2.825   5.123  11.491  0.8412 -0.7571  0.8602
  182SLPC   C1520812   3.065   5.106  11.587  0.4180  0.8941  0.1360
  182SLPC  H15A20813   3.039   5.201  11.632  1.5415  1.4234 -0.2823
  182SLPC  H15B20814   3.021   5.027  11.644  0.3529 -0.0757 -1.1992
  182SLPC  H15C20815   3.171   5.089  11.601 -0.0598 -2.5966  0.4338
  182SLPC   C1220816   3.043   4.988  11.368 -0.0359 -0.2553 -0.5211
  182SLPC  H12A20817   2.985   4.917  11.425  2.3068 -1.8746 -0.0104
  182SLPC  H12B20818   3.147   4.966  11.386 -0.7895 -1.8890  2.4772
  182SLPC   C1120819   3.004   4.969  11.221 -0.3054  0.2162  0.3638
  182SLPC  H11A20820   2.894   4.975  11.205 -0.3166  1.2108  0.7760
  182SLPC  H11B20821   3.041   4.870  11.187  0.7469  0.6717  0.1421
  182SLPC     P20822   2.997   5.167  11.042 -0.3107  0.4517 -0.0379
  182SLPC   O1320823   2.851   5.161  11.035 -0.0358 -0.1115  0.3415
  182SLPC   O1420824   3.053   5.300  11.069 -0.1463  0.0064 -0.3144
  182SLPC   O1220825   3.065   5.064  11.137  0.2392  0.1613 -0.2853
  182SLPC   O1120826   3.064   5.120  10.908 -0.2374  0.3386  0.2041
  182SLPC    C120827   3.052   4.992  10.849 -0.7660  0.5940 -0.8937
  182SLPC    HA20828   3.147   4.935  10.842 -0.2341  0.7582  2.6655
  182SLPC    HB20829   2.993   4.934  10.923  1.3488 -0.0047  0.4264
  182SLPC    C220830   2.983   4.995  10.709 -0.0297  0.2444 -0.5907
  182SLPC    HS20831   2.988   4.894  10.664  0.0604 -0.0519  0.0652
  182SLPC   O2120832   3.048   5.078  10.617  0.3019  0.2336  0.0278
  182SLPC   C2120833   3.149   5.033  10.551  0.4086  0.5802 -0.6309
  182SLPC   O2220834   3.197   4.920  10.550  0.6067 -0.5385  0.5933
  182SLPC   C2220835   3.198   5.146  10.455 -0.1873 -0.2681 -0.3820
  182SLPC   H2R20836   3.186   5.240  10.513 -1.5228 -0.1678 -0.7873
  182SLPC   H2S20837   3.302   5.120  10.427  0.3034 -0.1550  1.2341
  182SLPC    C320838   2.847   5.052  10.724 -0.8260  0.1122  0.6604
  182SLPC    HX20839   2.852   5.161  10.748  0.1130  0.1219  0.4394
  182SLPC    HY20840   2.784   5.020  10.809 -2.1678  2.4326  0.6449
  182SLPC   O3120841   2.771   5.036  10.606  0.4186  0.4507  0.2988
  182SLPC   C3120842   2.710   4.922  10.595  0.3027 -0.0035  0.2869
  182SLPC   O3220843   2.721   4.821  10.663  0.0660  0.1124 -0.2275
  182SLPC   C3220844   2.622   4.926  10.467  0.0307 -0.1819  0.2497
  182SLPC   H2X20845   2.514   4.935  10.493 -0.0540 -2.8249  1.0920
  182SLPC   H2Y20846   2.642   4.828  10.418 -1.3056  0.3045 -1.3511
  182SLPC   C2320847   3.103   5.173  10.335 -0.9209  0.1652  0.2867
  182SLPC   H3R20848   3.127   5.272  10.291 -0.6305  0.2903  0.7201
  182SLPC   H3S20849   2.994   5.176  10.356 -0.7899  0.5085  0.9656
  182SLPC   C2420850   3.113   5.072  10.218 -0.0238  1.0408  0.0248
  182SLPC   H4R20851   3.067   4.974  10.241  0.3706  1.0613  0.9784
  182SLPC   H4S20852   3.213   5.037  10.185 -1.0590 -1.9298 -0.3138
  182SLPC   C2520853   3.037   5.119  10.092  0.4026  0.4155 -0.0403
  182SLPC   H5R20854   3.075   5.210  10.040  1.4912 -1.2245 -2.2313
  182SLPC   H5S20855   2.934   5.144  10.123  0.1091  0.4070 -0.9930
  182SLPC   C2620856   3.027   5.014   9.984 -0.2204 -0.2078  0.4130
  182SLPC   H6R20857   2.936   5.039   9.925 -1.1156  1.8826  2.5492
  182SLPC   H6S20858   3.009   4.910  10.020 -0.2649 -1.2275 -2.3053
  182SLPC   C2720859   3.145   5.015   9.889  0.2093  0.4818  0.4290
  182SLPC   H7R20860   3.144   4.921   9.830 -1.5823  1.4509 -1.2042
  182SLPC   H7S20861   3.238   5.011   9.949  0.7088  0.0968 -0.3465
  182SLPC   C2820862   3.150   5.133   9.789 -0.0821  0.2982 -0.5709
  182SLPC   H8R20863   3.250   5.139   9.741  0.4454 -0.8919  0.3205
  182SLPC   H8S20864   3.129   5.223   9.850  1.4070  0.4929 -0.3057
  182SLPC   C2920865   3.043   5.135   9.690  0.2811 -0.6647  0.2006
  182SLPC   H9R20866   2.940   5.149   9.726  0.0743 -2.5889  0.4475
  182SLPC  C21020867   3.052   5.140   9.555 -0.0249 -0.0230  0.6705
  182SLPC  H10R20868   2.957   5.161   9.504  0.5864  0.9070 -0.1282
  182SLPC  C21120869   3.168   5.154   9.471  0.2839 -0.0283  0.5254
  182SLPC  H11R20870   3.247   5.199   9.536 -0.0701 -1.5362  2.0645
  182SLPC  H11S20871   3.147   5.228   9.391 -1.1987  0.1915  1.0803
  182SLPC  C21220872   3.194   5.016   9.418  0.7338 -0.1400  0.6541
  182SLPC  H12R20873   3.160   4.935   9.485  1.7693 -1.8070 -0.7549
  182SLPC  C21320874   3.224   4.979   9.294 -0.7653  0.7198  0.1026
  182SLPC  H13R20875   3.240   4.877   9.256 -0.9467  1.5004 -2.2254
  182SLPC  C21420876   3.236   5.079   9.179  0.3048  0.5261 -0.2686
  182SLPC  H14R20877   3.338   5.081   9.135 -0.0787 -0.2878 -1.2207
  182SLPC  H14S20878   3.221   5.183   9.215  1.8178  0.3701  0.9622
  182SLPC  C21520879   3.134   5.047   9.064  0.7846 -0.6119 -0.1287
  182SLPC  H15R20880   3.035   5.029   9.111  0.6686 -1.8415 -0.8005
  182SLPC  H15S20881   3.166   4.963   8.999 -0.2370  1.1183 -3.0741
  182SLPC  C21620882   3.116   5.159   8.963 -0.3735  0.7404 -0.5167
  182SLPC  H16R20883   3.211   5.197   8.920  0.1543  0.9510  0.7773
  182SLPC  H16S20884   3.068   5.243   9.017  0.8498  0.3441  1.2848
  182SLPC  C21720885   3.015   5.128   8.856 -0.4736  0.0862 -0.4820
  182SLPC  H17R20886   2.952   5.219   8.848 -2.3012 -0.7374  2.6175
  182SLPC  H17S20887   2.955   5.036   8.870  0.7394 -0.4437  1.6535
  182SLPC  C21820888   3.086   5.109   8.719 -0.2122 -0.5269 -0.2021
  182SLPC  H18R20889   3.007   5.080   8.647  1.1705 -2.5372 -0.9955
  182SLPC  H18S20890   3.157   5.024   8.717 -0.1917 -0.6835  2.7208
  182SLPC  H18T20891   3.125   5.209   8.688 -0.0354 -0.1331  1.1902
  182SLPC   C3320892   2.656   5.042  10.369  0.9384  0.3512 -0.1080
  182SLPC   H3X20893   2.760   5.029  10.331  0.1339 -0.7875 -2.0813
  182SLPC   H3Y20894   2.645   5.143  10.415 -1.8479  0.7522 -1.4185
  182SLPC   C3420895   2.572   5.032  10.241 -0.1617 -0.2088  0.0787
  182SLPC   H4X20896   2.473   5.081  10.257  1.0357  2.0444  0.9551
  182SLPC   H4Y20897   2.557   4.926  10.209 -1.7171  0.4136 -1.4677
  182SLPC   C3520898   2.638   5.095  10.121 -0.2963  0.1336 -0.4929
  182SLPC   H5X20899   2.736   5.046  10.110  0.1856  0.9081  0.2608
  182SLPC   H5Y20900   2.659   5.203  10.130  0.0257  0.3390 -3.0709
  182SLPC   C3620901   2.554   5.067   9.995 -0.6414 -0.6395 -0.7994
  182SLPC   H6X20902   2.460   5.121  10.020 -0.0057  0.5071 -0.8245
  182SLPC   H6Y20903   2.537   4.957   9.989  0.4467 -0.8015 -1.0456
  182SLPC   C3720904   2.613   5.118   9.865 -0.1231 -0.4662  0.8329
  182SLPC   H7X20905   2.718   5.082   9.866 -0.1911 -0.7196 -0.2334
  182SLPC   H7Y20906   2.618   5.228   9.875  3.2704  0.2850 -5.0738
  182SLPC   C3820907   2.531   5.073   9.739 -0.4218 -0.3474  0.0060
  182SLPC   H8X20908   2.427   5.110   9.745 -0.6598 -1.1730  3.7408
  182SLPC   H8Y20909   2.527   4.962   9.745  1.9374 -0.5713 -1.3776
  182SLPC   C3920910   2.610   5.109   9.612  0.3420  0.0572  0.3349
  182SLPC   H9X20911   2.711   5.071   9.639 -1.0680 -1.9749  3.2324
  182SLPC   H9Y20912   2.616   5.218   9.595  0.8490 -0.0243 -0.0375
  182SLPC  C31020913   2.543   5.047   9.487  0.5972 -0.4293  0.3313
  182SLPC  H10X20914   2.435   5.071   9.494  0.7009  0.1552 -0.0405
  182SLPC  H10Y20915   2.550   4.936   9.485 -0.8289 -0.5952  1.8651
  182SLPC  C31120916   2.608   5.082   9.353  0.3836 -1.4497  0.3020
  182SLPC  H11X20917   2.714   5.051   9.363  1.3625  1.6040  0.2915
  182SLPC  H11Y20918   2.605   5.192   9.338  1.6699 -1.5736 -1.0765
  182SLPC  C31220919   2.540   5.012   9.239 -0.1418 -0.1578  0.0389
  182SLPC  H12X20920   2.441   5.056   9.215  0.8208  3.3761  1.8293
  182SLPC  H12Y20921   2.533   4.903   9.255  2.8327 -0.6320 -1.1978
  182SLPC  C31320922   2.637   5.020   9.116  0.6908 -0.4624 -0.2391
  182SLPC  H13X20923   2.703   4.933   9.137 -1.1503 -1.3083  2.5770
  182SLPC  H13Y20924   2.690   5.117   9.120 -0.3773  0.1037  1.9827
  182SLPC  C31420925   2.568   4.982   8.985  0.6734  0.1576  0.2152
  182SLPC  H14X20926   2.477   5.046   8.980  0.7966  0.4159  1.0995
  182SLPC  H14Y20927   2.544   4.873   8.984  1.2413  0.0214 -1.6967
  182SLPC  C31520928   2.663   5.015   8.870  0.9886  0.2542  0.0940
  182SLPC  H15X20929   2.741   4.935   8.866  1.9119  1.1489 -0.1207
  182SLPC  H15Y20930   2.712   5.113   8.887 -1.1261  1.6774 -1.5866
  182SLPC  C31620931   2.588   5.023   8.733 -0.5611 -0.3844  0.0931
  182SLPC  H16X20932   2.507   5.099   8.729  0.5281  0.7731 -0.5002
  182SLPC  H16Y20933   2.539   4.925   8.714 -0.1227 -0.6356  0.2400
  182SLPC  C31720934   2.692   5.054   8.623  0.0704  0.0422 -0.8515
  182SLPC  H17X20935   2.768   4.974   8.635 -0.0830  0.2324  2.1645
  182SLPC  H17Y20936   2.747   5.146   8.655  1.2765 -0.9391 -0.0156
  182SLPC  C31820937   2.655   5.077   8.479  0.9731  0.7331  1.3876
  182SLPC  H18X20938   2.601   4.989   8.437 -1.0560  2.1236  0.9253
  182SLPC  H18Y20939   2.740   5.116   8.419 -1.9612  2.5978 -1.9171
  182SLPC  H18Z20940   2.572   5.150   8.475 -1.3121 -1.7240  1.2088
  183SLPC     N20941   5.264   5.581  10.794  0.4441 -0.1066 -0.6052
  183SLPC   C1320942   5.373   5.633  10.706 -0.5525 -0.3846 -0.5311
  183SLPC  H13A20943   5.470   5.637  10.753  0.2508 -1.2348 -2.0228
  183SLPC  H13B20944   5.396   5.573  10.619 -1.2788  0.3395 -1.2438
  183SLPC  H13C20945   5.345   5.730  10.668  0.4693 -0.3832 -1.3163
  183SLPC   C1420946   5.225   5.695  10.890  0.3020  0.3926 -0.3499
  183SLPC  H14A20947   5.306   5.724  10.956 -0.3386 -0.6616  0.9603
  183SLPC  H14B20948   5.191   5.789  10.849 -1.5754  0.5649  1.4330
  183SLPC  H14C20949   5.153   5.656  10.961  0.1783  4.8294  2.3554
  183SLPC   C1520950   5.308   5.474  10.887 -0.7535  0.1625  0.0094
  183SLPC  H15A20951   5.349   5.395  10.826  0.3742 -0.0650  1.0231
  183SLPC  H15B20952   5.395   5.498  10.947 -0.2022  0.4291 -0.8851
  183SLPC  H15C20953   5.233   5.431  10.952  0.5654 -0.7602  0.9918
  183SLPC   C1220954   5.145   5.538  10.710  0.7601 -0.3928 -1.3459
  183SLPC  H12A20955   5.110   5.629  10.664  2.6829  0.4627 -1.2285
  183SLPC  H12B20956   5.075   5.502  10.784  1.4256  1.8710  0.5101
  183SLPC   C1120957   5.164   5.429  10.603  0.4185 -0.0629  0.1620
  183SLPC  H11A20958   5.247   5.452  10.534  0.7962 -3.3573 -0.6561
  183SLPC  H11B20959   5.075   5.414  10.537 -0.5010 -0.8640  1.5167
  183SLPC     P20960   5.059   5.236  10.747 -0.1677 -0.0172  0.0214
  183SLPC   O1320961   5.068   5.088  10.732 -0.4848  0.4494  0.1587
  183SLPC   O1420962   5.049   5.291  10.883 -0.4706 -0.2148  0.2149
  183SLPC   O1220963   5.186   5.301  10.674 -0.1846  0.1000 -0.7520
  183SLPC   O1120964   4.932   5.297  10.665  0.2944 -0.1390 -0.4113
  183SLPC    C120965   4.831   5.206  10.621 -0.5327  0.3620 -0.2558
  183SLPC    HA20966   4.845   5.102  10.656 -2.3438  0.7664  1.8776
  183SLPC    HB20967   4.733   5.227  10.669 -2.2217 -0.5883 -3.0446
  183SLPC    C220968   4.810   5.214  10.471  0.0333  0.2515 -0.5633
  183SLPC    HS20969   4.741   5.134  10.436  0.2097 -0.0233 -0.2897
  183SLPC   O2120970   4.936   5.213  10.406 -0.1132  0.5145 -0.8138
  183SLPC   C2120971   4.989   5.090  10.394 -0.7233 -0.8317 -0.5376
  183SLPC   O2220972   4.932   4.981  10.398  0.0381  0.3361  0.3221
  183SLPC   C2220973   5.142   5.107  10.383  0.2409 -0.1271  0.5193
  183SLPC   H2R20974   5.151   5.165  10.289  0.2880 -0.2516  0.4470
  183SLPC   H2S20975   5.176   5.173  10.466  0.2433  1.6240 -0.8214
  183SLPC    C320976   4.750   5.349  10.442 -0.4973  0.4099 -0.0396
  183SLPC    HX20977   4.823   5.425  10.475  1.8770  0.0733 -3.9285
  183SLPC    HY20978   4.658   5.380  10.497 -0.5280  0.2405  0.0061
  183SLPC   O3120979   4.736   5.370  10.299  0.2856 -0.3238  0.3405
  183SLPC   C3120980   4.619   5.330  10.248  0.0060  0.1388 -0.0425
  183SLPC   O3220981   4.528   5.288  10.318 -0.3593 -0.0215  0.4075
  183SLPC   C3220982   4.627   5.330  10.093  0.2845  0.4070 -0.7943
  183SLPC   H2X20983   4.702   5.258  10.055  0.4110 -1.0252  1.9172
  183SLPC   H2Y20984   4.646   5.432  10.053 -1.8471  0.7588 -1.0085
  183SLPC   C2320985   5.208   4.969  10.392 -0.0739 -0.2065  0.2555
  183SLPC   H3R20986   5.166   4.901  10.470 -0.8858  0.3786  0.3484
  183SLPC   H3S20987   5.310   4.978  10.434 -0.6386  0.8594  1.5018
  183SLPC   C2420988   5.217   4.890  10.263 -0.3383  0.7496  0.1010
  183SLPC   H4R20989   5.244   4.957  10.179 -3.1010 -0.8287 -2.2859
  183SLPC   H4S20990   5.114   4.856  10.238 -0.3995  1.1646 -0.2181
  183SLPC   C2520991   5.318   4.774  10.277 -0.5666  0.7633  0.0702
  183SLPC   H5R20992   5.293   4.710  10.364  4.0599 -2.9657 -0.9432
  183SLPC   H5S20993   5.416   4.823  10.296  0.5512 -0.8301 -1.2633
  183SLPC   C2620994   5.351   4.682  10.160 -0.0852 -0.3997  0.1035
  183SLPC   H6R20995   5.266   4.611  10.167 -0.3943 -0.1385 -0.8447
  183SLPC   H6S20996   5.441   4.625  10.189 -1.6114 -2.2280  1.5738
  183SLPC   C2720997   5.377   4.750  10.026 -0.0409 -0.3557  0.2740
  183SLPC   H7R20998   5.452   4.828  10.051  2.0579 -2.0010 -0.5104
  183SLPC   H7S20999   5.282   4.795   9.991  0.4615 -0.5269 -1.4242
  183SLPC   C2821000   5.412   4.645   9.917  0.0792  0.4021 -0.6751
  183SLPC   H8R21001   5.497   4.586   9.957 -0.1795  0.3156 -0.2400
  183SLPC   H8S21002   5.460   4.701   9.834  0.9398 -0.2147 -0.6061
  183SLPC   C2921003   5.303   4.552   9.872  0.5597  0.2103  0.0553
  183SLPC   H9R21004   5.230   4.515   9.945  1.0235  0.9553  0.9166
  183SLPC  C21021005   5.286   4.516   9.742  0.1917 -0.1714  0.5240
  183SLPC  H10R21006   5.200   4.457   9.706  0.0693  1.6214 -2.4627
  183SLPC  C21121007   5.363   4.558   9.626  0.0577  0.5896  0.1137
  183SLPC  H11R21008   5.471   4.571   9.651  0.0978 -1.5560  1.3000
  183SLPC  H11S21009   5.329   4.660   9.599 -0.3439  0.2355 -0.7328
  183SLPC  C21221010   5.359   4.465   9.508  0.1432  0.0961 -0.2134
  183SLPC  H12R21011   5.315   4.367   9.529 -0.7218  0.7352  1.0080
  183SLPC  C21321012   5.417   4.491   9.389  0.0514  0.5053  0.3881
  183SLPC  H13R21013   5.404   4.415   9.310  0.8572  2.8297 -2.1347
  183SLPC  C21421014   5.482   4.617   9.343 -0.0634  0.6374 -0.7499
  183SLPC  H14R21015   5.587   4.582   9.330 -0.1675 -0.4511  1.0125
  183SLPC  H14S21016   5.475   4.693   9.423 -1.4317  0.2202 -0.4420
  183SLPC  C21521017   5.436   4.682   9.211 -0.3559  0.0148  0.0744
  183SLPC  H15R21018   5.469   4.789   9.212 -0.5965  0.1086 -0.9060
  183SLPC  H15S21019   5.325   4.692   9.202 -0.2666  0.2483 -0.8618
  183SLPC  C21621020   5.482   4.607   9.086 -0.7204 -0.0123  0.1722
  183SLPC  H16R21021   5.475   4.496   9.081 -1.1335  0.0569 -2.2016
  183SLPC  H16S21022   5.588   4.635   9.069 -0.9051  3.4994  3.4832
  183SLPC  C21721023   5.390   4.655   8.969  0.2788  0.0789 -0.2853
  183SLPC  H17R21024   5.441   4.648   8.871  0.6373  0.5797 -0.1345
  183SLPC  H17S21025   5.378   4.764   8.986  0.9374 -0.2682  3.2237
  183SLPC  C21821026   5.254   4.585   8.940  0.2156  0.3625  0.2202
  183SLPC  H18R21027   5.206   4.631   8.852  1.0838 -0.9132 -0.9545
  183SLPC  H18S21028   5.187   4.596   9.028  1.1212  0.7713  0.8886
  183SLPC  H18T21029   5.272   4.476   8.925  2.9675  0.8590 -0.7722
  183SLPC   C3321030   4.495   5.273  10.025  0.2273 -0.1251  0.2323
  183SLPC   H3X21031   4.420   5.353  10.006 -1.6105 -1.3047  2.0411
  183SLPC   H3Y21032   4.448   5.195  10.088 -0.2227 -0.2347 -0.2313
  183SLPC   C3421033   4.517   5.201   9.887 -0.0701 -0.5572  0.3168
  183SLPC   H4X21034   4.427   5.145   9.855  1.0257 -0.7928 -2.7625
  183SLPC   H4Y21035   4.590   5.119   9.905 -2.3157 -2.5692  0.7393
  183SLPC   C3521036   4.563   5.281   9.762 -0.2174  0.7858  0.1008
  183SLPC   H5X21037   4.660   5.329   9.786  0.1982  0.9353 -1.7239
  183SLPC   H5Y21038   4.503   5.373   9.746 -1.2325 -0.0895 -1.4662
  183SLPC   C3621039   4.572   5.192   9.644  0.0724  0.0176 -0.1622
  183SLPC   H6X21040   4.476   5.140   9.627 -1.1971  1.5898  1.7455
  183SLPC   H6Y21041   4.642   5.107   9.659  1.0594  0.4409 -2.0674
  183SLPC   C3721042   4.616   5.270   9.518  0.6006 -0.0595 -0.4008
  183SLPC   H7X21043   4.721   5.304   9.527  0.4033  0.5911 -0.5017
  183SLPC   H7Y21044   4.552   5.360   9.519 -0.3498 -0.6627  2.5598
  183SLPC   C3821045   4.600   5.168   9.399  0.4464 -0.6043  0.4400
  183SLPC   H8X21046   4.641   5.069   9.430 -1.5616 -1.4755  0.4341
  183SLPC   H8Y21047   4.675   5.194   9.322 -0.0524 -0.9851 -0.1816
  183SLPC   C3921048   4.456   5.160   9.339 -0.1015 -0.1124  0.3379
  183SLPC   H9X21049   4.390   5.140   9.426 -0.5355 -0.4373 -0.0598
  183SLPC   H9Y21050   4.445   5.073   9.271  1.8646 -0.2840  0.1898
  183SLPC  C31021051   4.412   5.282   9.253 -0.5913  0.7279  0.6331
  183SLPC  H10X21052   4.439   5.369   9.316  0.3293 -0.2996  1.7206
  183SLPC  H10Y21053   4.303   5.279   9.234 -0.5374  3.6884 -0.6032
  183SLPC  C31121054   4.486   5.290   9.117  0.1462 -0.2676  0.3881
  183SLPC  H11X21055   4.589   5.330   9.124  0.5045 -0.5611 -2.2186
  183SLPC  H11Y21056   4.427   5.363   9.057 -2.4146 -2.5056 -0.0467
  183SLPC  C31221057   4.489   5.166   9.022 -0.1752 -0.0818 -0.2249
  183SLPC  H12X21058   4.386   5.125   9.018 -0.2048  0.0087 -0.4004
  183SLPC  H12Y21059   4.546   5.081   9.064 -2.1932 -0.8916  1.0374
  183SLPC  C31321060   4.521   5.194   8.879 -0.3190  0.0618  0.2005
  183SLPC  H13X21061   4.611   5.258   8.867  1.6325 -2.4213  0.6770
  183SLPC  H13Y21062   4.439   5.259   8.841 -1.3016 -1.0227  0.4086
  183SLPC  C31421063   4.535   5.070   8.794  0.5219  0.7788  0.2930
  183SLPC  H14X21064   4.437   5.019   8.798  0.4438  0.8075 -0.9571
  183SLPC  H14Y21065   4.605   4.999   8.845  0.7037 -1.1531 -2.4428
  183SLPC  C31521066   4.594   5.095   8.659  0.1545 -0.0697  0.5875
  183SLPC  H15X21067   4.616   4.998   8.609 -2.3730  0.4205 -1.6981
  183SLPC  H15Y21068   4.695   5.141   8.671  0.3717 -0.3662 -0.0676
  183SLPC  C31621069   4.513   5.162   8.548 -0.2184  0.2103  0.0113
  183SLPC  H16X21070   4.529   5.271   8.559  3.4096 -0.1623 -0.4069
  183SLPC  H16Y21071   4.405   5.137   8.559 -1.0374  3.3602  0.0654
  183SLPC  C31721072   4.571   5.138   8.411 -0.3224  0.3007 -0.6096
  183SLPC  H17X21073   4.587   5.030   8.391 -1.1464  0.0434  0.0517
  183SLPC  H17Y21074   4.670   5.187   8.418  0.4210 -1.0151 -1.6432
  183SLPC  C31821075   4.494   5.195   8.293 -0.1901 -0.7044 -1.6860
  183SLPC  H18X21076   4.396   5.146   8.273 -1.4686  0.5443  0.9197
  183SLPC  H18Y21077   4.560   5.190   8.204  1.7098  1.4113 -0.5020
  183SLPC  H18Z21078   4.472   5.304   8.306 -1.2349 -0.9621 -1.1618
  184SLPC     N21079   0.346   3.496  10.682 -0.2395 -0.1571  0.7367
  184SLPC   C1321080   0.433   3.618  10.698  0.5282 -0.0393  0.1918
  184SLPC  H13A21081   0.449   3.654  10.597 -1.2995 -0.4493 -0.2784
  184SLPC  H13B21082   0.388   3.702  10.748 -0.8292 -0.1867 -0.7330
  184SLPC  H13C21083   0.525   3.588  10.747  1.7601  0.5757 -1.6002
  184SLPC   C1421084   0.228   3.517  10.585 -0.3287 -0.6430 -0.2233
  184SLPC  H14A21085   0.172   3.606  10.611  0.8638  2.0809 -5.5084
  184SLPC  H14B21086   0.258   3.535  10.483 -0.0326  0.5334  0.0512
  184SLPC  H14C21087   0.171   3.426  10.582 -0.5961 -0.4629 -0.8334
  184SLPC   C1521088   0.281   3.471  10.819 -0.3253 -0.3763  0.5866
  184SLPC  H15A21089   0.242   3.559  10.867  1.0475  0.6818 -0.1454
  184SLPC  H15B21090   0.207   3.393  10.808 -0.3144 -0.1729 -1.2983
  184SLPC  H15C21091   0.356   3.443  10.892 -2.7633 -2.8990  2.3636
  184SLPC   C1221092   0.423   3.374  10.640 -0.2700  0.5525 -0.2550
  184SLPC  H12A21093   0.507   3.365  10.707  0.1742  0.5478 -0.8047
  184SLPC  H12B21094   0.460   3.401  10.542 -0.3458 -0.3329 -0.5336
  184SLPC   C1121095   0.362   3.231  10.618  0.1092 -0.3664  0.1535
  184SLPC  H11A21096   0.314   3.202  10.714  0.9373  0.0878  0.7273
  184SLPC  H11B21097   0.441   3.153  10.606 -0.3537 -0.6137 -1.4484
  184SLPC     P21098   0.164   3.135  10.492  0.3257 -0.4168 -0.0180
  184SLPC   O1321099   0.209   3.005  10.539  0.5929 -0.5611 -0.0311
  184SLPC   O1421100   0.048   3.201  10.554  0.1426  0.0204 -0.0883
  184SLPC   O1221101   0.278   3.241  10.504 -0.3985  0.0647 -0.1474
  184SLPC   O1121102   0.137   3.122  10.336 -0.1426  0.6914  0.0409
  184SLPC    C121103   0.223   3.059  10.238  0.0775 -0.0649  0.1963
  184SLPC    HA21104   0.249   3.135  10.162 -0.4078  0.5812  0.6723
  184SLPC    HB21105   0.320   3.027  10.282  0.7719  1.9357  0.2083
  184SLPC    C221106   0.155   2.938  10.170 -0.8869 -0.5661  1.0946
  184SLPC    HS21107   0.224   2.911  10.088 -0.8323  0.7050  0.6939
  184SLPC   O2121108   0.026   2.972  10.114  0.9739 -0.1622 -0.2219
  184SLPC   C2121109   0.035   3.046  10.001 -0.8040 -0.6827  0.0636
  184SLPC   O2221110   0.140   3.089   9.957 -0.6058  0.1744  0.4321
  184SLPC   C2221111  -0.100   3.091   9.951 -0.0229 -0.8390  0.7251
  184SLPC   H2R21112  -0.169   3.096  10.037  1.9007 -1.0541  2.3445
  184SLPC   H2S21113  -0.093   3.194   9.909  1.2537 -1.6746 -1.2692
  184SLPC    C321114   0.138   2.808  10.264  0.3697 -0.1425 -0.2490
  184SLPC    HX21115   0.053   2.840  10.328 -1.2439  1.8784 -3.1447
  184SLPC    HY21116   0.229   2.802  10.328 -0.0354  0.2881  0.3852
  184SLPC   O3121117   0.115   2.688  10.184 -0.0050  0.0319 -0.0055
  184SLPC   C3121118  -0.008   2.639  10.186 -0.4242 -0.4756  0.0257
  184SLPC   O3221119  -0.092   2.675  10.264 -0.0043  0.0532 -0.6707
  184SLPC   C3221120  -0.040   2.536  10.079 -0.0069 -0.0546 -0.7667
  184SLPC   H2X21121  -0.149   2.528  10.100  0.2476  0.6659  1.0323
  184SLPC   H2Y21122   0.007   2.438  10.106 -1.5650 -0.3971  0.9218
  184SLPC   C2321123  -0.136   2.997   9.837  0.6780  0.4741 -0.2642
  184SLPC   H3R21124  -0.241   3.023   9.813  0.7281 -0.3923 -1.5595
  184SLPC   H3S21125  -0.123   2.896   9.882  1.2271  2.2770  4.0787
  184SLPC   C2421126  -0.057   3.017   9.707  0.5927 -0.5256 -0.1491
  184SLPC   H4R21127   0.044   2.974   9.725 -0.3571 -2.7268  0.1391
  184SLPC   H4S21128  -0.050   3.125   9.681  1.4047 -0.5150  0.0875
  184SLPC   C2521129  -0.132   2.932   9.607  0.0327 -0.2216  0.8589
  184SLPC   H5R21130  -0.241   2.954   9.605 -0.3792 -2.0816  0.3998
  184SLPC   H5S21131  -0.119   2.823   9.624  0.3978  0.1118  2.8751
  184SLPC   C2621132  -0.092   2.965   9.464 -0.0662  0.1892  0.1113
  184SLPC   H6R21133   0.015   2.940   9.449  1.0515  3.0594  2.1874
  184SLPC   H6S21134  -0.089   3.076   9.458  1.1916  0.1799  0.3511
  184SLPC   C2721135  -0.179   2.896   9.358 -0.5699  0.3152 -0.2895
  184SLPC   H7R21136  -0.284   2.929   9.373 -0.5171  0.6288 -0.6095
  184SLPC   H7S21137  -0.176   2.786   9.379  0.0271  0.2581 -0.6568
  184SLPC   C2821138  -0.134   2.922   9.211 -0.0425 -0.4009  0.1912
  184SLPC   H8R21139  -0.165   2.832   9.153  0.7451  0.5797 -1.8601
  184SLPC   H8S21140  -0.025   2.937   9.201 -0.0455 -1.1897 -1.4719
  184SLPC   C2921141  -0.192   3.049   9.152 -0.2248 -0.4249 -0.3470
  184SLPC   H9R21142  -0.176   3.140   9.211  0.1475  0.5710 -1.9325
  184SLPC  C21021143  -0.253   3.054   9.032 -0.5711  0.8362  0.0399
  184SLPC  H10R21144  -0.288   3.153   8.999 -1.3056  0.8939  0.9290
  184SLPC  C21121145  -0.288   2.936   8.940  0.0586 -0.0363 -0.3531
  184SLPC  H11R21146  -0.321   2.847   8.998 -0.5243  1.2059  1.2757
  184SLPC  H11S21147  -0.195   2.917   8.882  1.5582  2.2665  1.1568
  184SLPC  C21221148  -0.393   2.956   8.844  0.6192 -0.0480  0.1912
  184SLPC  H12R21149  -0.362   2.988   8.743 -2.0711  2.4272  0.0129
  184SLPC  C21321150  -0.527   2.951   8.865  0.1582  0.4675  0.0164
  184SLPC  H13R21151  -0.599   2.951   8.781 -2.7920 -0.0275  2.3828
  184SLPC  C21421152  -0.591   2.918   9.000 -0.0704 -0.0883 -0.7602
  184SLPC  H14R21153  -0.523   2.902   9.086 -1.9402 -0.1428  0.7662
  184SLPC  H14S21154  -0.657   2.829   8.997 -0.4682  0.0524  1.7952
  184SLPC  C21521155  -0.684   3.038   9.036  0.4033 -0.2348  0.3303
  184SLPC  H15R21156  -0.755   3.068   8.956  0.5014 -1.0654 -0.0768
  184SLPC  H15S21157  -0.615   3.125   9.032  0.4979 -0.1866  2.3146
  184SLPC  C21621158  -0.745   3.040   9.177  0.0050  0.1823  0.7692
  184SLPC  H16R21159  -0.745   3.145   9.214  0.0825  0.2420  0.6057
  184SLPC  H16S21160  -0.673   2.984   9.240 -0.0817  1.7647  2.3450
  184SLPC  C21721161  -0.886   2.974   9.186  0.3312 -0.3710 -0.7557
  184SLPC  H17R21162  -0.948   3.048   9.131  0.3420  0.5299  0.4016
  184SLPC  H17S21163  -0.912   2.976   9.294  2.3528  0.1679 -0.2310
  184SLPC  C21821164  -0.912   2.839   9.129 -0.0000 -0.4165  0.2787
  184SLPC  H18R21165  -0.875   2.818   9.026 -0.0185  0.2445  0.1306
  184SLPC  H18S21166  -1.019   2.810   9.126 -0.8533  2.3938  0.3504
  184SLPC  H18T21167  -0.857   2.765   9.191  2.7491  0.5386 -0.8443
  184SLPC   C3321168   0.013   2.559   9.930  1.0363  0.0258 -0.5840
  184SLPC   H3X21169  -0.024   2.648   9.874 -1.6030 -0.9612 -0.5760
  184SLPC   H3Y21170  -0.023   2.471   9.873 -0.3756  0.6847 -0.7538
  184SLPC   C3421171   0.166   2.564   9.920  0.0131 -0.3622  0.3287
  184SLPC   H4X21172   0.200   2.501  10.004 -3.0517 -1.6475  0.6924
  184SLPC   H4Y21173   0.207   2.663   9.951 -0.6336 -0.3151  1.0403
  184SLPC   C3521174   0.231   2.533   9.780  0.6109 -0.4406  0.0911
  184SLPC   H5X21175   0.200   2.432   9.744  0.4308 -0.9987  1.7316
  184SLPC   H5Y21176   0.341   2.535   9.798  0.8057 -0.1850 -1.0651
  184SLPC   C3621177   0.199   2.641   9.670 -0.0724 -0.6193 -0.5044
  184SLPC   H6X21178   0.216   2.744   9.708 -0.8431  0.7394 -3.5449
  184SLPC   H6Y21179   0.089   2.637   9.654  0.0869 -1.2695 -1.5690
  184SLPC   C3721180   0.288   2.621   9.544 -0.2852 -0.0872 -0.6652
  184SLPC   H7X21181   0.288   2.511   9.529 -2.2553 -0.2654  0.3333
  184SLPC   H7Y21182   0.386   2.663   9.573 -0.2445 -0.2534 -0.5657
  184SLPC   C3821183   0.232   2.703   9.426 -1.1405  0.2465  0.3079
  184SLPC   H8X21184   0.317   2.770   9.402 -2.6257  1.9385 -0.4095
  184SLPC   H8Y21185   0.141   2.762   9.450 -1.1651  0.6571 -0.7721
  184SLPC   C3921186   0.197   2.628   9.297 -0.6989 -0.0938 -0.1706
  184SLPC   H9X21187   0.288   2.573   9.267 -0.0214  0.7927  0.2368
  184SLPC   H9Y21188   0.157   2.700   9.221  0.7348  0.9487  0.0227
  184SLPC  C31021189   0.090   2.516   9.306 -0.7169 -0.7580 -0.0458
  184SLPC  H10X21190  -0.006   2.560   9.341 -1.4065 -1.1666 -1.3649
  184SLPC  H10Y21191   0.122   2.431   9.370 -2.7213  0.1190  2.2980
  184SLPC  C31121192   0.052   2.449   9.171 -0.4436 -0.2389 -0.2333
  184SLPC  H11X21193  -0.012   2.367   9.210 -0.6285  0.8689  1.9017
  184SLPC  H11Y21194   0.141   2.409   9.117  0.6839  1.1974  0.4775
  184SLPC  C31221195  -0.031   2.538   9.077 -0.3805  0.1976  0.1218
  184SLPC  H12X21196   0.031   2.627   9.056 -1.0335  0.6335  0.0209
  184SLPC  H12Y21197  -0.119   2.570   9.137 -0.3398 -1.4839  1.1488
  184SLPC  C31321198  -0.075   2.460   8.955 -0.3443  0.0845 -0.5142
  184SLPC  H13X21199  -0.165   2.502   8.904 -0.1603  0.6221 -0.4080
  184SLPC  H13Y21200  -0.101   2.357   8.987 -0.6524  0.4305  0.3805
  184SLPC  C31421201   0.034   2.455   8.837  0.0827 -0.0372 -0.0216
  184SLPC  H14X21202  -0.004   2.381   8.764  0.9858  1.2024 -1.8076
  184SLPC  H14Y21203   0.138   2.442   8.876  0.0048 -0.5632  0.0183
  184SLPC  C31521204   0.022   2.583   8.745  0.2735  0.1525  0.0024
  184SLPC  H15X21205   0.032   2.671   8.813 -1.1766 -0.3934  0.9778
  184SLPC  H15Y21206  -0.082   2.586   8.705 -0.2439 -4.1710  0.5089
  184SLPC  C31621207   0.126   2.585   8.630  0.7705  0.8924 -0.0760
  184SLPC  H16X21208   0.119   2.680   8.572  1.1425  0.1504 -1.3870
  184SLPC  H16Y21209   0.097   2.510   8.553  2.9066  0.7179 -0.8019
  184SLPC  C31721210   0.269   2.556   8.676 -0.1151  0.3553  0.5238
  184SLPC  H17X21211   0.285   2.451   8.711 -1.8037 -0.3664 -0.7255
  184SLPC  H17Y21212   0.304   2.627   8.754 -0.1667  3.7053 -2.2558
  184SLPC  C31821213   0.362   2.578   8.554 -0.1094 -0.3131 -0.1285
  184SLPC  H18X21214   0.305   2.521   8.477 -1.0018  0.0577  0.2503
  184SLPC  H18Y21215   0.470   2.550   8.560  0.4365  1.5665 -0.5392
  184SLPC  H18Z21216   0.350   2.678   8.507 -2.3696 -2.3523 -4.4828
  185SLPC     N21217   4.413   4.287   6.134  0.9226 -0.1027 -0.5442
  185SLPC   C1321218   4.266   4.260   6.095 -0.7515  0.4596 -0.0083
  185SLPC  H13A21219   4.237   4.183   6.165 -0.0407  0.5843  0.4361
  185SLPC  H13B21220   4.193   4.338   6.114 -2.4011 -0.9000 -0.4627
  185SLPC  H13C21221   4.256   4.220   5.996  0.9736 -0.4659  0.1646
  185SLPC   C1421222   4.462   4.395   6.052 -0.3150 -0.1666 -0.3258
  185SLPC  H14A21223   4.550   4.432   6.103 -1.8953 -1.0080  3.3361
  185SLPC  H14B21224   4.488   4.369   5.950  1.0561  2.4139 -0.7477
  185SLPC  H14C21225   4.406   4.487   6.062  0.5610  0.8268 -3.3859
  185SLPC   C1521226   4.496   4.159   6.112 -0.2221 -0.9656  0.6713
  185SLPC  H15A21227   4.493   4.129   6.008  1.9392 -0.1176  0.3094
  185SLPC  H15B21228   4.598   4.184   6.138  0.3177 -0.0249 -2.0155
  185SLPC  H15C21229   4.466   4.093   6.191 -0.7160  0.3880  1.6606
  185SLPC   C1221230   4.412   4.322   6.282  0.1298  0.1446 -0.0733
  185SLPC  H12A21231   4.358   4.251   6.342  1.4365  1.5645  3.0114
  185SLPC  H12B21232   4.356   4.415   6.284  2.3257  1.5356  0.4308
  185SLPC   C1121233   4.542   4.353   6.361 -0.4254 -0.3383 -0.1230
  185SLPC  H11A21234   4.619   4.273   6.350 -0.5168 -0.6938  1.6021
  185SLPC  H11B21235   4.527   4.351   6.471  1.6209 -1.0396  0.1999
  185SLPC     P21236   4.557   4.616   6.380  0.4201  0.0933  0.2661
  185SLPC   O1321237   4.658   4.715   6.333  0.9738 -0.7546  0.6274
  185SLPC   O1421238   4.419   4.645   6.357 -0.0103  0.6076  0.3670
  185SLPC   O1221239   4.594   4.482   6.315 -0.2156  0.7269  0.1807
  185SLPC   O1121240   4.581   4.591   6.533 -0.0524  0.0535  0.0326
  185SLPC    C121241   4.711   4.622   6.585  0.1915  0.0123  0.9092
  185SLPC    HA21242   4.794   4.617   6.511  0.5153  2.0373  1.0768
  185SLPC    HB21243   4.716   4.731   6.605  1.0441 -0.2510  2.2572
  185SLPC    C221244   4.757   4.549   6.713  0.6440 -0.2649 -0.1869
  185SLPC    HS21245   4.771   4.447   6.670  0.2619  1.1274 -3.9985
  185SLPC   O2121246   4.648   4.558   6.810 -0.2940 -0.0525 -0.1643
  185SLPC   C2121247   4.580   4.445   6.814  0.8518 -1.1727  0.1122
  185SLPC   O2221248   4.579   4.356   6.727  0.5329  0.2943  0.0765
  185SLPC   C2221249   4.475   4.457   6.932  0.1987 -0.5794 -0.0291
  185SLPC   H2R21250   4.399   4.532   6.902  1.1410  1.7273  2.8876
  185SLPC   H2S21251   4.424   4.359   6.936 -0.3123 -0.2903  0.7767
  185SLPC    C321252   4.889   4.601   6.775 -1.0347 -0.0078  0.4261
  185SLPC    HX21253   4.857   4.700   6.812 -2.6477 -0.2088 -0.3601
  185SLPC    HY21254   4.971   4.610   6.701 -0.3253  0.6406  1.2736
  185SLPC   O3121255   4.932   4.514   6.880  0.2637 -0.1565  0.6243
  185SLPC   C3121256   5.033   4.578   6.945  0.5515  0.1813  0.0152
  185SLPC   O3221257   5.070   4.690   6.925  0.0375  0.2013  0.0641
  185SLPC   C3221258   5.095   4.480   7.050 -0.6535  0.6232  0.1612
  185SLPC   H2X21259   5.128   4.392   6.990  0.0669  0.6895  0.4417
  185SLPC   H2Y21260   5.015   4.465   7.126 -0.0336 -0.8070  0.5805
  185SLPC   C2321261   4.525   4.505   7.073  0.0283 -0.2604 -0.3655
  185SLPC   H3R21262   4.596   4.590   7.067 -1.5587  1.0003 -3.1023
  185SLPC   H3S21263   4.582   4.417   7.110 -0.6628 -0.4124  0.3673
  185SLPC   C2421264   4.412   4.548   7.172 -0.2440 -0.0119  0.2876
  185SLPC   H4R21265   4.346   4.458   7.169  1.2823 -1.1464 -1.6733
  185SLPC   H4S21266   4.345   4.626   7.131 -0.3164  0.3757  1.1100
  185SLPC   C2521267   4.451   4.574   7.313 -0.2281 -0.0330  0.7633
  185SLPC   H5R21268   4.523   4.658   7.312  0.1647 -0.3542  1.2905
  185SLPC   H5S21269   4.520   4.497   7.353  0.5619  1.0212  1.5086
  185SLPC   C2621270   4.332   4.597   7.406 -0.2451 -0.2405  0.0603
  185SLPC   H6R21271   4.252   4.522   7.392  0.0864 -0.6372  0.2708
  185SLPC   H6S21272   4.280   4.689   7.372 -2.0378 -1.9041 -1.9965
  185SLPC   C2721273   4.376   4.627   7.547 -0.2291 -0.2836 -0.0310
  185SLPC   H7R21274   4.288   4.668   7.601  0.0985  1.4974 -0.7530
  185SLPC   H7S21275   4.438   4.719   7.552  1.4539 -1.2616 -1.5203
  185SLPC   C2821276   4.440   4.510   7.632 -0.1979 -0.5986 -0.8171
  185SLPC   H8R21277   4.451   4.544   7.737 -0.8169 -1.0403 -0.6044
  185SLPC   H8S21278   4.542   4.490   7.591  0.0657  0.1852 -0.5634
  185SLPC   C2921279   4.361   4.383   7.620  0.1555  0.1648  0.1023
  185SLPC   H9R21280   4.361   4.349   7.515  0.4998  0.0912  0.1237
  185SLPC  C21021281   4.306   4.296   7.710  0.1249 -0.1228 -0.1458
  185SLPC  H10R21282   4.235   4.221   7.670  1.2408 -1.1867 -0.2108
  185SLPC  C21121283   4.306   4.326   7.856 -0.2025  0.5908 -0.2909
  185SLPC  H11R21284   4.199   4.349   7.873 -0.3383 -0.4317  0.2730
  185SLPC  H11S21285   4.367   4.416   7.883 -0.6871  0.3936  1.6452
  185SLPC  C21221286   4.334   4.204   7.943  0.3294  0.0349  0.0952
  185SLPC  H12R21287   4.272   4.115   7.926 -0.9762  1.0585 -0.7127
  185SLPC  C21321288   4.422   4.205   8.042  0.0562  0.1845  0.0306
  185SLPC  H13R21289   4.433   4.108   8.093 -0.1368  0.0657 -0.1528
  185SLPC  C21421290   4.518   4.319   8.084 -0.3347  0.6991 -0.3637
  185SLPC  H14R21291   4.476   4.417   8.051 -1.3701  0.3202 -0.2304
  185SLPC  H14S21292   4.616   4.305   8.034  0.4919  2.9558  0.5329
  185SLPC  C21521293   4.543   4.334   8.237 -0.2320  0.9227  0.0247
  185SLPC  H15R21294   4.447   4.356   8.289 -0.0093 -0.4515  1.0994
  185SLPC  H15S21295   4.607   4.424   8.249  0.8598  0.2739 -0.8169
  185SLPC  C21621296   4.608   4.214   8.310  0.1804 -0.9409 -0.9535
  185SLPC  H16R21297   4.708   4.195   8.266  1.9438 -2.8398  3.3568
  185SLPC  H16S21298   4.553   4.121   8.286 -1.6784 -0.1445  0.0022
  185SLPC  C21721299   4.606   4.227   8.468 -0.2506  0.0921  0.2648
  185SLPC  H17R21300   4.502   4.238   8.505 -0.4084  1.3219 -0.4791
  185SLPC  H17S21301   4.664   4.320   8.485 -0.1964  0.0366  0.3811
  185SLPC  C21821302   4.678   4.108   8.533  0.1632  0.4193 -0.3282
  185SLPC  H18R21303   4.783   4.113   8.498 -0.2344  1.2385 -1.5069
  185SLPC  H18S21304   4.636   4.008   8.509  0.9854  0.1325 -0.5849
  185SLPC  H18T21305   4.679   4.115   8.644 -0.1850 -1.5078 -0.1723
  185SLPC   C3321306   5.220   4.548   7.111  0.3941  0.8478  0.6315
  185SLPC   H3X21307   5.175   4.644   7.145 -0.3649  0.3241  1.1214
  185SLPC   H3Y21308   5.297   4.574   7.035  0.3309  3.6200  1.3774
  185SLPC   C3421309   5.282   4.470   7.238 -0.0015 -0.4552  0.6818
  185SLPC   H4X21310   5.389   4.501   7.247  0.1975 -1.1233  0.6823
  185SLPC   H4Y21311   5.273   4.360   7.227 -1.3183 -0.1697 -2.1284
  185SLPC   C3521312   5.200   4.508   7.359 -0.1843 -0.7267 -0.1809
  185SLPC   H5X21313   5.099   4.463   7.357 -1.4259  1.8491  0.0015
  185SLPC   H5Y21314   5.186   4.618   7.358  1.6921 -0.4233 -3.0715
  185SLPC   C3621315   5.255   4.456   7.492  0.5805  0.5466 -0.6161
  185SLPC   H6X21316   5.365   4.476   7.487  0.5666  1.2116  1.2528
  185SLPC   H6Y21317   5.245   4.346   7.509  0.9709  0.4303 -1.0765
  185SLPC   C3721318   5.188   4.539   7.603  0.1990 -0.5176  0.1967
  185SLPC   H7X21319   5.078   4.522   7.609 -0.1272  1.4977  0.6825
  185SLPC   H7Y21320   5.197   4.647   7.577  0.7142 -0.3574  0.9878
  185SLPC   C3821321   5.257   4.513   7.736  0.2422 -0.0556  0.0856
  185SLPC   H8X21322   5.368   4.515   7.728  0.2581  1.2098  0.3015
  185SLPC   H8Y21323   5.225   4.410   7.762 -2.8387  1.2297  1.9642
  185SLPC   C3921324   5.224   4.602   7.856  0.0449  0.2769 -0.1480
  185SLPC   H9X21325   5.114   4.612   7.868 -0.3847 -0.5476 -2.8847
  185SLPC   H9Y21326   5.253   4.705   7.826  0.5778 -0.6120 -2.8929
  185SLPC  C31021327   5.282   4.556   7.992  0.3012 -0.0227  0.6225
  185SLPC  H10X21328   5.391   4.567   7.979  0.3764 -2.1071 -0.9405
  185SLPC  H10Y21329   5.261   4.447   8.003 -2.8596  0.4715  0.5848
  185SLPC  C31121330   5.215   4.632   8.102  0.3999  0.5177  0.3968
  185SLPC  H11X21331   5.254   4.583   8.193  0.5870  1.3815  0.7942
  185SLPC  H11Y21332   5.106   4.624   8.120  0.4213  0.9828  0.7469
  185SLPC  C31221333   5.260   4.776   8.121 -0.1508  0.5243 -0.7705
  185SLPC  H12X21334   5.215   4.845   8.046 -0.3602  0.5667 -0.6067
  185SLPC  H12Y21335   5.367   4.775   8.091  0.4992  0.9610  1.3768
  185SLPC  C31321336   5.246   4.831   8.264 -0.4646  0.7087 -0.2738
  185SLPC  H13X21337   5.310   4.921   8.270 -1.4738  1.3329  2.7459
  185SLPC  H13Y21338   5.274   4.758   8.343 -1.8501  1.5726  1.0623
  185SLPC  C31421339   5.106   4.873   8.300 -0.4791 -0.1268  0.1484
  185SLPC  H14X21340   5.044   4.781   8.307 -0.2836 -0.6904 -3.4412
  185SLPC  H14Y21341   5.062   4.928   8.214  0.0475  0.0030 -0.0472
  185SLPC  C31521342   5.085   4.960   8.426  0.0628 -0.0602  1.0079
  185SLPC  H15X21343   4.977   4.981   8.413  0.2609  0.9414  0.9490
  185SLPC  H15Y21344   5.137   5.058   8.420 -0.5221  0.1954 -0.5554
  185SLPC  C31621345   5.116   4.902   8.558 -0.6614 -0.0306 -0.7727
  185SLPC  H16X21346   5.221   4.868   8.549 -0.8175  0.0386 -4.0716
  185SLPC  H16Y21347   5.053   4.813   8.581  1.1795 -1.1506  0.0894
  185SLPC  C31721348   5.104   5.007   8.674  0.6446 -0.3195 -0.1147
  185SLPC  H17X21349   5.067   4.963   8.769 -0.3664  0.8015  0.0324
  185SLPC  H17Y21350   5.042   5.095   8.646  0.9102  0.2236  0.9629
  185SLPC  C31821351   5.242   5.067   8.705  0.3830  0.0087 -0.6774
  185SLPC  H18X21352   5.287   5.006   8.787  1.0839 -1.8532 -2.3471
  185SLPC  H18Y21353   5.239   5.171   8.744 -2.6354 -0.9586  2.1506
  185SLPC  H18Z21354   5.304   5.057   8.613  1.3075 -2.6226  0.1415
  186SLPC     N21355   6.735   1.109   6.073 -0.1730  0.8631  0.0518
  186SLPC   C1321356   6.711   0.979   6.008  0.2015  0.0946 -0.2122
  186SLPC  H13A21357   6.626   0.983   5.941  0.4725 -0.6996 -0.6163
  186SLPC  H13B21358   6.800   0.946   5.957  0.8379  0.3568  0.7044
  186SLPC  H13C21359   6.686   0.903   6.081  2.4462 -1.2746 -0.7925
  186SLPC   C1421360   6.841   1.092   6.174 -0.3625 -0.3853  1.1071
  186SLPC  H14A21361   6.823   1.022   6.254  2.4757 -1.7750  0.6770
  186SLPC  H14B21362   6.927   1.052   6.122 -1.0317 -2.1236  1.2611
  186SLPC  H14C21363   6.861   1.188   6.220  0.7001 -0.7740  1.4861
  186SLPC   C1521364   6.609   1.150   6.146 -0.1136 -0.0723  0.9066
  186SLPC  H15A21365   6.634   1.221   6.223  0.6070  0.2365  0.4035
  186SLPC  H15B21366   6.543   1.191   6.072  0.3576  0.0562  0.5520
  186SLPC  H15C21367   6.564   1.065   6.196  0.5947 -1.0216 -0.0227
  186SLPC   C1221368   6.770   1.216   5.974  0.1807  0.0729  0.0561
  186SLPC  H12A21369   6.707   1.229   5.888  2.2504  1.9112 -1.2615
  186SLPC  H12B21370   6.868   1.196   5.935  0.5139  2.2860 -0.3404
  186SLPC   C1121371   6.788   1.364   6.021  0.3436 -0.3331 -0.5045
  186SLPC  H11A21372   6.703   1.403   6.082  1.1185  1.7573 -0.6727
  186SLPC  H11B21373   6.792   1.429   5.931 -0.5842  1.1116  0.4503
  186SLPC     P21374   6.951   1.503   6.176 -0.1263 -0.3095 -0.0089
  186SLPC   O1321375   7.094   1.519   6.160 -0.1871  0.5426 -0.1552
  186SLPC   O1421376   6.860   1.617   6.147  0.0235  0.5641  0.2285
  186SLPC   O1221377   6.912   1.371   6.094  0.3910 -0.3367  0.0511
  186SLPC   O1121378   6.914   1.462   6.326 -0.6216  0.2753 -0.2382
  186SLPC    C121379   7.000   1.370   6.392  0.6092 -0.6070 -0.6141
  186SLPC    HA21380   6.931   1.286   6.416 -0.5778 -0.3721 -2.9205
  186SLPC    HB21381   7.099   1.339   6.352  2.1922  0.4418  2.1964
  186SLPC    C221382   7.036   1.426   6.533 -0.0362 -0.5566 -0.5576
  186SLPC    HS21383   7.097   1.352   6.589  0.8794  2.6082  2.9967
  186SLPC   O2121384   6.917   1.450   6.616  0.1067 -0.5600  0.1608
  186SLPC   C2121385   6.864   1.342   6.675 -0.4085 -0.9707  0.5752
  186SLPC   O2221386   6.927   1.235   6.684  0.1807  0.2036 -0.2253
  186SLPC   C2221387   6.717   1.369   6.716  0.2386  0.3583  0.1172
  186SLPC   H2R21388   6.678   1.431   6.633 -0.4784 -1.2295 -0.7624
  186SLPC   H2S21389   6.659   1.275   6.719 -0.1855  0.5415 -1.3720
  186SLPC    C321390   7.125   1.550   6.524  0.4341  0.0956  0.1087
  186SLPC    HX21391   7.067   1.629   6.471 -0.8010 -1.8749 -1.6482
  186SLPC    HY21392   7.216   1.535   6.463  0.1486  0.1477 -0.3397
  186SLPC   O3121393   7.177   1.598   6.648  0.1012  0.5424 -0.8618
  186SLPC   C3121394   7.159   1.725   6.674  0.1310  0.3476 -0.2099
  186SLPC   O3221395   7.093   1.806   6.610 -0.2689 -0.2268 -0.2381
  186SLPC   C3221396   7.221   1.757   6.814  0.1503 -0.3477 -0.0356
  186SLPC   H2X21397   7.225   1.662   6.871 -2.8745  1.4529  3.6336
  186SLPC   H2Y21398   7.152   1.825   6.869  0.4766 -0.8171  0.9707
  186SLPC   C2321399   6.720   1.430   6.863  0.4587  0.0401  0.3449
  186SLPC   H3R21400   6.624   1.470   6.903  0.4175 -0.6560  0.9639
  186SLPC   H3S21401   6.794   1.513   6.859 -1.2553  1.5815 -1.1595
  186SLPC   C2421402   6.755   1.320   6.973 -0.4114 -0.4972 -0.0774
  186SLPC   H4R21403   6.834   1.252   6.934  2.2954  3.1761 -1.6291
  186SLPC   H4S21404   6.665   1.256   6.987  0.2520 -1.5948 -0.7035
  186SLPC   C2521405   6.799   1.381   7.112 -0.4867 -0.6209  0.3844
  186SLPC   H5R21406   6.719   1.454   7.140  2.0898  3.0614 -1.0651
  186SLPC   H5S21407   6.891   1.443   7.110 -0.3962 -0.6677  2.0403
  186SLPC   C2621408   6.821   1.274   7.214 -0.1068  0.6088  0.8223
  186SLPC   H6R21409   6.889   1.199   7.168  0.4457  1.3742  0.3570
  186SLPC   H6S21410   6.722   1.231   7.236  0.1765 -1.3910 -1.3654
  186SLPC   C2721411   6.904   1.322   7.336  0.5307 -0.1710  0.3613
  186SLPC   H7R21412   7.001   1.366   7.303  1.1508 -1.5193  0.3211
  186SLPC   H7S21413   6.929   1.232   7.396 -3.3034 -1.0626  0.8779
  186SLPC   C2821414   6.818   1.422   7.417  0.0912  0.0687  0.4236
  186SLPC   H8R21415   6.786   1.512   7.360  1.4543  0.5614  0.3995
  186SLPC   H8S21416   6.881   1.469   7.495  1.2637 -3.0075  1.4857
  186SLPC   C2921417   6.694   1.354   7.473  0.0218  0.0039  0.4121
  186SLPC   H9R21418   6.625   1.314   7.398  0.8474  0.6150 -0.6885
  186SLPC  C21021419   6.661   1.339   7.601  0.2863 -0.2521  0.0398
  186SLPC  H10R21420   6.567   1.289   7.627  0.6636 -1.0562 -0.1064
  186SLPC  C21121421   6.733   1.379   7.731  0.6111  0.2308 -0.2515
  186SLPC  H11R21422   6.695   1.477   7.766 -1.0340  0.0121 -1.2900
  186SLPC  H11S21423   6.834   1.414   7.702  0.2197  0.8576 -0.8908
  186SLPC  C21221424   6.730   1.273   7.844 -0.0318 -0.0818 -0.2827
  186SLPC  H12R21425   6.646   1.202   7.852 -0.2045  0.0943 -0.5346
  186SLPC  C21321426   6.830   1.257   7.934 -0.0618  0.3975  0.1402
  186SLPC  H13R21427   6.832   1.167   7.997 -0.3942  0.0877 -0.2899
  186SLPC  C21421428   6.960   1.347   7.939  0.6164  0.5711 -0.3858
  186SLPC  H14R21429   6.923   1.450   7.919  0.7932  0.4812 -1.2131
  186SLPC  H14S21430   7.022   1.323   7.850 -1.2969 -0.4222 -1.5175
  186SLPC  C21521431   7.050   1.342   8.065  0.4467  0.8186  0.5695
  186SLPC  H15R21432   6.980   1.323   8.150 -1.2277  0.8135 -0.7753
  186SLPC  H15S21433   7.119   1.428   8.077  0.0503  1.2739 -0.3793
  186SLPC  C21621434   7.126   1.206   8.064 -0.3617  0.7850 -0.0663
  186SLPC  H16R21435   7.202   1.206   7.983 -1.1638  1.3068 -0.8473
  186SLPC  H16S21436   7.062   1.117   8.049  1.4006 -0.6396  0.5797
  186SLPC  C21721437   7.213   1.175   8.191  0.2772 -0.0453 -1.2691
  186SLPC  H17R21438   7.297   1.247   8.201  1.0141 -1.0093 -0.2448
  186SLPC  H17S21439   7.259   1.081   8.155 -1.4290  0.2131 -4.4570
  186SLPC  C21821440   7.136   1.157   8.317 -0.6861  0.1600  0.1933
  186SLPC  H18R21441   7.175   1.089   8.396 -1.3100 -0.8510 -0.3410
  186SLPC  H18S21442   7.045   1.104   8.281  0.3179 -0.0025 -2.2914
  186SLPC  H18T21443   7.109   1.255   8.362 -1.1603  0.9914 -1.8143
  186SLPC   C3321444   7.359   1.819   6.798 -0.0836 -0.1278 -0.2964
  186SLPC   H3X21445   7.353   1.921   6.755  2.3447  0.2681  0.1420
  186SLPC   H3Y21446   7.424   1.760   6.729 -0.6021  1.5783 -2.3425
  186SLPC   C3421447   7.436   1.817   6.928  0.3445  0.1320  0.4826
  186SLPC   H4X21448   7.463   1.710   6.937 -0.8658 -0.6479 -3.3024
  186SLPC   H4Y21449   7.355   1.834   7.003 -1.4232 -0.8569 -1.1256
  186SLPC   C3521450   7.547   1.922   6.936  0.1773  1.0098 -0.2117
  186SLPC   H5X21451   7.494   2.020   6.937  2.2233  2.1822  0.6808
  186SLPC   H5Y21452   7.604   1.906   6.841 -1.2350  0.2735 -0.9620
  186SLPC   C3621453   7.636   1.893   7.059 -0.1768  0.0937 -0.4354
  186SLPC   H6X21454   7.732   1.950   7.066 -0.2054 -0.0051  1.3558
  186SLPC   H6Y21455   7.665   1.786   7.059 -1.3173 -0.2322  0.2188
  186SLPC   C3721456   7.555   1.925   7.184  0.1171 -0.4033 -0.3177
  186SLPC   H7X21457   7.475   1.849   7.198 -0.0176 -0.5146 -1.6193
  186SLPC   H7Y21458   7.501   2.021   7.168  2.0760  0.9735  0.8918
  186SLPC   C3821459   7.623   1.939   7.316 -0.9349  0.0711 -0.6219
  186SLPC   H8X21460   7.702   2.018   7.314 -0.9752  0.1347  0.1085
  186SLPC   H8Y21461   7.667   1.839   7.335 -2.0889 -0.5640 -1.2026
  186SLPC   C3921462   7.521   1.965   7.429  0.2976 -0.0214 -0.0700
  186SLPC   H9X21463   7.445   1.885   7.442  0.0684  0.3394  0.8225
  186SLPC   H9Y21464   7.468   2.058   7.400  1.1269 -0.2559 -2.5868
  186SLPC  C31021465   7.593   1.977   7.559 -0.5592  0.3040  0.5138
  186SLPC  H10X21466   7.679   2.046   7.545 -0.8058  0.1084 -2.8602
  186SLPC  H10Y21467   7.652   1.882   7.557  0.9096  1.1450 -2.3251
  186SLPC  C31121468   7.499   1.993   7.680 -0.8634 -0.9939  0.2289
  186SLPC  H11X21469   7.439   1.901   7.697  0.0719 -1.6323  0.2129
  186SLPC  H11Y21470   7.429   2.074   7.653  0.0422 -0.6038 -1.0894
  186SLPC  C31221471   7.580   2.022   7.806  0.4734  0.5186  0.2414
  186SLPC  H12X21472   7.639   2.114   7.788 -2.3336  2.0946 -1.7548
  186SLPC  H12Y21473   7.643   1.934   7.832 -0.1297 -0.6626 -2.0672
  186SLPC  C31321474   7.488   2.036   7.923  0.2130 -0.4678 -0.0387
  186SLPC  H13X21475   7.416   1.952   7.923  0.1917 -0.5603 -2.8728
  186SLPC  H13Y21476   7.420   2.123   7.909  0.5698 -0.1223  0.3366
  186SLPC  C31421477   7.571   2.047   8.049  0.3237 -0.0768 -0.3802
  186SLPC  H14X21478   7.646   2.128   8.043  1.4930 -1.1219 -0.1367
  186SLPC  H14Y21479   7.636   1.957   8.048  1.1474  0.5007 -1.5940
  186SLPC  C31521480   7.480   2.061   8.175 -0.3472  0.2498 -0.7144
  186SLPC  H15X21481   7.556   2.064   8.255 -1.4247  1.6312  0.3034
  186SLPC  H15Y21482   7.419   1.971   8.196 -1.8202  1.5147  0.7694
  186SLPC  C31621483   7.398   2.197   8.189 -0.2719 -0.4207 -0.0687
  186SLPC  H16X21484   7.323   2.202   8.108 -2.2740 -0.8239  1.6801
  186SLPC  H16Y21485   7.468   2.282   8.176 -0.3439 -0.5138 -1.1775
  186SLPC  C31721486   7.303   2.208   8.309  0.0405  0.0290  0.5178
  186SLPC  H17X21487   7.256   2.107   8.313  0.4442 -0.2269 -0.6051
  186SLPC  H17Y21488   7.234   2.285   8.269  0.2192  0.5842  1.2719
  186SLPC  C31821489   7.350   2.272   8.442 -0.2098 -0.0895 -0.0117
  186SLPC  H18X21490   7.440   2.218   8.480  1.0100  1.7853 -0.0925
  186SLPC  H18Y21491   7.261   2.278   8.508 -0.4008 -1.1584 -0.1469
  186SLPC  H18Z21492   7.383   2.377   8.425 -0.0701 -0.5619 -3.2327
  187SLPC     N21493   0.419   3.753   5.940  0.0855  0.6997  0.0283
  187SLPC   C1321494   0.390   3.897   5.980  0.0701  0.3924 -0.3795
  187SLPC  H13A21495   0.306   3.943   5.930  1.6428  2.9379 -0.8802
  187SLPC  H13B21496   0.367   3.909   6.085 -2.0602  0.7629 -0.8487
  187SLPC  H13C21497   0.476   3.959   5.957 -0.3046  0.6547 -1.1137
  187SLPC   C1421498   0.556   3.707   5.970  0.4368 -0.3978  0.2205
  187SLPC  H14A21499   0.567   3.701   6.077  0.5008  1.4581  0.3496
  187SLPC  H14B21500   0.573   3.610   5.925 -2.4623 -1.7147  1.6878
  187SLPC  H14C21501   0.634   3.776   5.944 -0.6465  0.7730  0.0037
  187SLPC   C1521502   0.400   3.753   5.794 -0.0236 -0.3713 -1.0341
  187SLPC  H15A21503   0.406   3.651   5.759  1.5580  0.1415 -2.3590
  187SLPC  H15B21504   0.301   3.789   5.768 -0.0762 -0.4488 -0.9433
  187SLPC  H15C21505   0.477   3.810   5.745  0.5575 -0.4485 -0.2287
  187SLPC   C1221506   0.323   3.658   6.004  0.3374 -0.1167 -0.6716
  187SLPC  H12A21507   0.316   3.569   5.943 -0.9143  0.2499 -1.1134
  187SLPC  H12B21508   0.224   3.703   6.001  1.2552  2.1196  0.5594
  187SLPC   C1121509   0.350   3.637   6.157  0.1664  0.3483 -0.1961
  187SLPC  H11A21510   0.438   3.569   6.170  1.5685  1.7869 -1.6111
  187SLPC  H11B21511   0.270   3.570   6.194  1.2060 -2.0980 -2.0541
  187SLPC     P21512   0.469   3.783   6.325  0.1531  0.2965 -0.4019
  187SLPC   O1321513   0.601   3.729   6.279  0.3444  0.0207  0.0193
  187SLPC   O1421514   0.470   3.929   6.345 -0.3431 -0.2061 -0.2867
  187SLPC   O1221515   0.349   3.751   6.237  0.2776 -0.5098 -0.0769
  187SLPC   O1121516   0.421   3.713   6.462 -0.0102 -0.3180 -0.2098
  187SLPC    C121517   0.293   3.745   6.511 -0.2047  0.1750  0.2339
  187SLPC    HA21518   0.258   3.850   6.502 -0.9963 -0.0256  0.8519
  187SLPC    HB21519   0.213   3.688   6.459 -3.0035  1.7461  2.5215
  187SLPC    C221520   0.281   3.718   6.662  0.2192 -0.4862 -0.4761
  187SLPC    HS21521   0.317   3.614   6.679 -0.3594 -0.4719  0.9233
  187SLPC   O2121522   0.142   3.737   6.708 -0.4350 -0.6453 -0.0644
  187SLPC   C2121523   0.104   3.656   6.805  0.3990 -0.0214  0.8035
  187SLPC   O2221524   0.164   3.557   6.844 -0.1633 -0.3145 -0.2195
  187SLPC   C2221525  -0.032   3.707   6.858 -0.4173 -0.1447 -0.0615
  187SLPC   H2R21526  -0.052   3.804   6.809  1.2597 -0.8994 -2.4288
  187SLPC   H2S21527  -0.114   3.638   6.827 -0.8197 -0.6046  1.8996
  187SLPC    C321528   0.373   3.811   6.746  0.7980 -0.3074 -0.1383
  187SLPC    HX21529   0.323   3.910   6.737 -0.5349 -1.1108 -2.4454
  187SLPC    HY21530   0.467   3.814   6.687  1.0171 -3.3703 -0.0707
  187SLPC   O3121531   0.401   3.770   6.887  0.0071  0.7569 -0.3676
  187SLPC   C3121532   0.353   3.844   6.978  0.5964  0.2148 -0.4568
  187SLPC   O3221533   0.267   3.925   6.972  0.2654 -0.1549  0.2739
  187SLPC   C3221534   0.396   3.790   7.120 -0.5577 -0.0619 -0.1280
  187SLPC   H2X21535   0.507   3.792   7.119 -0.3922 -0.7742  3.4554
  187SLPC   H2Y21536   0.350   3.689   7.115 -1.1080  0.2404 -2.0191
  187SLPC   C2321537  -0.034   3.743   7.008 -0.2755 -0.0337 -0.0634
  187SLPC   H3R21538  -0.118   3.811   7.032  1.5405  1.3805  2.9474
  187SLPC   H3S21539   0.065   3.788   7.033  0.2429 -1.7288  1.1754
  187SLPC   C2421540  -0.047   3.616   7.095  0.1598  0.3173 -0.0746
  187SLPC   H4R21541   0.035   3.608   7.170 -0.1561  0.5310  0.2976
  187SLPC   H4S21542  -0.036   3.528   7.028  0.9751 -0.3340  0.8683
  187SLPC   C2521543  -0.191   3.587   7.153  0.3751 -0.8632 -0.3764
  187SLPC   H5R21544  -0.169   3.496   7.213  3.8432  0.5910  0.8667
  187SLPC   H5S21545  -0.265   3.572   7.072 -0.4338  1.5076 -0.1819
  187SLPC   C2621546  -0.245   3.689   7.264  0.2329  0.3513 -0.2698
  187SLPC   H6R21547  -0.288   3.780   7.218 -1.2494  0.1832  0.6823
  187SLPC   H6S21548  -0.166   3.698   7.341  0.0321  0.5946 -0.0914
  187SLPC   C2721549  -0.360   3.617   7.352  0.3634  0.2200 -0.9366
  187SLPC   H7R21550  -0.347   3.509   7.333  2.4733  0.1338  0.6765
  187SLPC   H7S21551  -0.466   3.644   7.329 -0.4596 -0.0917  2.0862
  187SLPC   C2821552  -0.341   3.642   7.504  0.2513  0.2942 -0.5006
  187SLPC   H8R21553  -0.253   3.580   7.532 -0.3740  0.0354  1.0017
  187SLPC   H8S21554  -0.431   3.598   7.552 -0.1556 -0.1380 -1.6376
  187SLPC   C2921555  -0.320   3.788   7.556 -0.0096  0.0466 -0.0272
  187SLPC   H9R21556  -0.384   3.856   7.498 -1.0061 -1.0667 -0.2493
  187SLPC  C21021557  -0.233   3.839   7.648  0.3962  0.9297  0.4745
  187SLPC  H10R21558  -0.247   3.947   7.669 -2.2591  0.6521  0.5404
  187SLPC  C21121559  -0.133   3.764   7.727 -0.1044 -0.3228  0.1820
  187SLPC  H11R21560  -0.032   3.809   7.728 -1.1456  2.1457  1.1311
  187SLPC  H11S21561  -0.108   3.672   7.669 -1.8143 -1.0642  0.5648
  187SLPC  C21221562  -0.188   3.740   7.860  0.1457  0.1974 -0.2013
  187SLPC  H12R21563  -0.269   3.666   7.865  0.1573 -0.0418 -2.4996
  187SLPC  C21321564  -0.134   3.779   7.974 -1.1498  1.1756  0.3684
  187SLPC  H13R21565  -0.192   3.755   8.064 -0.6652  0.3773  0.4734
  187SLPC  C21421566  -0.011   3.871   7.994  0.1664  0.4834 -0.7202
  187SLPC  H14R21567   0.018   3.925   7.901  0.1387 -1.1379 -1.7129
  187SLPC  H14S21568   0.075   3.803   8.007 -1.5377 -1.3447  2.0350
  187SLPC  C21521569  -0.028   3.969   8.113 -0.0185 -0.0208 -0.6681
  187SLPC  H15R21570  -0.127   4.020   8.115 -0.2080 -0.3620  1.6380
  187SLPC  H15S21571   0.058   4.039   8.112  0.2986 -0.3758  0.3035
  187SLPC  C21621572  -0.034   3.904   8.253  0.3911  0.7545  0.1541
  187SLPC  H16R21573   0.053   3.836   8.267 -0.0993  0.5824  3.0000
  187SLPC  H16S21574  -0.122   3.837   8.248 -1.2685  2.8842 -2.5454
  187SLPC  C21721575  -0.043   3.984   8.382  0.0971 -0.6387  0.2731
  187SLPC  H17R21576  -0.126   4.055   8.358  0.1759 -0.9775 -1.1148
  187SLPC  H17S21577   0.052   4.040   8.392 -0.4199  0.1971  0.6927
  187SLPC  C21821578  -0.068   3.900   8.509  0.0114 -0.0146 -0.2782
  187SLPC  H18R21579   0.033   3.857   8.530  0.3478  1.7161  2.0005
  187SLPC  H18S21580  -0.143   3.821   8.487  0.5500 -0.6373  0.0612
  187SLPC  H18T21581  -0.090   3.965   8.596  0.8619 -0.3897  0.2330
  187SLPC   C3321582   0.355   3.875   7.240 -0.4935 -0.6873  0.1319
  187SLPC   H3X21583   0.244   3.872   7.240 -0.5263 -2.3505  2.3301
  187SLPC   H3Y21584   0.379   3.983   7.233 -1.6034 -0.3944  0.5596
  187SLPC   C3421585   0.401   3.822   7.381 -0.3881 -0.4265 -0.5503
  187SLPC   H4X21586   0.508   3.845   7.400  0.4274 -1.8217 -2.9470
  187SLPC   H4Y21587   0.410   3.711   7.387  2.2993 -0.3251 -1.0811
  187SLPC   C3521588   0.321   3.870   7.501  0.3296  0.4566 -0.0120
  187SLPC   H5X21589   0.223   3.821   7.515  0.5323  0.9665  5.7589
  187SLPC   H5Y21590   0.304   3.979   7.485  1.4978  0.7126  0.3877
  187SLPC   C3621591   0.387   3.855   7.637 -0.0259  0.1190  0.9471
  187SLPC   H6X21592   0.483   3.912   7.642  0.6390 -1.0556  2.9133
  187SLPC   H6Y21593   0.415   3.749   7.654  0.8223 -0.6670 -3.9595
  187SLPC   C3721594   0.309   3.924   7.748  0.7962  0.4088 -0.1803
  187SLPC   H7X21595   0.236   4.002   7.717 -0.5452 -0.0054  1.8070
  187SLPC   H7Y21596   0.243   3.847   7.792  0.4681  2.3186  2.9635
  187SLPC   C3821597   0.396   3.952   7.872 -0.6329  0.1049 -0.1932
  187SLPC   H8X21598   0.454   4.044   7.850 -0.7335  0.3435  0.4972
  187SLPC   H8Y21599   0.461   3.865   7.893 -2.1218 -1.7528 -2.7892
  187SLPC   C3921600   0.322   3.988   7.997 -0.0879  0.0434 -0.3231
  187SLPC   H9X21601   0.263   3.895   8.011  1.3952 -1.0478 -1.0633
  187SLPC   H9Y21602   0.244   4.067   7.985 -0.8620 -0.2545  2.1686
  187SLPC  C31021603   0.417   4.005   8.115  0.7677  0.6321  0.3850
  187SLPC  H10X21604   0.513   4.049   8.078  0.3034  0.8715 -0.5687
  187SLPC  H10Y21605   0.446   3.906   8.156  0.6227  0.1941 -0.5408
  187SLPC  C31121606   0.355   4.088   8.222 -0.5213  0.1439  0.1422
  187SLPC  H11X21607   0.267   4.035   8.263 -0.4929 -0.1598 -0.1874
  187SLPC  H11Y21608   0.329   4.191   8.192 -0.7334  1.7529  4.9671
  187SLPC  C31221609   0.449   4.109   8.345  0.0443  0.3012  0.0796
  187SLPC  H12X21610   0.392   4.173   8.416 -1.8120 -0.3205 -0.7893
  187SLPC  H12Y21611   0.541   4.158   8.305  1.0638 -2.1717 -0.8238
  187SLPC  C31321612   0.486   3.975   8.414 -0.2547 -0.9793 -0.4553
  187SLPC  H13X21613   0.567   3.931   8.352  1.3280 -0.2761  1.0288
  187SLPC  H13Y21614   0.409   3.894   8.416 -0.8792 -0.3918  0.0288
  187SLPC  C31421615   0.541   3.987   8.558 -0.6203 -0.1240 -0.4972
  187SLPC  H14X21616   0.577   3.886   8.587 -0.0906  0.1495 -0.1697
  187SLPC  H14Y21617   0.451   4.005   8.620  0.8005 -2.5828  2.5331
  187SLPC  C31521618   0.655   4.086   8.563  0.2345 -0.7075 -0.6265
  187SLPC  H15X21619   0.616   4.186   8.535 -0.1409 -0.8329 -0.5551
  187SLPC  H15Y21620   0.731   4.043   8.494 -1.0784 -1.5693 -1.5957
  187SLPC  C31621621   0.715   4.111   8.701  0.4666  0.4180 -0.3015
  187SLPC  H16X21622   0.628   4.120   8.770  0.5978 -1.1400  0.1121
  187SLPC  H16Y21623   0.781   4.200   8.710 -2.0118  2.3690 -0.5850
  187SLPC  C31721624   0.800   3.997   8.752  0.5572  0.4133 -0.3246
  187SLPC  H17X21625   0.901   3.988   8.707  1.6054 -3.2056  2.3063
  187SLPC  H17Y21626   0.759   3.898   8.724  0.8885  0.2032 -0.0725
  187SLPC  C31821627   0.821   3.991   8.902 -0.4680  0.9278 -0.5346
  187SLPC  H18X21628   0.725   3.977   8.957  0.0194 -2.2945 -0.2877
  187SLPC  H18Y21629   0.862   4.088   8.937  0.1419  0.5217 -0.1032
  187SLPC  H18Z21630   0.889   3.907   8.928 -2.1687 -1.4281 -3.1337
  188SLPC     N21631   2.737   5.283   5.929  0.2940  0.5121 -0.3530
  188SLPC   C1321632   2.774   5.428   5.896  0.6600 -0.2842 -0.1588
  188SLPC  H13A21633   2.697   5.485   5.947  1.2705  1.1249 -0.7637
  188SLPC  H13B21634   2.868   5.459   5.938 -0.2576  1.8659  0.4619
  188SLPC  H13C21635   2.780   5.446   5.789  0.5464  0.7442 -0.0067
  188SLPC   C1421636   2.834   5.193   5.862  0.0797  0.5867  0.7236
  188SLPC  H14A21637   2.829   5.089   5.892 -0.0766 -0.2830 -2.0697
  188SLPC  H14B21638   2.815   5.199   5.756 -1.8070 -3.0586  0.7206
  188SLPC  H14C21639   2.932   5.235   5.881  0.7555 -0.4577 -0.3112
  188SLPC   C1521640   2.601   5.249   5.888  0.3501 -0.1755  0.2462
  188SLPC  H15A21641   2.529   5.303   5.946 -1.0024 -0.5819 -0.9996
  188SLPC  H15B21642   2.580   5.279   5.786 -1.0557  0.4625  0.6975
  188SLPC  H15C21643   2.591   5.142   5.886  0.4040 -0.1836  0.4202
  188SLPC   C1221644   2.748   5.269   6.080  0.8857  0.4193 -0.8299
  188SLPC  H12A21645   2.721   5.167   6.105 -1.2101  1.4944  1.7841
  188SLPC  H12B21646   2.667   5.329   6.120  1.3985 -0.4326  1.7064
  188SLPC   C1121647   2.873   5.324   6.156 -0.7701 -0.2324  0.4319
  188SLPC  H11A21648   2.845   5.297   6.260 -0.1317 -1.1355  0.3771
  188SLPC  H11B21649   2.886   5.435   6.158  1.2403 -0.4247  0.0531
  188SLPC     P21650   3.122   5.258   6.209  0.8437  0.1100  0.0466
  188SLPC   O1321651   3.233   5.195   6.133 -0.7725 -0.4721  0.1585
  188SLPC   O1421652   3.134   5.397   6.272  0.0343  0.0114  0.6355
  188SLPC   O1221653   2.996   5.260   6.117  0.2758 -0.3728 -0.0131
  188SLPC   O1121654   3.080   5.160   6.324  0.3042 -0.0810  0.3126
  188SLPC    C121655   3.011   5.040   6.283  0.3253 -0.1776 -0.2374
  188SLPC    HA21656   2.903   5.066   6.272  0.3470  0.7307  1.4349
  188SLPC    HB21657   3.044   4.998   6.185  0.6659  0.3992 -0.3765
  188SLPC    C221658   3.028   4.928   6.381  0.0091 -0.4285 -0.6185
  188SLPC    HS21659   2.937   4.865   6.366  0.3455 -0.6758 -1.7367
  188SLPC   O2121660   3.049   4.972   6.515 -0.1019  0.0228  0.0186
  188SLPC   C2121661   2.951   4.949   6.602 -0.2750  0.2432 -0.7218
  188SLPC   O2221662   2.839   4.918   6.572 -0.2531  0.1363 -0.4023
  188SLPC   C2221663   2.995   4.973   6.750  0.1425  0.5149 -0.1240
  188SLPC   H2R21664   3.068   4.897   6.784 -0.1639  1.2665  2.3846
  188SLPC   H2S21665   3.045   5.073   6.753 -0.2277  0.7223 -0.6180
  188SLPC    C321666   3.152   4.849   6.348  0.5255 -0.4568  1.0862
  188SLPC    HX21667   3.237   4.918   6.332  2.0416 -2.0170  2.0433
  188SLPC    HY21668   3.123   4.803   6.251  0.1992  1.0018  0.4749
  188SLPC   O3121669   3.170   4.749   6.446 -0.0563 -0.5263  0.1374
  188SLPC   C3121670   3.296   4.716   6.455  0.4695  0.9783 -0.5675
  188SLPC   O3221671   3.393   4.742   6.385 -0.1244  0.1415  0.1247
  188SLPC   C3221672   3.305   4.641   6.589  0.7010 -0.4542  0.7492
  188SLPC   H2X21673   3.293   4.531   6.574  2.3151 -0.7281  1.2353
  188SLPC   H2Y21674   3.223   4.678   6.654 -0.0214  1.7292 -1.2977
  188SLPC   C2321675   2.877   4.981   6.851  0.0927  0.4494 -0.2985
  188SLPC   H3R21676   2.824   4.884   6.856 -0.7242  0.9341  3.4824
  188SLPC   H3S21677   2.806   5.059   6.815  1.6040  1.8104 -0.4202
  188SLPC   C2421678   2.916   5.031   6.998  0.6304 -0.7059 -0.0582
  188SLPC   H4R21679   2.978   4.960   7.057  0.0786 -0.7024  0.5372
  188SLPC   H4S21680   2.820   5.049   7.050  0.6955 -1.7406  0.4584
  188SLPC   C2521681   2.988   5.166   7.011  0.0278 -0.4300 -0.8377
  188SLPC   H5R21682   2.923   5.243   6.964 -0.6069 -0.6811 -0.3790
  188SLPC   H5S21683   3.089   5.154   6.967  1.9605  2.6956  2.2080
  188SLPC   C2621684   3.035   5.199   7.161  0.1902 -0.2426 -0.2681
  188SLPC   H6R21685   3.116   5.273   7.149  0.0600  0.0049  0.3493
  188SLPC   H6S21686   3.073   5.101   7.197  1.5108  0.2413 -0.2886
  188SLPC   C2721687   2.928   5.271   7.244  0.5004 -0.4628 -0.2245
  188SLPC   H7R21688   2.830   5.224   7.218  0.5146 -0.4218 -0.3516
  188SLPC   H7S21689   2.926   5.379   7.220 -0.7974  0.2269  2.5522
  188SLPC   C2821690   2.957   5.272   7.392  0.2701  0.0422  0.0202
  188SLPC   H8R21691   2.887   5.346   7.437  1.6294  0.4386  1.5615
  188SLPC   H8S21692   3.061   5.311   7.394  0.0441  1.1251 -3.3012
  188SLPC   C2921693   2.936   5.143   7.467  0.0517 -0.3524  0.6462
  188SLPC   H9R21694   2.882   5.063   7.414  0.6018  0.3636 -1.0645
  188SLPC  C21021695   2.984   5.132   7.591 -0.4566 -0.5794  0.2543
  188SLPC  H10R21696   2.968   5.040   7.649 -2.8597 -1.0126 -0.9863
  188SLPC  C21121697   3.077   5.226   7.662 -0.5026  0.7105 -0.0315
  188SLPC  H11R21698   3.147   5.277   7.593 -0.0735 -1.7088 -1.4950
  188SLPC  H11S21699   3.138   5.163   7.729  2.0203  0.0554 -2.7474
  188SLPC  C21221700   3.004   5.339   7.743 -0.2617  0.2065 -0.4093
  188SLPC  H12R21701   2.935   5.401   7.684 -2.0208 -2.5722 -1.4978
  188SLPC  C21321702   3.021   5.372   7.872 -0.1102 -0.5775  0.3409
  188SLPC  H13R21703   2.965   5.460   7.907 -1.5805 -1.7756  1.0974
  188SLPC  C21421704   3.114   5.311   7.969  0.7037  0.0034  0.7916
  188SLPC  H14R21705   3.201   5.269   7.915 -0.9055  0.9031 -2.8589
  188SLPC  H14S21706   3.063   5.225   8.017  0.5868 -1.2516 -1.4304
  188SLPC  C21521707   3.148   5.412   8.079 -0.3799 -0.1245 -0.1832
  188SLPC  H15R21708   3.182   5.513   8.049  1.0349 -0.3499  0.5984
  188SLPC  H15S21709   3.219   5.365   8.150 -2.5989  1.2881  3.2435
  188SLPC  C21621710   3.024   5.438   8.172  0.6766  0.2503  0.0901
  188SLPC  H16R21711   2.983   5.336   8.187  0.1045  0.4806  0.0959
  188SLPC  H16S21712   2.943   5.501   8.129  0.7698 -0.0813 -0.5838
  188SLPC  C21721713   3.064   5.483   8.317 -0.6939 -0.2728 -0.0691
  188SLPC  H17R21714   3.103   5.587   8.311  1.6921 -1.1468 -1.2130
  188SLPC  H17S21715   3.153   5.425   8.351 -1.1492 -0.6575  0.4910
  188SLPC  C21821716   2.956   5.465   8.416  0.6569  0.5370  0.0529
  188SLPC  H18R21717   2.873   5.538   8.403 -1.4587 -1.6650  0.5576
  188SLPC  H18S21718   2.999   5.477   8.518  3.6562 -2.3863 -0.7010
  188SLPC  H18T21719   2.911   5.366   8.398 -0.7991  1.5594 -2.4946
  188SLPC   C3321720   3.436   4.652   6.657  0.1731  0.5524  0.6295
  188SLPC   H3X21721   3.475   4.755   6.671  1.4961 -0.0133  1.2594
  188SLPC   H3Y21722   3.513   4.598   6.597 -1.2355 -0.8502  0.0091
  188SLPC   C3421723   3.438   4.595   6.801 -0.5930  0.5626  0.1692
  188SLPC   H4X21724   3.345   4.628   6.852  0.2233  2.2466  0.6175
  188SLPC   H4Y21725   3.529   4.639   6.847 -0.1800  0.7916 -0.8239
  188SLPC   C3521726   3.468   4.443   6.800 -0.0412  0.2833 -0.2606
  188SLPC   H5X21727   3.553   4.430   6.729 -0.1113  2.0345 -0.7015
  188SLPC   H5Y21728   3.377   4.387   6.771 -0.8916  1.1690  0.6413
  188SLPC   C3621729   3.522   4.390   6.936 -0.3859 -0.7436  0.1370
  188SLPC   H6X21730   3.607   4.454   6.969  0.4265 -0.3533 -2.5025
  188SLPC   H6Y21731   3.554   4.283   6.934 -0.0489 -0.6532 -2.6110
  188SLPC   C3721732   3.422   4.390   7.053  0.1778 -0.3679 -0.5879
  188SLPC   H7X21733   3.358   4.301   7.029 -1.1717  0.5215 -0.3961
  188SLPC   H7Y21734   3.355   4.478   7.065 -0.3248 -0.8583  0.2533
  188SLPC   C3821735   3.474   4.370   7.194  0.1071 -0.0172  0.4562
  188SLPC   H8X21736   3.582   4.345   7.197  0.0376 -0.2637  1.2437
  188SLPC   H8Y21737   3.417   4.286   7.239 -1.2708  1.5658  1.8593
  188SLPC   C3921738   3.465   4.500   7.282  0.6428 -0.3823 -0.4381
  188SLPC   H9X21739   3.363   4.544   7.282  0.8388  0.0823  0.1634
  188SLPC   H9Y21740   3.525   4.580   7.236  0.4181  0.7145  1.1079
  188SLPC  C31021741   3.524   4.488   7.424  0.1507  0.5172 -0.0105
  188SLPC  H10X21742   3.530   4.583   7.482 -1.8969 -0.5982  2.1866
  188SLPC  H10Y21743   3.625   4.446   7.404  0.1328 -0.0524  1.0250
  188SLPC  C31121744   3.449   4.373   7.506 -0.3315  0.8466 -0.6195
  188SLPC  H11X21745   3.513   4.284   7.525 -2.6384 -0.9028 -0.5287
  188SLPC  H11Y21746   3.365   4.356   7.435  0.7166  0.5222 -1.8116
  188SLPC  C31221747   3.394   4.426   7.639  0.0811 -0.1242  0.0212
  188SLPC  H12X21748   3.341   4.342   7.688  1.3209 -0.4936  0.7931
  188SLPC  H12Y21749   3.322   4.508   7.620 -0.4302 -0.1357  1.7584
  188SLPC  C31321750   3.513   4.467   7.731  0.0016  0.7045 -0.5987
  188SLPC  H13X21751   3.573   4.557   7.706  0.1656  0.5077 -0.9214
  188SLPC  H13Y21752   3.582   4.380   7.726  1.2064  1.4785  1.5474
  188SLPC  C31421753   3.475   4.470   7.882 -0.1381 -0.6145  0.2620
  188SLPC  H14X21754   3.416   4.380   7.909  0.2498 -0.1824  2.7795
  188SLPC  H14Y21755   3.407   4.558   7.885 -1.1489 -1.3475 -0.3610
  188SLPC  C31521756   3.582   4.490   7.982  0.3687 -0.3522 -0.0871
  188SLPC  H15X21757   3.636   4.588   7.976  0.4419 -0.4045 -0.2954
  188SLPC  H15Y21758   3.666   4.419   7.966  1.1594  0.5369 -0.0199
  188SLPC  C31621759   3.529   4.470   8.124  0.0170  0.0754 -0.7964
  188SLPC  H16X21760   3.615   4.459   8.194 -3.1224  0.7861  3.6256
  188SLPC  H16Y21761   3.473   4.374   8.124  0.9383 -0.4698 -1.2402
  188SLPC  C31721762   3.433   4.576   8.177 -0.7473 -0.6095 -0.1994
  188SLPC  H17X21763   3.334   4.562   8.129 -0.5441 -0.9693 -0.5164
  188SLPC  H17Y21764   3.463   4.679   8.147 -1.8847 -0.3472 -0.4592
  188SLPC  C31821765   3.421   4.565   8.325  0.4720 -1.3332  0.7604
  188SLPC  H18X21766   3.520   4.558   8.373  1.0180  0.7361  0.0666
  188SLPC  H18Y21767   3.358   4.481   8.359 -0.0351 -1.0059  0.6498
  188SLPC  H18Z21768   3.372   4.659   8.360 -1.2759 -2.0096  0.2622
  189SLPC     N21769   4.642   1.553   6.177 -0.3291  0.2071 -0.5076
  189SLPC   C1321770   4.789   1.557   6.223  0.4636 -0.3036  0.7922
  189SLPC  H13A21771   4.803   1.565   6.330 -1.7365 -0.3278  1.1258
  189SLPC  H13B21772   4.839   1.467   6.191  1.0072  0.2722 -0.0154
  189SLPC  H13C21773   4.825   1.639   6.163 -0.1440 -2.8962 -3.5405
  189SLPC   C1421774   4.635   1.528   6.027  0.7651 -0.0557  0.5377
  189SLPC  H14A21775   4.683   1.608   5.973  1.0998 -0.6561 -0.0669
  189SLPC  H14B21776   4.695   1.442   5.999  2.4958  1.0005  0.8651
  189SLPC  H14C21777   4.531   1.518   5.998  1.6709  0.3701 -3.5038
  189SLPC   C1521778   4.583   1.686   6.201  0.5628 -0.6332  0.7318
  189SLPC  H15A21779   4.506   1.700   6.127  1.7873  0.5632 -0.3626
  189SLPC  H15B21780   4.551   1.709   6.302 -0.5196  1.1534  0.0373
  189SLPC  H15C21781   4.650   1.762   6.165  0.6027 -1.0211 -0.0187
  189SLPC   C1221782   4.568   1.446   6.255 -0.0717  0.5561 -0.0141
  189SLPC  H12A21783   4.580   1.454   6.362 -0.3475 -1.0370  0.1669
  189SLPC  H12B21784   4.605   1.347   6.233 -1.4459  0.2319 -0.9846
  189SLPC   C1121785   4.412   1.435   6.230 -0.1425 -0.4174  0.1501
  189SLPC  H11A21786   4.381   1.343   6.285  2.1505 -0.9747  0.6100
  189SLPC  H11B21787   4.396   1.411   6.123  0.9393  1.8750 -0.5846
  189SLPC     P21788   4.334   1.583   6.422  0.3299 -0.0227  0.3150
  189SLPC   O1321789   4.464   1.640   6.465  0.1098  0.5393  0.3228
  189SLPC   O1421790   4.217   1.666   6.448  0.4803 -0.3324 -0.0249
  189SLPC   O1221791   4.334   1.546   6.267  1.1363 -0.1256 -0.3573
  189SLPC   O1121792   4.314   1.444   6.499  0.3615  0.3634  0.4148
  189SLPC    C121793   4.181   1.400   6.533 -0.1441 -0.2476  0.3402
  189SLPC    HA21794   4.099   1.437   6.468  0.1973  1.7314  0.9791
  189SLPC    HB21795   4.179   1.289   6.528  1.5138 -0.2417 -1.2380
  189SLPC    C221796   4.152   1.445   6.680 -0.7083 -0.4756 -0.0219
  189SLPC    HS21797   4.172   1.555   6.678  1.8430 -0.8465  0.9396
  189SLPC   O2121798   4.247   1.376   6.767 -0.2102 -0.8238  0.5806
  189SLPC   C2121799   4.289   1.447   6.873 -0.5564  0.1277  0.2633
  189SLPC   O2221800   4.265   1.566   6.895 -0.0055 -0.1084  0.0499
  189SLPC   C2221801   4.366   1.362   6.973 -0.1515  0.1091 -0.4550
  189SLPC   H2R21802   4.362   1.255   6.943  0.6734  0.0277 -0.2939
  189SLPC   H2S21803   4.473   1.388   6.965 -0.5244  2.1760  0.5714
  189SLPC    C321804   4.000   1.421   6.726  0.5739  0.2888  0.1685
  189SLPC    HX21805   3.983   1.313   6.745 -0.8911  0.7489  1.6691
  189SLPC    HY21806   3.941   1.434   6.633 -0.9504  0.8594  1.1824
  189SLPC   O3121807   3.953   1.506   6.836  0.2125  0.2722  0.6200
  189SLPC   C3121808   3.961   1.455   6.956 -0.0793  0.7311 -0.0077
  189SLPC   O3221809   4.012   1.347   6.979  0.2008 -0.3351 -0.8609
  189SLPC   C3221810   3.921   1.558   7.058  0.4424  0.1987 -0.5809
  189SLPC   H2X21811   3.831   1.609   7.018  0.5204  0.6586 -0.1830
  189SLPC   H2Y21812   3.996   1.640   7.062 -0.7437  1.2691  0.5794
  189SLPC   C2321813   4.308   1.370   7.119 -0.2443  0.4978  0.0626
  189SLPC   H3R21814   4.199   1.344   7.119 -0.5161  1.3905  2.4017
  189SLPC   H3S21815   4.313   1.476   7.151  2.8150  0.6500 -0.6912
  189SLPC   C2421816   4.390   1.296   7.222 -0.1097  0.0843  0.0566
  189SLPC   H4R21817   4.491   1.344   7.218 -0.5138  1.1001 -4.9669
  189SLPC   H4S21818   4.398   1.187   7.203 -1.4132 -0.3637  1.9074
  189SLPC   C2521819   4.331   1.308   7.359  0.0171  0.3785 -0.8180
  189SLPC   H5R21820   4.229   1.264   7.356  0.3440 -0.5727  0.7282
  189SLPC   H5S21821   4.333   1.410   7.403 -2.8183 -0.4971  1.7451
  189SLPC   C2621822   4.402   1.224   7.465 -0.0725  0.1607  0.5155
  189SLPC   H6R21823   4.502   1.265   7.486  0.5779 -0.1237 -1.7678
  189SLPC   H6S21824   4.407   1.115   7.441 -2.0712  0.3309 -0.9940
  189SLPC   C2721825   4.321   1.239   7.598  0.1549  0.0092  0.1138
  189SLPC   H7R21826   4.218   1.201   7.577  1.1514 -2.0063 -1.4489
  189SLPC   H7S21827   4.313   1.347   7.620 -0.0680  0.3660 -1.6144
  189SLPC   C2821828   4.395   1.167   7.712 -0.3503  0.9911  0.0942
  189SLPC   H8R21829   4.503   1.191   7.702  0.1177  0.4870  2.9339
  189SLPC   H8S21830   4.382   1.057   7.708 -0.5345  0.7843  3.2740
  189SLPC   C2921831   4.337   1.214   7.841  0.6413 -0.6429  0.0663
  189SLPC   H9R21832   4.316   1.322   7.838  2.2710 -0.2046  2.2198
  189SLPC  C21021833   4.297   1.145   7.952 -0.2994 -0.3399  0.4585
  189SLPC  H10R21834   4.250   1.195   8.038  2.7644  2.7149  0.5731
  189SLPC  C21121835   4.311   0.994   7.963  0.6218  0.2021  0.5876
  189SLPC  H11R21836   4.373   0.981   8.054  1.3372  0.8740  0.2131
  189SLPC  H11S21837   4.372   0.957   7.878  1.5321  4.8794 -1.0771
  189SLPC  C21221838   4.179   0.923   7.960  0.5834 -0.2524 -0.1389
  189SLPC  H12R21839   4.104   0.956   7.887  1.3795 -2.5730 -2.1558
  189SLPC  C21321840   4.143   0.815   8.034  0.0628 -0.0531 -0.4128
  189SLPC  H13R21841   4.048   0.767   8.007 -1.0577  1.6723  0.3296
  189SLPC  C21421842   4.231   0.752   8.140  0.5771 -0.1074  0.6679
  189SLPC  H14R21843   4.337   0.786   8.135  0.9040 -1.2417 -1.7112
  189SLPC  H14S21844   4.238   0.644   8.113  0.7689 -0.3226  1.5528
  189SLPC  C21521845   4.168   0.761   8.283 -0.1015 -0.6930  0.4052
  189SLPC  H15R21846   4.217   0.679   8.340  1.4360 -2.4420 -3.1661
  189SLPC  H15S21847   4.062   0.730   8.286 -0.4214  0.3959  0.8796
  189SLPC  C21621848   4.184   0.897   8.351  0.2811 -0.2062  0.0748
  189SLPC  H16R21849   4.178   0.972   8.270 -1.1415  2.2985  2.3289
  189SLPC  H16S21850   4.287   0.904   8.394  0.1872 -2.3161  0.7823
  189SLPC  C21721851   4.075   0.938   8.452  0.1384 -0.5453 -0.2283
  189SLPC  H17R21852   4.109   1.032   8.500  1.7213 -2.1910  2.1030
  189SLPC  H17S21853   4.082   0.861   8.533 -1.4383  1.6642  2.1631
  189SLPC  C21821854   3.935   0.937   8.388 -0.4776  0.2129  0.0599
  189SLPC  H18R21855   3.860   0.983   8.455 -0.3850 -0.0633  0.3546
  189SLPC  H18S21856   3.914   0.831   8.363  3.1271 -0.6663  0.1880
  189SLPC  H18T21857   3.941   0.990   8.290 -1.3387  0.0931 -0.0642
  189SLPC   C3321858   3.877   1.505   7.204 -0.7064  0.2105 -0.0438
  189SLPC   H3X21859   3.861   1.395   7.206 -0.8166  0.2138 -0.5827
  189SLPC   H3Y21860   3.779   1.554   7.223  0.1001  1.2551  1.6670
  189SLPC   C3421861   3.986   1.539   7.304  0.3703  0.1437 -0.7835
  189SLPC   H4X21862   3.976   1.646   7.332  0.5515 -0.1292  0.3569
  189SLPC   H4Y21863   4.085   1.512   7.262 -0.0046  0.9663 -2.2595
  189SLPC   C3521864   3.956   1.465   7.436  0.4202 -0.1553  0.1069
  189SLPC   H5X21865   3.964   1.354   7.431  0.1960 -0.1235 -1.2518
  189SLPC   H5Y21866   3.850   1.486   7.462 -0.5523 -0.5664 -3.0758
  189SLPC   C3621867   4.050   1.508   7.548  0.8552 -0.2141  1.1564
  189SLPC   H6X21868   4.071   1.616   7.534  0.8060 -0.4931 -1.8101
  189SLPC   H6Y21869   4.149   1.458   7.543  0.1754 -1.6482  1.3827
  189SLPC   C3721870   3.979   1.482   7.684 -0.5082  0.7753 -0.1785
  189SLPC   H7X21871   3.932   1.381   7.680  0.5945  0.2748 -1.3101
  189SLPC   H7Y21872   3.893   1.552   7.696  0.0249  1.3660  0.2626
  189SLPC   C3821873   4.071   1.485   7.809 -0.2177 -0.2672  0.4072
  189SLPC   H8X21874   4.099   1.592   7.824 -0.5364 -0.2526  0.9213
  189SLPC   H8Y21875   4.167   1.436   7.780 -1.2700 -0.1470 -3.9242
  189SLPC   C3921876   4.020   1.412   7.933 -1.1694  0.4239 -0.6086
  189SLPC   H9X21877   4.026   1.301   7.930 -2.2870 -0.0002  4.0130
  189SLPC   H9Y21878   3.911   1.427   7.950 -1.8524 -3.8247  0.0164
  189SLPC  C31021879   4.097   1.470   8.060  0.3001 -0.0023 -0.0164
  189SLPC  H10X21880   4.056   1.572   8.077 -3.1217 -1.2861  0.1486
  189SLPC  H10Y21881   4.205   1.487   8.037 -0.4352  2.6991 -1.9496
  189SLPC  C31121882   4.073   1.391   8.195 -0.6283  0.5310 -0.0353
  189SLPC  H11X21883   4.173   1.367   8.237  0.7396 -2.5868 -4.3024
  189SLPC  H11Y21884   4.021   1.298   8.165  1.3563 -0.5810 -0.1891
  189SLPC  C31221885   3.994   1.480   8.296  0.2194 -0.6219 -0.4513
  189SLPC  H12X21886   3.930   1.555   8.245 -0.1960  1.3078  2.6550
  189SLPC  H12Y21887   4.066   1.532   8.363 -1.2400  1.2753 -0.2685
  189SLPC  C31321888   3.903   1.397   8.392 -0.4409 -0.3250  0.0772
  189SLPC  H13X21889   3.840   1.332   8.327 -2.1664  2.1088 -0.8092
  189SLPC  H13Y21890   3.828   1.463   8.441 -0.3055 -0.7705  0.9095
  189SLPC  C31421891   3.985   1.329   8.500 -0.3212  0.4670  0.5110
  189SLPC  H14X21892   4.041   1.409   8.553  0.8231  1.2424 -1.7314
  189SLPC  H14Y21893   4.057   1.253   8.463 -0.5990  0.1787  0.5512
  189SLPC  C31521894   3.894   1.274   8.610  0.0068 -0.2919 -0.6285
  189SLPC  H15X21895   3.833   1.192   8.569 -0.1980 -1.0471  1.0985
  189SLPC  H15Y21896   3.832   1.360   8.644 -0.7697 -0.6836 -1.0334
  189SLPC  C31621897   3.978   1.216   8.724  1.0925  0.1268  0.0307
  189SLPC  H16X21898   4.064   1.158   8.683 -0.1142 -1.0337 -0.9495
  189SLPC  H16Y21899   3.917   1.138   8.773 -0.5165 -1.1562 -3.6185
  189SLPC  C31721900   4.012   1.313   8.837  0.1493  0.7896  0.4597
  189SLPC  H17X21901   3.914   1.360   8.862 -1.0678 -1.7450  0.7580
  189SLPC  H17Y21902   4.085   1.390   8.805  0.1270  0.6979  0.1939
  189SLPC  C31821903   4.075   1.252   8.964  0.5716 -0.5397  0.7738
  189SLPC  H18X21904   4.012   1.174   9.012  0.3058 -2.1926 -2.0427
  189SLPC  H18Y21905   4.106   1.328   9.038  1.2764  0.8673 -0.9020
  189SLPC  H18Z21906   4.171   1.205   8.934  0.0396 -1.0652 -0.1578
  190SLPC     N21907   5.875   6.695   6.069  0.1612  0.4871 -0.0848
  190SLPC   C1321908   6.007   6.764   6.032  0.2850  0.3926 -0.1113
  190SLPC  H13A21909   6.014   6.853   6.092 -0.7285 -0.8845  2.0572
  190SLPC  H13B21910   6.095   6.715   6.071  1.0774  1.9033  0.0586
  190SLPC  H13C21911   6.016   6.783   5.926  0.0835  0.3920 -0.1300
  190SLPC   C1421912   5.878   6.563   5.997 -0.2097 -0.3786 -0.4839
  190SLPC  H14A21913   5.812   6.494   6.048  0.9361 -0.8745  0.3945
  190SLPC  H14B21914   5.837   6.567   5.898 -3.7102  0.7788  0.8528
  190SLPC  H14C21915   5.979   6.525   5.997  0.7335  1.9550 -0.5081
  190SLPC   C1521916   5.758   6.776   6.030  0.2824 -0.0884  0.0435
  190SLPC  H15A21917   5.747   6.771   5.923  0.0944  1.4012 -0.0332
  190SLPC  H15B21918   5.669   6.728   6.067  0.3779 -0.5992 -0.3775
  190SLPC  H15C21919   5.761   6.876   6.071  1.4358 -0.4017  0.7952
  190SLPC   C1221920   5.878   6.667   6.219  0.3141 -0.3581  0.4417
  190SLPC  H12A21921   5.918   6.754   6.269 -3.0423  1.4277  0.2894
  190SLPC  H12B21922   5.952   6.591   6.239  1.4425  1.0023  1.6070
  190SLPC   C1121923   5.748   6.633   6.289 -0.3239  0.7096 -0.1368
  190SLPC  H11A21924   5.664   6.706   6.283 -1.7679 -0.9692 -1.2999
  190SLPC  H11B21925   5.773   6.629   6.397  2.3001  0.9437 -0.6707
  190SLPC     P21926   5.775   6.369   6.273  0.0176 -0.5818  0.2439
  190SLPC   O1321927   5.793   6.298   6.144 -0.2701  0.5498  0.0454
  190SLPC   O1421928   5.899   6.407   6.344  0.0290  0.7535 -0.4861
  190SLPC   O1221929   5.699   6.506   6.252 -0.0984  0.1846  0.1145
  190SLPC   O1121930   5.676   6.295   6.362 -0.2123 -0.1474  0.2378
  190SLPC    C121931   5.687   6.280   6.501  0.7990 -0.7112 -0.0933
  190SLPC    HA21932   5.645   6.181   6.531 -1.9559  0.9938  2.2123
  190SLPC    HB21933   5.792   6.285   6.538  0.4194 -1.4917  1.1276
  190SLPC    C221934   5.604   6.385   6.577 -0.2237 -0.0197 -0.4451
  190SLPC    HS21935   5.642   6.485   6.548  1.2159  0.0336  1.3975
  190SLPC   O2121936   5.644   6.364   6.716 -0.0553 -0.2024  0.0001
  190SLPC   C2121937   5.603   6.469   6.791 -0.6783 -0.2712 -0.4846
  190SLPC   O2221938   5.529   6.558   6.754 -0.9351 -0.4166  0.2247
  190SLPC   C2221939   5.659   6.456   6.934 -1.1601 -0.4624  0.2619
  190SLPC   H2R21940   5.604   6.382   6.995  0.7980 -1.8869  0.4063
  190SLPC   H2S21941   5.764   6.422   6.924 -1.2143 -1.0058  1.4279
  190SLPC    C321942   5.447   6.378   6.535 -0.1732  0.5136  0.3905
  190SLPC    HX21943   5.451   6.400   6.426  0.0280  1.6198  0.6117
  190SLPC    HY21944   5.380   6.447   6.589  0.6906  1.0232  0.8358
  190SLPC   O3121945   5.402   6.249   6.535 -0.0942  0.6233  0.2107
  190SLPC   C3121946   5.341   6.213   6.640  0.0391 -0.0821 -1.1186
  190SLPC   O3221947   5.334   6.276   6.747 -0.6710 -0.1536 -0.0426
  190SLPC   C3221948   5.279   6.076   6.617  0.1296  0.5048  0.2756
  190SLPC   H2X21949   5.334   6.031   6.532  1.0827  1.8009  0.1750
  190SLPC   H2Y21950   5.181   6.098   6.570 -0.2528 -1.2111  0.2372
  190SLPC   C2321951   5.660   6.588   7.014  0.5568  0.0472  0.2427
  190SLPC   H3R21952   5.554   6.618   7.029  0.5822 -0.9033  2.8355
  190SLPC   H3S21953   5.706   6.665   6.949 -1.2441  1.7324  0.8472
  190SLPC   C2421954   5.738   6.577   7.143  0.3849 -0.2192  0.1359
  190SLPC   H4R21955   5.745   6.676   7.194 -1.3875 -0.4404  0.9195
  190SLPC   H4S21956   5.838   6.554   7.102  0.0400  0.4152 -1.1159
  190SLPC   C2521957   5.682   6.476   7.254  0.1175  0.8485  1.2028
  190SLPC   H5R21958   5.668   6.382   7.197  1.0616 -0.3151  2.8169
  190SLPC   H5S21959   5.587   6.506   7.303 -1.0136  0.2214 -0.5067
  190SLPC   C2621960   5.787   6.466   7.363  0.2343  0.1749 -0.1268
  190SLPC   H6R21961   5.807   6.572   7.390 -1.1201  0.5425 -0.5172
  190SLPC   H6S21962   5.887   6.428   7.333  0.8249 -0.0858  1.9912
  190SLPC   C2721963   5.758   6.378   7.482  0.3323  0.2291 -0.0131
  190SLPC   H7R21964   5.705   6.282   7.463  0.5331  0.0381  0.3699
  190SLPC   H7S21965   5.676   6.425   7.539  2.1502  1.4702  1.7169
  190SLPC   C2821966   5.884   6.367   7.575  0.0768  0.0834  0.3743
  190SLPC   H8R21967   5.938   6.464   7.578 -1.7133  1.0929  1.1301
  190SLPC   H8S21968   5.960   6.308   7.519 -1.2271  0.8599 -2.4010
  190SLPC   C2921969   5.846   6.315   7.715 -0.5129 -0.6568 -0.2682
  190SLPC   H9R21970   5.836   6.205   7.715 -0.0844 -0.6983 -0.5595
  190SLPC  C21021971   5.824   6.392   7.824 -0.1368 -0.8062 -0.1498
  190SLPC  H10R21972   5.765   6.356   7.909 -2.8706 -0.7007 -1.8703
  190SLPC  C21121973   5.832   6.546   7.837  0.3887  0.4043  0.1469
  190SLPC  H11R21974   5.760   6.576   7.758  2.0897  0.1325 -1.5869
  190SLPC  H11S21975   5.933   6.578   7.804  1.3837 -1.5751  1.1050
  190SLPC  C21221976   5.807   6.597   7.974 -0.2936  0.7767  0.8320
  190SLPC  H12R21977   5.893   6.584   8.041  1.1774  0.5274 -1.0117
  190SLPC  C21321978   5.694   6.644   8.028  0.4688  0.0308 -0.3491
  190SLPC  H13R21979   5.700   6.698   8.124 -0.8483 -1.9385  0.9221
  190SLPC  C21421980   5.559   6.667   7.963 -0.3595  0.1550  0.6774
  190SLPC  H14R21981   5.487   6.598   8.013  1.4303 -2.0943  0.3392
  190SLPC  H14S21982   5.550   6.641   7.855 -2.0899  1.7266  0.3908
  190SLPC  C21521983   5.488   6.810   7.966  0.3125  0.3106  0.6997
  190SLPC  H15R21984   5.392   6.810   7.910 -0.4868 -3.5190  1.7619
  190SLPC  H15S21985   5.553   6.873   7.901  1.5804 -0.5026  1.1431
  190SLPC  C21621986   5.488   6.881   8.101  0.4578 -0.6694 -0.2922
  190SLPC  H16R21987   5.458   6.984   8.076  1.2295 -0.6768 -1.3159
  190SLPC  H16S21988   5.593   6.903   8.129  0.1920 -1.1294  1.1376
  190SLPC  C21721989   5.401   6.821   8.220 -0.0786  0.6851 -0.3521
  190SLPC  H17R21990   5.407   6.873   8.318  0.7058 -2.1867  1.2439
  190SLPC  H17S21991   5.424   6.715   8.245  0.0410  0.8443  0.2344
  190SLPC  C21821992   5.251   6.827   8.184  0.1665  0.4540  0.0381
  190SLPC  H18R21993   5.220   6.930   8.157  3.8343  1.7689  0.2757
  190SLPC  H18S21994   5.187   6.786   8.264 -0.0740  1.2998  0.2958
  190SLPC  H18T21995   5.223   6.779   8.088 -2.0242 -1.7361  1.6417
  190SLPC   C3321996   5.270   5.981   6.736 -0.0592  0.2434 -0.4474
  190SLPC   H3X21997   5.207   5.892   6.717 -2.1550  2.2368 -3.8843
  190SLPC   H3Y21998   5.226   6.042   6.817  0.5998  0.9321 -0.5885
  190SLPC   C3421999   5.416   5.933   6.785  0.3878  0.1688 -0.3101
  190SLPC   H4X22000   5.469   6.003   6.853  2.4738 -1.2009 -0.4609
  190SLPC   H4Y22001   5.477   5.931   6.692 -0.4480 -0.2434 -0.8572
  190SLPC   C3522002   5.407   5.799   6.860  0.0745 -0.4752 -0.1211
  190SLPC   H5X22003   5.508   5.761   6.884 -0.1968 -0.4381  1.1497
  190SLPC   H5Y22004   5.358   5.725   6.793 -3.2090 -0.7746  2.3511
  190SLPC   C3622005   5.317   5.805   6.984  0.3805  0.1573 -0.4655
  190SLPC   H6X22006   5.217   5.843   6.954 -0.9513 -1.9624  0.9182
  190SLPC   H6Y22007   5.361   5.884   7.049  2.8890 -1.9860  0.6364
  190SLPC   C3722008   5.314   5.669   7.060 -0.4818  0.1496 -0.6760
  190SLPC   H7X22009   5.416   5.638   7.090 -1.0493 -1.5513 -0.3756
  190SLPC   H7Y22010   5.272   5.602   6.983 -1.8530  2.4586 -2.0737
  190SLPC   C3822011   5.230   5.663   7.181  0.2552  0.1607 -0.2125
  190SLPC   H8X22012   5.123   5.690   7.168 -0.0135 -0.6967  0.1385
  190SLPC   H8Y22013   5.271   5.734   7.256  1.9624 -1.3826  0.3794
  190SLPC   C3922014   5.240   5.525   7.245 -0.1862  1.1220  0.3949
  190SLPC   H9X22015   5.345   5.490   7.253 -0.1189  0.5493 -2.2439
  190SLPC   H9Y22016   5.187   5.447   7.185  0.6419  0.5337  0.4087
  190SLPC  C31022017   5.177   5.512   7.387 -0.1025 -0.0200 -0.2083
  190SLPC  H10X22018   5.171   5.405   7.414  2.1763  0.1126  1.1015
  190SLPC  H10Y22019   5.074   5.550   7.374  1.3063  3.5278 -2.5621
  190SLPC  C31122020   5.251   5.582   7.509 -0.1925  0.0247  0.5246
  190SLPC  H11X22021   5.243   5.693   7.502 -1.5585 -0.0357  0.8157
  190SLPC  H11Y22022   5.361   5.569   7.512 -0.0065  1.6036  2.9563
  190SLPC  C31222023   5.194   5.527   7.641 -0.6473  0.3797  0.0397
  190SLPC  H12X22024   5.284   5.524   7.707  0.7054 -1.1523 -1.7571
  190SLPC  H12Y22025   5.155   5.423   7.630 -0.4375  0.3638 -0.6126
  190SLPC  C31322026   5.082   5.606   7.708 -0.0148  0.2282  0.0549
  190SLPC  H13X22027   4.986   5.592   7.653  1.3472 -0.4689 -2.2439
  190SLPC  H13Y22028   5.101   5.714   7.691 -0.8225  0.4615  0.5544
  190SLPC  C31422029   5.088   5.585   7.859  0.2275  0.7767 -0.4384
  190SLPC  H14X22030   5.025   5.658   7.914 -0.3429 -0.1883  0.2378
  190SLPC  H14Y22031   5.188   5.588   7.908 -0.7595 -1.5044  1.9976
  190SLPC  C31522032   5.031   5.448   7.901  0.5344 -0.1413  0.0374
  190SLPC  H15X22033   5.106   5.368   7.880 -2.2943 -2.8181 -0.6356
  190SLPC  H15Y22034   4.956   5.419   7.825  1.2623 -2.1597  0.0272
  190SLPC  C31622035   4.985   5.433   8.046  0.4059  0.0007  0.2056
  190SLPC  H16X22036   4.908   5.510   8.067  0.0323 -0.6511  1.3287
  190SLPC  H16Y22037   5.068   5.452   8.118  1.8850 -2.4212 -0.7358
  190SLPC  C31722038   4.935   5.288   8.072  0.0317 -0.3389 -0.1001
  190SLPC  H17X22039   5.021   5.219   8.055 -0.0200 -0.3709 -0.2343
  190SLPC  H17Y22040   4.858   5.268   7.995 -0.6855  0.1274  0.4761
  190SLPC  C31822041   4.872   5.264   8.211  0.6322  0.8084  0.2226
  190SLPC  H18X22042   4.777   5.317   8.233 -0.3362 -0.4122 -0.8447
  190SLPC  H18Y22043   4.950   5.286   8.287 -0.2037  3.0677  0.5073
  190SLPC  H18Z22044   4.843   5.159   8.232 -0.0275 -0.0574 -4.0488
  191SLPC     N22045   3.191   1.280   6.357  0.1459 -0.4178  0.5981
  191SLPC   C1322046   3.153   1.153   6.282 -0.3277  0.5459 -0.7395
  191SLPC  H13A22047   3.082   1.180   6.205 -1.1979 -0.4910 -0.3113
  191SLPC  H13B22048   3.234   1.105   6.228 -0.4921  0.8639 -1.2830
  191SLPC  H13C22049   3.094   1.096   6.352  0.7961  1.5991  1.1415
  191SLPC   C1422050   3.297   1.344   6.280  0.1641  0.0500 -0.0978
  191SLPC  H14A22051   3.335   1.431   6.330 -1.7209  0.5664  0.5193
  191SLPC  H14B22052   3.380   1.276   6.264  2.3576  2.3614  0.8982
  191SLPC  H14C22053   3.253   1.374   6.186 -0.2129  1.7550  0.5916
  191SLPC   C1522054   3.245   1.246   6.497 -0.9299  0.2236 -0.5597
  191SLPC  H15A22055   3.308   1.327   6.532  0.8159 -1.0302 -0.6179
  191SLPC  H15B22056   3.161   1.234   6.563 -2.0376  2.6377 -1.4227
  191SLPC  H15C22057   3.305   1.155   6.495  0.1317  0.7366  2.3733
  191SLPC   C1222058   3.076   1.374   6.370  0.2182  0.0415  0.1123
  191SLPC  H12A22059   3.111   1.465   6.417  0.7709 -0.0842 -0.0445
  191SLPC  H12B22060   2.994   1.337   6.430  0.0213 -2.3006 -1.4678
  191SLPC   C1122061   3.003   1.423   6.244  0.0052 -0.5118  0.2525
  191SLPC  H11A22062   3.072   1.449   6.161 -0.7287 -1.4807 -0.6897
  191SLPC  H11B22063   2.944   1.513   6.271  1.0445  0.4099 -0.5008
  191SLPC     P22064   2.836   1.360   6.064  0.1036  0.1195  0.4442
  191SLPC   O1322065   2.906   1.458   5.981 -0.1096  0.2440 -0.0290
  191SLPC   O1422066   2.801   1.237   5.987 -0.0739  0.4095  0.1193
  191SLPC   O1222067   2.918   1.316   6.198  0.9531  0.3408  0.2355
  191SLPC   O1122068   2.702   1.430   6.108 -0.1945 -0.2845 -0.0277
  191SLPC    C122069   2.678   1.533   6.201  0.0832 -0.1349 -0.8365
  191SLPC    HA22070   2.768   1.599   6.195 -0.4724  0.7555  0.2332
  191SLPC    HB22071   2.603   1.607   6.165 -1.1541 -0.4220  1.0022
  191SLPC    C222072   2.664   1.486   6.340  0.9583  0.3566 -0.0592
  191SLPC    HS22073   2.724   1.397   6.368 -0.2457 -0.0562  1.3141
  191SLPC   O2122074   2.522   1.464   6.360  0.1305 -0.1259  0.3049
  191SLPC   C2122075   2.495   1.386   6.459  0.3831  0.1243 -0.1246
  191SLPC   O2222076   2.570   1.300   6.507  0.4918 -0.3890  0.1196
  191SLPC   C2222077   2.355   1.425   6.516 -1.0231  0.2102  0.4302
  191SLPC   H2R22078   2.364   1.529   6.552  1.9888  0.0807  0.2273
  191SLPC   H2S22079   2.282   1.422   6.432 -0.9174 -1.4025  0.3495
  191SLPC    C322080   2.706   1.600   6.428  0.1872  0.1089  0.6572
  191SLPC    HX22081   2.643   1.683   6.390 -2.7729 -2.5900 -0.8849
  191SLPC    HY22082   2.812   1.624   6.406 -0.6846  2.5093 -1.3757
  191SLPC   O3122083   2.671   1.573   6.572  0.7590 -0.1024  0.2228
  191SLPC   C3122084   2.774   1.522   6.641  0.5425  0.9864 -0.1730
  191SLPC   O3222085   2.874   1.477   6.593  0.2646  0.5726 -0.5801
  191SLPC   C3222086   2.734   1.502   6.784 -0.7673  0.0592 -0.3863
  191SLPC   H2X22087   2.716   1.394   6.802  0.9592  0.1676  2.6033
  191SLPC   H2Y22088   2.638   1.549   6.813 -1.0417 -1.9887  2.5729
  191SLPC   C2322089   2.314   1.321   6.626 -0.3118 -0.0873 -0.0676
  191SLPC   H3R22090   2.337   1.219   6.590 -1.7951 -0.1667 -0.8681
  191SLPC   H3S22091   2.208   1.351   6.639  0.3868  1.5866  2.4378
  191SLPC   C2422092   2.383   1.338   6.764  0.8693 -0.1650  0.5232
  191SLPC   H4R22093   2.343   1.427   6.816 -0.8092 -0.2928 -0.4831
  191SLPC   H4S22094   2.491   1.352   6.743  1.1784  0.5565  2.4166
  191SLPC   C2522095   2.354   1.224   6.857 -0.7597 -0.0423  1.3686
  191SLPC   H5R22096   2.397   1.130   6.814  0.7958  0.6723  1.2660
  191SLPC   H5S22097   2.247   1.199   6.866 -1.4575  1.9834 -0.3543
  191SLPC   C2622098   2.411   1.256   6.995  0.7608  0.1429  0.2724
  191SLPC   H6R22099   2.352   1.342   7.034  1.8517  1.0288  0.0254
  191SLPC   H6S22100   2.518   1.284   6.982  0.5562  0.6672 -0.3440
  191SLPC   C2722101   2.412   1.143   7.095 -0.0842 -0.1162 -0.0762
  191SLPC   H7R22102   2.499   1.074   7.091 -0.0035 -0.0159 -0.0504
  191SLPC   H7S22103   2.323   1.077   7.087  1.1535 -1.9649  0.6991
  191SLPC   C2822104   2.413   1.191   7.242  0.1515  0.0693  0.4296
  191SLPC   H8R22105   2.330   1.260   7.270 -0.0299  0.2107 -0.4508
  191SLPC   H8S22106   2.515   1.234   7.257  0.8495 -0.8520 -1.4794
  191SLPC   C2922107   2.414   1.071   7.341 -0.3334  0.0898 -0.1633
  191SLPC   H9R22108   2.441   0.970   7.307 -0.5464  0.1396 -0.4799
  191SLPC  C21022109   2.374   1.076   7.472 -0.3013  0.5477  0.2999
  191SLPC  H10R22110   2.372   0.984   7.534 -1.2379  0.4595  0.1407
  191SLPC  C21122111   2.327   1.190   7.551  0.0193  0.0995  0.3737
  191SLPC  H11R22112   2.216   1.182   7.550 -0.4060  3.1590  3.1154
  191SLPC  H11S22113   2.345   1.285   7.497 -1.8852 -0.0567 -0.6300
  191SLPC  C21222114   2.363   1.202   7.695 -0.0223 -0.1898  0.3504
  191SLPC  H12R22115   2.456   1.156   7.730 -0.5401  0.1614  2.3079
  191SLPC  C21322116   2.299   1.281   7.785 -0.2415 -0.9972 -0.6333
  191SLPC  H13R22117   2.341   1.264   7.885  1.6423  0.3276 -1.1488
  191SLPC  C21422118   2.179   1.364   7.764  0.0023  0.2817 -0.2527
  191SLPC  H14R22119   2.096   1.332   7.830 -0.1480  1.0756 -0.0365
  191SLPC  H14S22120   2.140   1.351   7.660  0.2671 -0.4461 -0.2664
  191SLPC  C21522121   2.196   1.512   7.787  0.0385 -0.0932 -0.2570
  191SLPC  H15R22122   2.096   1.559   7.782 -0.2790 -0.8119 -0.8303
  191SLPC  H15S22123   2.260   1.558   7.709 -0.5893  1.1206 -0.0728
  191SLPC  C21622124   2.251   1.552   7.922 -0.2379 -0.2490  0.3543
  191SLPC  H16R22125   2.354   1.511   7.938  0.5716  1.4277 -0.3060
  191SLPC  H16S22126   2.186   1.515   8.004 -0.8108 -0.0581 -0.0105
  191SLPC  C21722127   2.251   1.706   7.957  0.6385 -0.0339  0.5241
  191SLPC  H17R22128   2.306   1.765   7.881  0.2224  0.1274  0.3453
  191SLPC  H17S22129   2.302   1.707   8.055  1.4378 -2.6267  0.2173
  191SLPC  C21822130   2.112   1.767   7.966 -0.2419 -0.5639 -0.2803
  191SLPC  H18R22131   2.112   1.868   8.012 -2.0863 -0.0808 -1.2542
  191SLPC  H18S22132   2.045   1.707   8.032  2.7615 -0.6924  2.9197
  191SLPC  H18T22133   2.073   1.771   7.862  1.3702  1.1361 -0.8715
  191SLPC   C3322134   2.840   1.563   6.872  0.0520 -0.1375  1.1564
  191SLPC   H3X22135   2.863   1.670   6.856 -1.3750 -0.0377 -0.4687
  191SLPC   H3Y22136   2.936   1.512   6.849 -0.5223 -1.1722  0.9853
  191SLPC   C3422137   2.821   1.536   7.023  0.4401 -0.2448 -0.2343
  191SLPC   H4X22138   2.818   1.426   7.041 -1.2597 -0.0278  0.9795
  191SLPC   H4Y22139   2.720   1.566   7.058 -0.1201  1.2402 -2.8183
  191SLPC   C3522140   2.937   1.598   7.104  0.6059  0.4603  0.8011
  191SLPC   H5X22141   2.955   1.704   7.074 -1.1630 -0.1571 -3.0338
  191SLPC   H5Y22142   3.026   1.537   7.076 -0.6206 -0.7767 -0.5270
  191SLPC   C3622143   2.907   1.591   7.255 -0.8751 -0.3564  0.3337
  191SLPC   H6X22144   2.897   1.482   7.276  1.9005 -0.8057 -0.2909
  191SLPC   H6Y22145   2.814   1.642   7.288 -1.9681 -1.5478 -0.7957
  191SLPC   C3722146   3.020   1.646   7.347  0.4044  0.1992  0.7180
  191SLPC   H7X22147   3.050   1.750   7.325 -0.7149  0.2407 -0.8535
  191SLPC   H7Y22148   3.111   1.584   7.333  0.5121  0.5473 -0.2320
  191SLPC   C3822149   3.009   1.629   7.498 -0.0696  0.0634 -0.1868
  191SLPC   H8X22150   2.991   1.520   7.516 -1.5694  0.1226 -1.1434
  191SLPC   H8Y22151   2.917   1.681   7.531  0.3481  1.0313 -0.5213
  191SLPC   C3922152   3.136   1.686   7.559 -0.0901 -0.1988 -0.2392
  191SLPC   H9X22153   3.159   1.784   7.512 -0.8480  0.6419  1.0561
  191SLPC   H9Y22154   3.219   1.617   7.534 -0.7771 -1.5302  0.9905
  191SLPC  C31022155   3.116   1.695   7.705 -0.3059 -0.2358  0.2463
  191SLPC  H10X22156   3.023   1.752   7.726 -0.1064  0.1757  0.0153
  191SLPC  H10Y22157   3.202   1.755   7.741  0.3176 -1.3600  0.6734
  191SLPC  C31122158   3.112   1.559   7.781  0.6770  0.4113  0.2888
  191SLPC  H11X22159   3.203   1.504   7.748  0.9682  1.0855 -0.0561
  191SLPC  H11Y22160   3.018   1.512   7.744  0.3596  2.1460 -1.2595
  191SLPC  C31222161   3.099   1.578   7.925  0.1137 -0.2032 -0.2411
  191SLPC  H12X22162   3.009   1.642   7.941 -0.3076 -1.0769  1.0650
  191SLPC  H12Y22163   3.183   1.642   7.960 -1.0131  0.3842  1.5109
  191SLPC  C31322164   3.072   1.446   7.997 -0.4495 -0.4443 -0.5948
  191SLPC  H13X22165   3.155   1.374   7.986  0.9642  0.9273  0.6079
  191SLPC  H13Y22166   2.975   1.405   7.961 -1.9888  1.9034  0.5349
  191SLPC  C31422167   3.054   1.466   8.149 -0.0004  0.3089 -0.2968
  191SLPC  H14X22168   3.030   1.365   8.189 -1.6155  0.7200 -0.1721
  191SLPC  H14Y22169   2.959   1.524   8.153 -3.2957 -4.5959  0.6564
  191SLPC  C31522170   3.174   1.524   8.225  0.3484  0.1507 -0.0926
  191SLPC  H15X22171   3.198   1.612   8.162 -1.3625  0.0096 -0.9998
  191SLPC  H15Y22172   3.261   1.455   8.213 -1.4737 -1.9950 -1.8641
  191SLPC  C31622173   3.142   1.561   8.374  0.3088 -0.1591 -0.0908
  191SLPC  H16X22174   3.061   1.637   8.382  0.3477 -0.2658  1.6970
  191SLPC  H16Y22175   3.232   1.606   8.421 -1.9435  0.8802  3.7133
  191SLPC  C31722176   3.095   1.437   8.451 -0.1972  0.3810 -0.0434
  191SLPC  H17X22177   3.180   1.367   8.457  0.1018  0.7969  0.8096
  191SLPC  H17Y22178   3.013   1.388   8.394  1.0450 -1.6887 -0.1005
  191SLPC  C31822179   3.042   1.476   8.587 -0.5110 -0.3018  0.4604
  191SLPC  H18X22180   2.951   1.540   8.583 -0.5891 -0.4500 -0.5950
  191SLPC  H18Y22181   3.127   1.515   8.648  0.5958 -1.2733 -0.4039
  191SLPC  H18Z22182   3.004   1.388   8.641 -1.5370 -0.1266  0.0357
  192SLPC     N22183   4.234   2.642   6.007 -0.4408  0.4117 -1.2446
  192SLPC   C1322184   4.145   2.548   5.936  0.0392 -0.3588 -0.8624
  192SLPC  H13A22185   4.183   2.447   5.943 -0.2966 -0.4033  0.6745
  192SLPC  H13B22186   4.047   2.562   5.979  1.4650 -0.7671  2.8910
  192SLPC  H13C22187   4.136   2.589   5.836  0.4238 -1.2374 -1.2701
  192SLPC   C1422188   4.160   2.771   6.024 -0.5907 -0.0134 -0.0135
  192SLPC  H14A22189   4.225   2.833   6.083 -1.5706 -0.1248  1.2348
  192SLPC  H14B22190   4.133   2.817   5.930 -0.6671 -0.9015 -0.4459
  192SLPC  H14C22191   4.070   2.757   6.083 -2.0489 -0.3678 -2.1927
  192SLPC   C1522192   4.357   2.652   5.926 -0.1991  0.6154  0.0588
  192SLPC  H15A22193   4.337   2.682   5.824 -1.1022 -1.6178 -0.4684
  192SLPC  H15B22194   4.416   2.731   5.973 -0.3215  2.1528 -2.2188
  192SLPC  H15C22195   4.414   2.560   5.920 -2.4437 -0.7958 -0.6900
  192SLPC   C1222196   4.278   2.588   6.143 -0.6319 -0.2721 -0.3951
  192SLPC  H12A22197   4.343   2.659   6.193 -2.0373  0.4065  0.5177
  192SLPC  H12B22198   4.332   2.495   6.128 -0.9976 -0.1477 -2.7430
  192SLPC   C1122199   4.171   2.568   6.254  0.0000 -1.1788 -0.0954
  192SLPC  H11A22200   4.100   2.653   6.257  0.0893 -1.1204  0.3019
  192SLPC  H11B22201   4.213   2.562   6.356 -0.2695  0.2911  0.1278
  192SLPC     P22202   4.173   2.306   6.255 -0.3113 -0.3212  0.0871
  192SLPC   O1322203   4.186   2.220   6.137  0.1277 -0.0931 -0.1296
  192SLPC   O1422204   4.302   2.328   6.329 -0.3485  0.0438  0.4664
  192SLPC   O1222205   4.110   2.442   6.211  1.0083 -0.9650 -0.9737
  192SLPC   O1122206   4.055   2.245   6.350  0.4779 -0.1735 -0.4622
  192SLPC    C122207   4.023   2.312   6.473  0.2793  0.0646 -0.0731
  192SLPC    HA22208   4.055   2.419   6.471  0.3679  0.0392 -2.3330
  192SLPC    HB22209   3.916   2.300   6.500  0.9339 -0.4325  2.5878
  192SLPC    C222210   4.108   2.256   6.598 -0.0053  0.5266 -0.2252
  192SLPC    HS22211   4.213   2.262   6.565 -0.5085  3.0524 -1.6164
  192SLPC   O2122212   4.069   2.118   6.615  0.1303  0.1141 -0.8537
  192SLPC   C2122213   4.136   2.054   6.704  0.0517  0.2151 -0.3529
  192SLPC   O2222214   4.239   2.086   6.758  0.0858  0.0814  0.0849
  192SLPC   C2222215   4.075   1.909   6.701 -0.1668 -0.3006  0.1864
  192SLPC   H2R22216   3.971   1.912   6.662  1.1183 -0.6106 -3.6131
  192SLPC   H2S22217   4.138   1.848   6.632 -0.4872 -1.5606  0.9616
  192SLPC    C322218   4.079   2.342   6.717 -0.1987  0.5890 -0.0182
  192SLPC    HX22219   4.097   2.450   6.697  1.1923  0.0437 -2.0497
  192SLPC    HY22220   4.151   2.303   6.792  0.0498  0.6632 -0.2175
  192SLPC   O3122221   3.951   2.308   6.776  0.2404  0.0937  0.3902
  192SLPC   C3122222   3.860   2.406   6.788 -0.6083  0.0119 -0.2505
  192SLPC   O3222223   3.871   2.513   6.735  0.1677  0.1735 -0.1471
  192SLPC   C3222224   3.743   2.363   6.863  0.1153  0.1637  0.2028
  192SLPC   H2X22225   3.765   2.388   6.969  2.5886 -0.9729  0.0233
  192SLPC   H2Y22226   3.730   2.254   6.847  3.0236 -0.3917  1.0824
  192SLPC   C2322227   4.086   1.857   6.847  0.0688  0.3865  0.5053
  192SLPC   H3R22228   4.189   1.851   6.887 -0.7868 -1.8607  2.6480
  192SLPC   H3S22229   4.061   1.748   6.845  1.3064  0.0868  0.5008
  192SLPC   C2422230   3.981   1.908   6.953 -0.3954  0.2833  0.1412
  192SLPC   H4R22231   3.995   1.847   7.045  0.7890 -1.2894 -1.0267
  192SLPC   H4S22232   3.885   1.870   6.911  0.0483 -0.2012 -0.4483
  192SLPC   C2522233   3.988   2.048   7.000 -0.0724  0.6000 -0.4268
  192SLPC   H5R22234   3.984   2.114   6.911  0.0211 -1.0551 -1.7043
  192SLPC   H5S22235   4.087   2.068   7.047 -0.5482  0.7482  0.5407
  192SLPC   C2622236   3.882   2.102   7.099 -0.5312  0.0162  0.9831
  192SLPC   H6R22237   3.786   2.060   7.062 -0.1638 -0.8026  0.9488
  192SLPC   H6S22238   3.876   2.213   7.087 -2.8627 -0.0343  1.0999
  192SLPC   C2722239   3.896   2.072   7.246  0.1753  0.6175 -0.4204
  192SLPC   H7R22240   3.911   1.964   7.267  2.4686  0.8174 -0.7190
  192SLPC   H7S22241   3.804   2.112   7.293  0.6630 -0.4190  1.5662
  192SLPC   C2822242   4.021   2.136   7.302 -0.0524 -0.0905  0.7439
  192SLPC   H8R22243   4.013   2.247   7.290 -4.0452 -0.2259  0.7160
  192SLPC   H8S22244   4.113   2.111   7.245 -0.9447  0.7824 -1.1638
  192SLPC   C2922245   4.028   2.094   7.445 -0.5059 -0.0190 -0.8313
  192SLPC   H9R22246   4.091   2.004   7.454 -0.4277  0.0972 -0.0892
  192SLPC  C21022247   4.001   2.175   7.554 -0.3742  0.1189 -0.4731
  192SLPC  H10R22248   4.025   2.139   7.656 -0.1433 -1.0712 -0.9256
  192SLPC  C21122249   3.945   2.315   7.542 -0.0162  0.3801 -0.0538
  192SLPC  H11R22250   3.859   2.312   7.472  1.0583 -1.6962 -1.3941
  192SLPC  H11S22251   4.019   2.382   7.494 -2.0254  2.1861 -0.7746
  192SLPC  C21222252   3.919   2.386   7.675 -0.0201  0.4226  0.5056
  192SLPC  H12R22253   4.009   2.437   7.711 -0.2683 -0.0414  1.8373
  192SLPC  C21322254   3.804   2.401   7.745  0.1104 -0.1382  0.1710
  192SLPC  H13R22255   3.796   2.437   7.848 -1.9677 -1.2487  0.4593
  192SLPC  C21422256   3.673   2.347   7.713  0.9416  0.5160  0.5475
  192SLPC  H14R22257   3.627   2.297   7.801 -0.7664  0.2011 -0.4797
  192SLPC  H14S22258   3.680   2.257   7.648  1.0001 -0.0434  1.3191
  192SLPC  C21522259   3.570   2.439   7.638 -0.0091  0.5836  0.1250
  192SLPC  H15R22260   3.548   2.531   7.697 -0.8227  0.9513 -0.7363
  192SLPC  H15S22261   3.472   2.388   7.639  0.9910 -1.4799  2.1874
  192SLPC  C21622262   3.604   2.474   7.492 -0.0478 -0.2126 -0.0723
  192SLPC  H16R22263   3.618   2.386   7.426 -0.2894 -0.9507  0.8541
  192SLPC  H16S22264   3.706   2.517   7.501  0.1689 -0.1036 -2.3618
  192SLPC  C21722265   3.511   2.579   7.423 -0.1957  0.2963  0.5505
  192SLPC  H17R22266   3.528   2.571   7.314 -0.7350  0.4549  0.4529
  192SLPC  H17S22267   3.407   2.544   7.443  0.6596 -1.3478  2.5223
  192SLPC  C21822268   3.526   2.722   7.477 -0.3556  0.6070  0.5026
  192SLPC  H18R22269   3.624   2.765   7.448 -0.2420  0.1913  0.2520
  192SLPC  H18S22270   3.515   2.724   7.588 -0.8561  0.4644  0.4582
  192SLPC  H18T22271   3.449   2.788   7.432 -1.2561 -1.6895 -1.5817
  192SLPC   C3322272   3.615   2.432   6.817 -0.0143  1.0650  0.5911
  192SLPC   H3X22273   3.581   2.391   6.719 -0.5695  1.8731  0.4427
  192SLPC   H3Y22274   3.633   2.540   6.800  0.3017  1.0189  0.6238
  192SLPC   C3422275   3.502   2.414   6.919 -0.2444  0.0478  0.0737
  192SLPC   H4X22276   3.434   2.501   6.903  0.8250  0.7805 -0.5830
  192SLPC   H4Y22277   3.550   2.423   7.019 -1.0324  3.1464  0.2620
  192SLPC   C3522278   3.426   2.278   6.901  0.3184  0.1183  0.5146
  192SLPC   H5X22279   3.504   2.200   6.893  1.8756  1.6540  0.2719
  192SLPC   H5Y22280   3.373   2.300   6.806  1.3153 -1.8290 -0.5393
  192SLPC   C3622281   3.330   2.260   7.011 -0.0975  0.1688 -0.5899
  192SLPC   H6X22282   3.272   2.167   6.994 -1.0551  0.1090  2.4465
  192SLPC   H6Y22283   3.258   2.345   7.020 -0.1783  0.1680 -1.1774
  192SLPC   C3722284   3.415   2.249   7.147 -0.5864  0.6696  1.1605
  192SLPC   H7X22285   3.425   2.353   7.184 -2.5333  1.6284 -0.8034
  192SLPC   H7Y22286   3.520   2.216   7.130 -1.1988 -0.8637  0.0675
  192SLPC   C3822287   3.344   2.159   7.246  0.8163 -0.1321  0.2841
  192SLPC   H8X22288   3.354   2.050   7.225 -0.7798 -0.5335  1.3773
  192SLPC   H8Y22289   3.239   2.190   7.229  0.7258  0.6170  2.0127
  192SLPC   C3922290   3.356   2.196   7.390 -0.3489  0.4115 -0.4038
  192SLPC   H9X22291   3.355   2.306   7.404  0.3885  0.2675  0.9816
  192SLPC   H9Y22292   3.460   2.178   7.424 -0.9632 -0.2191  1.2373
  192SLPC  C31022293   3.268   2.119   7.487  0.1471 -1.2742 -0.2405
  192SLPC  H10X22294   3.263   2.012   7.456 -3.8698 -1.2040 -0.4085
  192SLPC  H10Y22295   3.163   2.153   7.480 -0.0712 -2.0038 -0.6090
  192SLPC  C31122296   3.314   2.130   7.630  0.4665 -0.0110 -0.0583
  192SLPC  H11X22297   3.313   2.238   7.655 -2.9255  0.2365 -0.6623
  192SLPC  H11Y22298   3.415   2.084   7.633 -0.0180 -1.1374 -0.1370
  192SLPC  C31222299   3.229   2.060   7.737  0.5974  0.2338  0.3582
  192SLPC  H12X22300   3.206   1.956   7.707  0.0830  1.0022 -2.1985
  192SLPC  H12Y22301   3.128   2.100   7.761  0.7337  1.3798 -0.8619
  192SLPC  C31322302   3.321   2.053   7.861 -0.2155  0.1473 -0.1302
  192SLPC  H13X22303   3.349   2.153   7.899 -2.1693  1.0643 -0.9496
  192SLPC  H13Y22304   3.410   1.996   7.827 -1.2386 -2.3303  1.0908
  192SLPC  C31422305   3.251   1.977   7.973 -0.0465  0.2321  0.4349
  192SLPC  H14X22306   3.331   1.920   8.026  0.5864  0.3414 -0.3841
  192SLPC  H14Y22307   3.172   1.911   7.932  0.4407  0.0500 -0.2345
  192SLPC  C31522308   3.186   2.064   8.084  0.7534  1.1496  0.0333
  192SLPC  H15X22309   3.156   2.156   8.029  0.2228 -0.0192 -1.7300
  192SLPC  H15Y22310   3.262   2.086   8.162  0.6838  0.5962  0.2569
  192SLPC  C31622311   3.070   1.991   8.160  0.4214  0.5451 -0.0343
  192SLPC  H16X22312   3.058   2.035   8.261 -2.3222 -0.6366  0.2540
  192SLPC  H16Y22313   3.110   1.888   8.174  1.5281  0.4635 -3.0936
  192SLPC  C31722314   2.943   1.997   8.075 -0.4672 -0.7264  0.7457
  192SLPC  H17X22315   2.864   1.925   8.102  0.0736 -0.7892  2.2448
  192SLPC  H17Y22316   2.969   1.978   7.968  1.3956  0.1006  1.0149
  192SLPC  C31822317   2.882   2.136   8.067 -1.1464 -0.2965  0.5470
  192SLPC  H18X22318   2.954   2.206   8.020  0.1611 -0.3123  2.4328
  192SLPC  H18Y22319   2.867   2.174   8.170 -0.6291 -1.4768  1.0727
  192SLPC  H18Z22320   2.780   2.140   8.023 -1.4159 -1.5654  1.0196
  193SOD    SOD22321   4.345   5.287  11.339  0.1922 -0.4076  0.0617
  194SOD    SOD22322   3.558   1.105  13.187 -0.1691 -0.1139  0.2139
  195SOD    SOD22323   5.741   0.592  11.717 -0.1679 -0.0048 -0.2292
  196SOD    SOD22324   1.984   6.536  15.201  0.1202  0.0049  0.4982
  197SOD    SOD22325   4.568   1.607  15.057  0.1099  0.2327 -0.0734
  198SOD    SOD22326   1.621   1.519   5.034 -0.1546  0.3869 -0.0102
  199SOD    SOD22327   1.380   4.077   5.004  0.5329 -0.6500  0.6049
  200SOD    SOD22328   4.629   4.097  11.691  0.2539 -0.3848 -0.3787
  201SOD    SOD22329   3.665   4.918   6.192 -0.5209 -0.5848  0.4552
  202SOD    SOD22330   1.317   1.878   3.949 -0.2496  0.4547 -0.0754
  203SOD    SOD22331   2.273   6.358   1.423 -0.2093 -0.3381  0.1669
  204SOD    SOD22332   5.417   6.013  17.147  0.0360  0.1020 -0.1056
  205SOD    SOD22333   2.884   3.812   6.369 -0.0555 -0.2295  0.1871
  206SOD    SOD22334   5.334   2.993  12.043 -1.0684  0.5711  0.1725
  207SOD    SOD22335   5.609   2.861  16.141 -0.1823 -0.3389 -0.0654
  208SOD    SOD22336   0.720   1.800  12.395 -0.2167  0.1252  0.2837
  209SOD    SOD22337   0.492   5.669   4.900 -0.3618 -0.1624 -0.0900
  210SOD    SOD22338   5.508   4.993  13.399 -0.2557 -0.0200 -0.4255
  211SOD    SOD22339   0.410   4.218  16.581 -0.2986  0.5097 -0.0388
  212SOD    SOD22340   0.214   6.165  11.245  0.1481 -0.2920 -0.1821
  213SOD    SOD22341   3.530   6.597  13.778  0.5689  0.0329  0.1939
  214SOD    SOD22342   0.448   3.880   4.260  0.3081  0.4855 -0.0319
  215SOD    SOD22343   3.171   3.391   0.798  0.1163  0.0028 -0.2607
  216SOD    SOD22344   4.022   3.520   4.127 -0.2971 -0.5403 -0.0432
  217SOD    SOD22345   5.523   5.822   6.252  0.2744  0.3434  0.2992
  218SOD    SOD22346   2.628   3.114   4.010  0.3014 -0.3021 -0.5815
  219SOD    SOD22347   0.563   2.726  16.436 -0.1417 -0.4884  0.2197
  220SOD    SOD22348   6.254   3.767   5.764  0.3423 -0.2563  0.0829
  221SOD    SOD22349   4.525   3.932   5.080 -0.2285 -0.0493 -0.0192
  222SOD    SOD22350   1.628   2.624   4.230  0.2692  0.2422  0.4937
  223SOD    SOD22351   0.986   5.991  11.546  0.1104  0.5343 -0.5414
  224SOD    SOD22352   5.238   6.811  14.662  0.4535  0.2100  0.0275
  225SOD    SOD22353   5.138   3.984  14.002 -0.2891 -0.1391  0.2028
  226SOD    SOD22354   6.588   2.986  15.233 -0.2680  0.0693  0.1118
  227SOD    SOD22355   4.848   2.216  11.191 -0.1384  0.1785  0.3688
  228SOD    SOD22356   4.750   1.346   6.617  0.1021 -0.1612  0.0472
  229SOD    SOD22357   3.843   1.946  10.614 -0.0707 -0.0104 -0.0822
  230SOD    SOD22358   6.454   2.180   1.927  0.0683  0.0337  0.4525
  231SOD    SOD22359   6.607   1.173  13.066  0.0122  0.4393  0.7005
  232SOD    SOD22360   5.462   1.033   2.741 -0.6165  0.4923 -0.1067
  233SOD    SOD22361   6.613   3.989  15.466 -0.5300 -0.1861  0.4071
  234SOD    SOD22362   5.283   1.681  13.958 -0.1892  0.2423 -0.1924
  235SOD    SOD22363   0.271   4.929  14.630 -0.3072  0.7225  0.2687
  236SOD    SOD22364   3.364   5.759   5.795  0.0972  0.1421  0.0007
  237SOD    SOD22365   0.238   3.838   1.081 -0.0364 -0.6666 -0.2956
  238SOD    SOD22366   1.875   0.582  12.317  0.1914 -0.0629 -0.2246
  239SOD    SOD22367   4.173   5.393   2.624 -0.5090  0.7786 -0.2046
  240SOD    SOD22368   6.472   2.946  13.935  0.3822 -0.2026  0.2367
  241SOD    SOD22369   1.728   5.317  15.032  0.6311 -0.0635 -0.0365
  242SOD    SOD22370   0.843   1.124   0.987  0.4449 -0.2979 -0.4233
  243SOD    SOD22371   0.749   1.354  11.943  0.0862 -0.0274  0.0298
  244SOD    SOD22372   3.952   2.043   6.360 -0.3060  0.0368  0.1405
  245SOD    SOD22373   3.011   3.203  11.911 -0.5868  0.1665  0.2457
  246SOD    SOD22374   0.787   2.218  14.771 -0.3112  0.0154  0.0082
  247SOD    SOD22375   3.674   0.691   5.978 -0.5069 -0.0204  0.7032
  248SOD    SOD22376   6.672   6.082   4.850 -0.1847 -0.1555 -0.0097
  249SOD    SOD22377   0.257   2.740  14.950 -0.4579  0.1193  0.2058
  250SOD    SOD22378   2.001   4.878  16.755 -0.6183 -0.1296 -0.1555
  251SOD    SOD22379   4.660   3.849   1.398 -0.3479  0.1146  0.4664
  252SOD    SOD22380   4.596   5.525  11.121 -0.0387  0.0625 -0.4288
  253SOD    SOD22381   1.568   2.068   0.149 -0.4359  0.2364 -0.0657
  254SOD    SOD22382   0.392   6.260   2.325 -0.1869  0.1938 -0.0516
  255SOD    SOD22383   5.850   3.367   1.540  0.6066 -0.1502  0.4242
  256SOD    SOD22384   5.850   5.221  12.228  0.6214 -0.2210  0.4626
  257SOD    SOD22385   0.509   1.489  11.237 -0.3758 -0.1821  0.2093
  258SOD    SOD22386   1.553   2.541  12.201 -0.2350  0.0578  0.4160
  259SOD    SOD22387   1.784   2.702   1.069 -0.0476  0.0341 -0.1438
  260SOD    SOD22388   4.682   2.985  12.848 -0.1507 -0.0487  0.0925
  261SOD    SOD22389   5.485   0.876  15.628 -0.3004  0.0237  0.3153
  262SOD    SOD22390   6.711   4.444   1.411  0.1929 -0.1267 -0.1610
  263SOD    SOD22391   1.068   4.162   3.928  0.1301  0.2615 -0.1877
  264SOD    SOD22392   5.832   0.707  17.145 -0.1388  0.0994  0.0334
  265SOD    SOD22393   1.607   4.436   2.167  0.2058 -0.0304 -0.3050
  266CLA    CLA22394   2.712   6.724  12.258 -0.1436 -0.1750  0.4236
  267CLA    CLA22395   2.825   3.985  13.609  0.2982 -0.5461  0.0010
  268CLA    CLA22396   3.498   1.031  15.329 -0.0546 -0.0537 -0.2772
  269CLA    CLA22397   2.413   6.740   3.347  0.1253  0.1906  0.0770
  270CLA    CLA22398   1.937   1.819   1.403  0.2068  0.2746 -0.0400
  271CLA    CLA22399   2.986   1.097  14.510 -0.1995  0.3705  0.2685
  272CLA    CLA22400   0.637   4.965  11.960  0.0424 -0.0493 -0.4624
  273CLA    CLA22401   0.575   0.967  13.562 -0.6433 -0.2165 -0.1645
  274CLA    CLA22402   2.255   6.421   1.690  0.1331 -0.2700 -0.4743
  275CLA    CLA22403   1.211   1.931   1.015  0.0932  0.1141  0.1280
  276CLA    CLA22404   4.724   5.713   4.340  0.3146 -0.8606  0.1440
  277CLA    CLA22405   2.237   4.870   2.317  0.0085  0.3736 -0.1071
  278CLA    CLA22406   5.449   0.504   4.379 -0.1462 -0.3287  0.0696
  279CLA    CLA22407   0.830   5.208  14.261  0.0843  0.0845 -0.0387
  280CLA    CLA22408   6.366   3.511  14.874 -0.2060  0.0986  0.0562
  281CLA    CLA22409   5.810   2.099   2.405 -0.2198  0.1368 -0.4194
  282CLA    CLA22410   4.669   5.682  11.775 -0.1381 -0.0021 -0.0332
  283CLA    CLA22411   2.195   2.794   4.074  0.0704  0.1517  0.2107
  284CLA    CLA22412   4.616   5.772  14.252 -0.0861 -0.3810 -0.3029
  285CLA    CLA22413   0.587   0.334  16.868 -0.4221 -0.0413  0.1389
  286CLA    CLA22414   3.705   3.596   5.483 -0.3943 -0.0260 -0.1131
  287CLA    CLA22415   6.097   5.341   0.547 -0.0278 -0.2442 -0.1855
  288CLA    CLA22416   1.190   4.220  16.600  0.2802 -0.0857 -0.1397
  289CLA    CLA22417   2.905   5.476  16.430 -0.4977 -0.1887 -0.1148
  290CLA    CLA22418   3.954   5.688  17.088  0.1636  0.3866  0.1905
  291CLA    CLA22419   6.350   4.851  13.679 -0.0412  0.2173  0.3377
  292CLA    CLA22420   1.081   4.009   0.517  0.0294  0.0674 -0.1419
  293CLA    CLA22421   3.123   2.384   4.457  0.0694 -0.0756 -0.1629
  294CLA    CLA22422   5.854   4.384   1.626  0.2934  0.0916  0.1939
  295CLA    CLA22423   0.426   4.762   4.610 -0.4609  0.2216  0.1101
  296CLA    CLA22424   0.185   2.630  15.417 -0.2493  0.2419 -0.3068
  297CLA    CLA22425   1.268   3.268  15.952 -0.0566  0.1242  0.0962
  298CLA    CLA22426   4.377   2.022  17.256 -0.0657 -0.1144  0.0103
  299CLA    CLA22427   4.094   2.288  13.067  0.1029  0.2315  0.0364
  300CLA    CLA22428   0.183   1.191  11.839  0.2975 -0.1529 -0.0172
  301CLA    CLA22429   0.754   5.973  14.161 -0.0954 -0.0454 -0.1543
  302CLA    CLA22430   5.085   4.570  15.858  0.1074 -0.2637 -0.1899
  303CLA    CLA22431   6.033   4.002   1.137  0.5874 -0.1877 -0.0704
  304CLA    CLA22432   5.786   0.861  16.276 -0.1295 -0.0281 -0.6305
  305CLA    CLA22433   2.268   4.232   3.869 -0.3105  0.4699  0.2093
  306CLA    CLA22434   4.530   2.980   2.842 -0.2679  0.0927 -0.2362
  307CLA    CLA22435   6.107   1.380  13.978 -0.0547 -0.2460  0.0349
  308CLA    CLA22436   2.560   3.144   1.639  0.2483 -0.2664  0.0703
  309CLA    CLA22437   1.372   4.098  12.332 -0.6333  0.5070 -0.0617
  310CLA    CLA22438   5.168   5.026  13.081  0.0449 -0.3219 -0.1930
  311CLA    CLA22439   6.548   0.576   2.093 -0.1058  0.2049  0.2044
  312CLA    CLA22440   2.472   5.891   1.358  0.2237  0.2594  0.4394
  313CLA    CLA22441   0.095   3.065  13.892 -0.0684 -0.3105 -0.2112
  314CLA    CLA22442   5.947   0.346   0.271  0.2311 -0.2993 -0.0070
  315CLA    CLA22443   0.721   3.075   3.477 -0.1249 -0.1653 -0.2997
  316CLA    CLA22444   1.422   5.300  12.219 -0.1849  0.2850  0.5568
  317CLA    CLA22445   5.022   2.689  13.034 -0.2945  0.1749 -0.3388
  318CLA    CLA22446   4.392   1.392   2.154  0.0483  0.0062 -0.4098
  319TIP3   OH222447   2.063   6.748  15.168  0.0202 -0.1008 -0.3056
  319TIP3    H122448   1.990   6.810  15.155 -0.6490 -0.8208 -0.0366
  319TIP3    H222449   2.113   6.753  15.086  0.6289  1.6135  0.1227
  320TIP3   OH222450   2.686   0.513  15.984  0.3152 -0.4711  0.1336
  320TIP3    H122451   2.645   0.427  15.985  0.9486 -0.7920 -0.8297
  320TIP3    H222452   2.721   0.524  16.073 -1.3624 -0.4064  0.8304
  321TIP3   OH222453   6.671   6.790  13.723  0.6365 -0.3935 -0.2609
  321TIP3    H122454   6.692   6.792  13.630  0.4422 -0.6832 -0.3118
  321TIP3    H222455   6.688   6.700  13.750 -1.0234 -0.7905 -0.4246
  322TIP3   OH222456   4.847   5.818  15.759  0.5826  0.3318  0.1357
  322TIP3    H122457   4.799   5.746  15.800  0.4640  0.5374  0.3613
  322TIP3    H222458   4.815   5.896  15.804  1.5433  0.4283  0.6855
  323TIP3   OH222459   3.187   4.058  17.096 -0.2459  0.1216 -0.4188
  323TIP3    H122460   3.201   4.060  17.001 -0.5594  0.5561 -0.4593
  323TIP3    H222461   3.182   4.150  17.122  0.0713  0.0087  0.0557
  324TIP3   OH222462   0.525   3.182   0.306 -0.2565  0.0166 -0.6008
  324TIP3    H122463   0.580   3.236   0.249 -0.0756  1.0048  0.4723
  324TIP3    H222464   0.511   3.101   0.256  1.4522  0.0832 -1.2481
  325TIP3   OH222465   1.865   6.819   0.329  0.2077 -0.2004  0.3593
  325TIP3    H122466   1.898   6.733   0.301  0.1503 -0.6967  1.7442
  325TIP3    H222467   1.780   6.827   0.286  0.5901 -0.4469 -0.4678
  326TIP3   OH222468   2.182   6.415  13.174  0.4739  0.4264 -0.8407
  326TIP3    H122469   2.155   6.333  13.213  2.0629  0.2518 -0.0456
  326TIP3    H222470   2.152   6.409  13.083  0.0263 -0.7518 -0.6318
  327TIP3   OH222471   6.786   1.424   4.994  0.1191 -0.1095 -0.0322
  327TIP3    H122472   6.829   1.405   5.077  3.3287  2.2901 -0.9793
  327TIP3    H222473   6.758   1.515   5.001 -3.6014 -1.0486 -0.1425
  328TIP3   OH222474   2.381   3.716   3.919  0.1477  0.1253  0.1450
  328TIP3    H122475   2.326   3.787   3.952  1.7437  0.0308  3.4269
  328TIP3    H222476   2.461   3.759   3.889  0.2743 -0.1237  0.1262
  329TIP3   OH222477   3.018   1.435   0.679 -0.1507 -0.8833  0.3835
  329TIP3    H122478   2.980   1.519   0.704  0.6459 -0.6112  0.7016
  329TIP3    H222479   2.978   1.372   0.739  1.5736 -0.2764  2.2790
  330TIP3   OH222480   2.495   2.857  11.603  0.1429  0.2699 -0.3080
  330TIP3    H122481   2.504   2.864  11.698 -0.0715 -0.1506 -0.2555
  330TIP3    H222482   2.409   2.818  11.589  0.0456  0.6081 -0.6871
  331TIP3   OH222483   0.004   0.161  12.536 -0.6192 -0.3540 -0.1628
  331TIP3    H122484  -0.067   0.202  12.585 -0.3535  0.1459 -0.1891
  331TIP3    H222485   0.074   0.227  12.536 -0.3826 -0.6024 -0.6642
  332TIP3   OH222486   0.777   3.081  13.576  0.4975  0.0080 -0.2983
  332TIP3    H122487   0.711   3.069  13.644  3.3317  0.7937  2.8365
  332TIP3    H222488   0.806   2.992  13.555 -0.0959 -0.2087 -0.2487
  333TIP3   OH222489   0.724   3.354   1.028  0.2833 -0.0855 -0.0714
  333TIP3    H122490   0.701   3.276   0.978  0.0612 -0.7763  1.0574
  333TIP3    H222491   0.737   3.322   1.117  0.7603  1.0831  0.2995
  334TIP3   OH222492   4.171   2.572   5.446 -0.5196  0.5003 -0.0583
  334TIP3    H122493   4.111   2.627   5.395 -0.8746  0.6829  0.5491
  334TIP3    H222494   4.255   2.582   5.403 -0.7034  1.0729 -0.2909
  335TIP3   OH222495   1.282   2.410  11.049 -0.1755 -0.0078  0.6295
  335TIP3    H122496   1.270   2.389  10.956 -0.2175  1.3757  0.3028
  335TIP3    H222497   1.194   2.400  11.086 -0.0966 -0.8998  0.6191
  336TIP3   OH222498   2.049   2.293  13.939  0.2654 -0.0110 -0.3292
  336TIP3    H122499   2.127   2.323  13.986 -0.0745  0.1678  0.1272
  336TIP3    H222500   1.995   2.252  14.007 -1.2078  2.1452 -0.1103
  337TIP3   OH222501   4.099   5.282  15.291  0.0908  0.1535  0.0873
  337TIP3    H122502   4.010   5.246  15.287  0.5932 -1.0784 -1.0883
  337TIP3    H222503   4.135   5.248  15.373  0.1192 -1.0299 -0.3874
  338TIP3   OH222504   2.093   1.070  13.927 -0.0172 -0.1790  0.1686
  338TIP3    H122505   2.179   1.049  13.962  0.4202  0.6363 -0.3762
  338TIP3    H222506   2.065   1.148  13.976 -0.5145 -0.5376  0.4574
  339TIP3   OH222507   4.652   5.072  13.089  0.0664 -0.6010 -0.6508
  339TIP3    H122508   4.636   5.166  13.078 -2.8336 -0.8727  0.3099
  339TIP3    H222509   4.739   5.067  13.128 -0.9514  1.9494  2.3979
  340TIP3   OH222510   1.789   2.266  11.696  0.1462  0.2979  0.2294
  340TIP3    H122511   1.746   2.305  11.619  0.4877 -1.1097 -0.7092
  340TIP3    H222512   1.729   2.198  11.725  0.4406  0.2219  0.6703
  341TIP3   OH222513   3.635   4.457   1.156  0.1056 -0.1955  0.0629
  341TIP3    H122514   3.568   4.468   1.224 -0.9217  0.7227 -1.0471
  341TIP3    H222515   3.652   4.546   1.125  2.1814 -0.3451  0.5900
  342TIP3   OH222516   2.531   3.474   3.791  0.2468 -0.5536  0.5190
  342TIP3    H122517   2.442   3.460   3.757  0.5400 -1.9016  0.2207
  342TIP3    H222518   2.570   3.538   3.731 -0.7053  0.5072  1.0081
  343TIP3   OH222519   6.596   3.671   4.084 -0.4043 -0.7965 -0.0084
  343TIP3    H122520   6.536   3.611   4.039 -4.1454  1.8201  0.9807
  343TIP3    H222521   6.593   3.643   4.176  1.1065 -1.4712 -0.1358
  344TIP3   OH222522   6.212   1.480  12.471  0.2528  0.0989  0.0830
  344TIP3    H122523   6.238   1.392  12.442  0.7011 -0.6815  2.5556
  344TIP3    H222524   6.123   1.491  12.438  0.2450 -1.2403 -0.3972
  345TIP3   OH222525   3.467   5.757  12.397  0.2724  0.2290 -0.1377
  345TIP3    H122526   3.399   5.709  12.349  0.3547  1.3665 -1.4578
  345TIP3    H222527   3.530   5.781  12.329  0.0369  2.5256  0.4085
  346TIP3   OH222528   6.171   1.841  11.831  0.4662  0.2416 -0.5827
  346TIP3    H122529   6.218   1.897  11.894  1.6220  1.2551 -2.2836
  346TIP3    H222530   6.240   1.790  11.788 -0.4315 -1.3585 -0.1953
  347TIP3   OH222531   2.252   5.119  14.045 -0.0526  0.0827  0.1386
  347TIP3    H122532   2.211   5.201  14.072  0.9255  0.7069 -0.2147
  347TIP3    H222533   2.186   5.074  13.993 -0.4681  0.8300  0.0100
  348TIP3   OH222534   2.715   2.662  10.725 -0.2144 -0.0199  0.1813
  348TIP3    H122535   2.805   2.695  10.718  0.6085 -2.4310 -1.9601
  348TIP3    H222536   2.709   2.625  10.813  0.5644  0.9174  0.6507
  349TIP3   OH222537   2.486   5.614  14.949 -0.4398 -0.2632  0.1649
  349TIP3    H122538   2.420   5.680  14.969 -0.3601 -0.3142  0.6031
  349TIP3    H222539   2.517   5.584  15.034  0.4608  0.0670 -0.0367
  350TIP3   OH222540   0.473   2.587   1.087 -0.3004  0.7449  0.8274
  350TIP3    H122541   0.436   2.627   1.166 -1.6509 -0.2579  0.7259
  350TIP3    H222542   0.425   2.628   1.015  1.8678  2.6782  0.3798
  351TIP3   OH222543   0.664   4.041   1.553  0.1446 -0.4190 -0.7200
  351TIP3    H122544   0.589   4.015   1.607  0.3441  1.3852  0.5472
  351TIP3    H222545   0.639   4.018   1.464 -1.8929  0.0098 -0.3179
  352TIP3   OH222546   1.467   1.465  15.199  0.1110  0.0700  0.1717
  352TIP3    H122547   1.446   1.553  15.231  0.6538  0.3960 -0.3290
  352TIP3    H222548   1.553   1.475  15.158  0.8920 -1.0293  1.4421
  353TIP3   OH222549   3.541   3.004   1.625 -0.4337  0.1533 -0.3566
  353TIP3    H122550   3.565   2.955   1.546 -0.2772 -0.6042  0.1535
  353TIP3    H222551   3.618   3.059   1.643 -1.0248  1.4159 -1.5455
  354TIP3   OH222552   3.892   5.529   0.816 -0.0283  0.1450  0.6463
  354TIP3    H122553   3.837   5.452   0.796 -3.0154  2.2283  0.0871
  354TIP3    H222554   3.878   5.545   0.909  1.5579 -0.6411  1.0393
  355TIP3   OH222555   0.505   4.602  15.414 -0.6393  0.3213  0.1291
  355TIP3    H122556   0.576   4.631  15.356 -0.5121 -1.0025 -0.4203
  355TIP3    H222557   0.425   4.626  15.367 -0.5381 -0.2992 -0.3722
  356TIP3   OH222558   5.167   1.284   4.135  0.4863 -0.2843  0.0549
  356TIP3    H122559   5.110   1.343   4.183  0.9839 -0.9225  1.5038
  356TIP3    H222560   5.109   1.214   4.105  0.2661 -0.1900  0.2584
  357TIP3   OH222561   1.475   1.375  12.093  0.1059 -0.1783  0.1869
  357TIP3    H122562   1.429   1.323  12.028  0.3443 -2.8774  2.0363
  357TIP3    H222563   1.558   1.330  12.106  0.5203  0.9066  1.5526
  358TIP3   OH222564   1.313   5.318  16.112 -0.0931 -0.5844  0.2583
  358TIP3    H122565   1.253   5.323  16.186  0.7085 -0.8066  0.9443
  358TIP3    H222566   1.390   5.273  16.147  1.2304  1.2770 -0.0505
  359TIP3   OH222567   4.277   4.790   3.451 -0.5026 -0.4931  0.6269
  359TIP3    H122568   4.270   4.747   3.537  1.3915  0.3728  1.2584
  359TIP3    H222569   4.303   4.720   3.392  1.3478 -0.5148  1.4078
  360TIP3   OH222570   2.783   6.636  16.004 -0.0026 -0.0442 -0.1681
  360TIP3    H122571   2.747   6.621  15.916 -0.3122 -1.3733  0.1666
  360TIP3    H222572   2.839   6.712  15.994 -2.0243  1.4390 -0.9569
  361TIP3   OH222573   2.119   0.231  16.944  0.1303 -0.0374  0.3024
  361TIP3    H122574   2.173   0.165  16.900 -1.7027 -0.2321 -1.8029
  361TIP3    H222575   2.148   0.314  16.907 -0.9224 -0.1417 -0.8260
  362TIP3   OH222576   4.000   6.143   2.990 -0.5950  0.6218 -0.2896
  362TIP3    H122577   4.012   6.195   2.911 -0.5712  0.8326 -0.1471
  362TIP3    H222578   3.907   6.151   3.010 -0.4467  1.2356  0.1657
  363TIP3   OH222579   2.331   1.774  11.697 -0.5005 -0.0551 -0.5278
  363TIP3    H122580   2.367   1.688  11.674  1.1728  0.6678 -0.7029
  363TIP3    H222581   2.402   1.820  11.741 -1.6940  0.8981  0.4751
  364TIP3   OH222582   1.742   1.316  11.375 -0.1836  0.6397 -0.0851
  364TIP3    H122583   1.673   1.365  11.330  0.6717  1.8568 -0.1117
  364TIP3    H222584   1.822   1.336  11.325  0.2584 -0.5128  0.1165
  365TIP3   OH222585   5.948   0.320   1.397 -0.4568  0.6589 -0.2162
  365TIP3    H122586   6.016   0.347   1.336  1.0421  0.1339  1.1747
  365TIP3    H222587   5.872   0.374   1.373 -0.0951  0.1438 -2.8241
  366TIP3   OH222588   0.883   1.705  14.906 -0.1198 -0.8005  0.2741
  366TIP3    H122589   0.808   1.646  14.906  0.0534 -1.0534 -1.1350
  366TIP3    H222590   0.959   1.646  14.905  0.0595 -0.6452 -2.5297
  367TIP3   OH222591   4.305   2.828   2.668  0.0792  0.6430  0.0017
  367TIP3    H122592   4.389   2.815   2.624 -0.3555 -1.0397 -0.4176
  367TIP3    H222593   4.327   2.837   2.760  0.7449  0.5909 -0.1448
  368TIP3   OH222594   1.811   5.600  15.532  0.2858  0.0024  0.2300
  368TIP3    H122595   1.779   5.689  15.518 -1.0994 -0.5321 -0.1890
  368TIP3    H222596   1.857   5.578  15.450  0.2137  0.1556  0.1480
  369TIP3   OH222597   4.959   1.968   2.669 -0.3168 -0.7669  0.3057
  369TIP3    H122598   4.956   1.969   2.573  0.8286  0.4607  0.2486
  369TIP3    H222599   4.930   2.055   2.695  0.5920 -0.6551  1.0014
  370TIP3   OH222600   4.596   0.876  15.197 -0.5406 -0.1132  0.6983
  370TIP3    H122601   4.690   0.856  15.191 -0.4484 -0.0362  1.6759
  370TIP3    H222602   4.591   0.945  15.263 -1.3185 -0.3198  0.8596
  371TIP3   OH222603   1.215   3.826  12.312  0.0149 -0.3472  0.6181
  371TIP3    H122604   1.259   3.911  12.303  2.1104 -1.4345 -0.0283
  371TIP3    H222605   1.153   3.824  12.238 -0.0859  0.6063  0.6540
  372TIP3   OH222606   3.438   4.386   6.124  0.1181 -0.1434 -0.9304
  372TIP3    H122607   3.490   4.416   6.198 -0.0090  0.8125 -1.2104
  372TIP3    H222608   3.360   4.441   6.126  0.1691 -0.0185 -1.8340
  373TIP3   OH222609   5.683   2.495  15.799  0.2302  0.2853  0.0211
  373TIP3    H122610   5.715   2.410  15.829 -2.4039 -0.3421  1.4056
  373TIP3    H222611   5.743   2.520  15.729  0.7136 -3.0586 -0.9493
  374TIP3   OH222612   5.577   3.024  14.642 -0.4710 -0.0383 -0.0464
  374TIP3    H122613   5.588   2.985  14.729 -0.7425 -1.3375 -0.5712
  374TIP3    H222614   5.651   2.990  14.591 -0.5274  0.4111 -0.4308
  375TIP3   OH222615   3.518   6.249   0.126 -0.1252 -0.1927  0.5738
  375TIP3    H122616   3.605   6.216   0.102 -0.1341 -0.5739  1.0454
  375TIP3    H222617   3.494   6.306   0.054  1.2111  1.2015  1.1723
  376TIP3   OH222618   6.494   6.559  12.715 -0.3519  0.1763 -0.3494
  376TIP3    H122619   6.530   6.570  12.803 -0.7862 -0.8058 -0.0326
  376TIP3    H222620   6.421   6.498  12.726 -1.3092  1.1259 -1.1788
  377TIP3   OH222621   4.627   4.150   6.564  0.1524 -0.7812 -0.0938
  377TIP3    H122622   4.606   4.226   6.617 -0.3891  1.1620 -2.8820
  377TIP3    H222623   4.722   4.147   6.562  0.1928 -1.3356  1.4950
  378TIP3   OH222624   1.377   3.717  11.255 -0.2907  0.3192  0.0713
  378TIP3    H122625   1.431   3.706  11.176 -1.5000 -3.0029 -0.4676
  378TIP3    H222626   1.293   3.679  11.232  0.0665 -3.2713  3.6139
  379TIP3   OH222627   0.182   4.220  15.835  0.3461  0.5597 -0.0875
  379TIP3    H122628   0.218   4.183  15.916 -0.7873  1.0490  0.6722
  379TIP3    H222629   0.244   4.288  15.811  0.1756  1.1154  0.9690
  380TIP3   OH222630   1.679   5.262  13.497  0.1400 -0.4847 -0.2738
  380TIP3    H122631   1.585   5.260  13.478 -0.8052 -0.8295  3.5603
  380TIP3    H222632   1.706   5.171  13.490  0.3634 -0.3190 -1.8782
  381TIP3   OH222633   3.320   5.055   0.328  0.1192  0.1785  0.0771
  381TIP3    H122634   3.407   5.047   0.366 -0.0267  0.0983  0.4008
  381TIP3    H222635   3.329   5.120   0.258  0.4259  0.2032  0.1416
  382TIP3   OH222636   4.563   5.197  12.125  0.1738 -0.3981  0.1701
  382TIP3    H122637   4.563   5.245  12.208 -0.6388 -0.7373  0.3762
  382TIP3    H222638   4.511   5.118  12.143 -1.6298  0.4304 -1.1743
  383TIP3   OH222639   1.282   5.714  16.864  0.4443 -0.0846 -0.1336
  383TIP3    H122640   1.229   5.775  16.813  1.2707  1.2349  0.5238
  383TIP3    H222641   1.239   5.710  16.949 -0.2654 -1.3671 -0.5267
  384TIP3   OH222642   5.792   1.233  11.697  0.3636  1.0118  0.1275
  384TIP3    H122643   5.854   1.305  11.685  1.0495  0.4318  0.0715
  384TIP3    H222644   5.834   1.159  11.653 -0.2265  0.5284  0.3712
  385TIP3   OH222645   0.927   1.243  15.788 -0.7924  0.0486 -0.5211
  385TIP3    H122646   0.947   1.150  15.784  2.1542  0.6319 -1.5962
  385TIP3    H222647   1.006   1.287  15.755 -1.0138  3.0292  2.3367
  386TIP3   OH222648   0.523   6.057  11.747  0.0287  0.1491  0.4162
  386TIP3    H122649   0.535   5.968  11.715 -0.7024 -0.2956  1.3184
  386TIP3    H222650   0.504   6.047  11.840  0.5742  1.2962  0.6683
  387TIP3   OH222651   4.104   3.270  13.476 -0.2175 -0.1389  0.2965
  387TIP3    H122652   4.104   3.365  13.487 -1.1790 -0.1211  0.2062
  387TIP3    H222653   4.014   3.244  13.497  0.2160 -1.1038  0.9819
  388TIP3   OH222654   2.472   2.324  15.969  0.2822  0.5870  0.6021
  388TIP3    H122655   2.438   2.285  16.049  0.5651 -0.3017  0.2952
  388TIP3    H222656   2.566   2.303  15.970 -0.1273 -1.7715 -1.2345
  389TIP3   OH222657   2.551   1.925   5.207  0.0625 -0.3788  0.1417
  389TIP3    H122658   2.506   1.887   5.132 -0.3531  0.6028 -0.1227
  389TIP3    H222659   2.578   1.850   5.259  0.0808 -1.0699 -0.8265
  390TIP3   OH222660   3.442   0.454   1.830  0.1394  0.0669  0.5501
  390TIP3    H122661   3.512   0.517   1.846 -0.5457  0.5508  1.7707
  390TIP3    H222662   3.483   0.369   1.838  0.4428  0.3397  2.0233
  391TIP3   OH222663   2.579   4.486   3.161  0.1580  0.3862 -0.4822
  391TIP3    H122664   2.645   4.442   3.108  0.1619  0.1983 -0.3255
  391TIP3    H222665   2.568   4.572   3.121  0.4777  0.4070 -0.5273
  392TIP3   OH222666   0.685   4.902  15.811  0.1014 -0.4891 -0.4202
  392TIP3    H122667   0.690   4.909  15.716  0.4921  1.1777 -0.3083
  392TIP3    H222668   0.767   4.860  15.837 -0.6492 -2.3358 -0.8916
  393TIP3   OH222669   4.434   0.224  16.870 -0.3408  0.0279  0.3370
  393TIP3    H122670   4.418   0.150  16.928  1.1094  0.1618  0.9444
  393TIP3    H222671   4.368   0.289  16.894  0.4805  0.2494  2.1631
  394TIP3   OH222672   5.908   0.958   1.007  0.6276  0.7960  0.1234
  394TIP3    H122673   5.912   0.863   1.011 -0.7734  0.6456 -1.0743
  394TIP3    H222674   5.886   0.986   1.096  0.1068 -0.0686  0.2703
  395TIP3   OH222675   2.553   3.120   5.144  0.5642 -0.2123  0.3091
  395TIP3    H122676   2.532   3.213   5.135 -0.4010 -0.4108  0.3859
  395TIP3    H222677   2.557   3.087   5.054 -1.2197 -0.5305  0.3149
  396TIP3   OH222678   4.315   3.691  16.708  0.3324 -0.1311 -0.2891
  396TIP3    H122679   4.324   3.710  16.802  0.4153  1.8514 -0.6593
  396TIP3    H222680   4.363   3.609  16.696  0.4862 -0.3211  1.3612
  397TIP3   OH222681   6.570   5.041   5.017 -0.0869  0.7430  0.3201
  397TIP3    H122682   6.625   5.119   5.006  0.5855  0.4675  1.6112
  397TIP3    H222683   6.622   4.969   4.980 -0.0476  0.6519  0.5553
  398TIP3   OH222684   2.629   5.237  13.005  1.1419  0.3533  0.2943
  398TIP3    H122685   2.603   5.322  12.971  0.1907 -0.7839 -2.0961
  398TIP3    H222686   2.681   5.256  13.083  0.3938  3.0537  0.2219
  399TIP3   OH222687   6.650   5.935  16.788  0.0794  0.2045  0.1293
  399TIP3    H122688   6.641   5.905  16.878  2.3573 -1.2653 -0.0562
  399TIP3    H222689   6.675   5.856  16.739 -0.0068  1.1934 -1.5775
  400TIP3   OH222690   4.729   2.416  17.201 -0.6813  0.2797  0.1193
  400TIP3    H122691   4.764   2.337  17.161 -0.5194 -1.0145  2.6601
  400TIP3    H222692   4.651   2.387  17.248 -0.2864  1.5025  1.6070
  401TIP3   OH222693   5.274   5.536  15.454  0.7640 -0.0881 -0.2510
  401TIP3    H122694   5.198   5.585  15.423  1.5936  1.7513  0.4636
  401TIP3    H222695   5.281   5.559  15.547  2.2670 -0.0739 -0.3497
  402TIP3   OH222696   2.732   3.031  10.955 -0.1403  0.0585  0.3846
  402TIP3    H122697   2.787   2.957  10.980  1.5233  1.8392  2.4239
  402TIP3    H222698   2.793   3.097  10.924 -1.5875  0.5902 -1.5022
  403TIP3   OH222699   6.029   5.152   4.836  0.1893  0.0568  0.3144
  403TIP3    H122700   5.947   5.159   4.885 -0.0617  1.0069 -0.2131
  403TIP3    H222701   6.031   5.231   4.781 -0.1875 -1.5574 -2.1805
  404TIP3   OH222702   4.813   5.456  17.013 -0.1522 -0.0523  0.3827
  404TIP3    H122703   4.725   5.483  16.988 -0.1745 -1.3030 -1.0360
  404TIP3    H222704   4.809   5.361  17.016  0.8677 -0.0792  1.4816
  405TIP3   OH222705   6.329   0.366   1.698 -0.2156  0.2132  0.4253
  405TIP3    H122706   6.373   0.447   1.673 -0.4845 -0.3791 -2.2232
  405TIP3    H222707   6.399   0.308   1.728  0.2534  0.7073  0.2998
  406TIP3   OH222708   3.540   6.213  16.197  0.1354 -0.0509  0.0271
  406TIP3    H122709   3.458   6.168  16.217  0.0592  0.3115  0.5539
  406TIP3    H222710   3.608   6.152  16.226  0.0263  0.7063  2.0136
  407TIP3   OH222711   3.185   2.918   5.387 -0.1870  0.0099 -0.5156
  407TIP3    H122712   3.202   3.001   5.430 -0.0737  0.2731 -1.0636
  407TIP3    H222713   3.218   2.929   5.298 -2.0489  0.1147 -1.2368
  408TIP3   OH222714   1.467   2.539  13.841 -0.1644  0.7565 -0.2285
  408TIP3    H122715   1.451   2.444  13.846 -1.0245  0.8724 -0.5493
  408TIP3    H222716   1.552   2.547  13.799 -0.0257  0.1198 -0.0769
  409TIP3   OH222717   2.441   1.644  14.282  0.8783  0.1724  0.0788
  409TIP3    H122718   2.510   1.591  14.243 -2.1758 -2.3867 -2.3885
  409TIP3    H222719   2.421   1.711  14.217  0.4391  0.3430  0.3796
  410TIP3   OH222720   4.042   6.801   0.840  0.4226 -0.4708  0.2620
  410TIP3    H122721   4.001   6.748   0.772 -0.4295  0.7056 -0.1752
  410TIP3    H222722   3.997   6.885   0.835  0.7947 -0.1534  1.8560
  411TIP3   OH222723   3.855   5.981  12.753  0.4002  0.0624  0.2163
  411TIP3    H122724   3.857   6.002  12.660  2.6069 -0.0335  0.2040
  411TIP3    H222725   3.921   6.038  12.792 -2.1171  1.8650  2.1738
  412TIP3   OH222726   3.245   4.207   1.328 -0.4737  0.7952  0.0651
  412TIP3    H122727   3.206   4.131   1.373  2.2371 -0.7636  0.0206
  412TIP3    H222728   3.198   4.212   1.245 -1.9592  0.3559  0.8335
  413TIP3   OH222729   2.283   3.922   5.756  0.0298  0.5512 -0.2481
  413TIP3    H122730   2.374   3.899   5.736  0.4987  2.1572 -0.1167
  413TIP3    H222731   2.240   3.838   5.773  2.1859 -0.1541  2.6058
  414TIP3   OH222732   2.069   0.246   5.795 -0.6014 -0.8477  0.2971
  414TIP3    H122733   2.058   0.216   5.886 -2.1056  0.3473  0.5446
  414TIP3    H222734   2.100   0.336   5.803 -0.6586 -0.7623 -0.3847
  415TIP3   OH222735   4.519   1.364  12.200 -0.0366  0.3723 -0.4990
  415TIP3    H122736   4.424   1.358  12.185 -0.2827  0.4046  0.9152
  415TIP3    H222737   4.541   1.454  12.178 -0.7149  0.9470  1.0207
  416TIP3   OH222738   0.308   6.725  13.567  0.9401 -0.1953  0.1242
  416TIP3    H122739   0.313   6.632  13.588  0.6506 -0.2749 -0.1619
  416TIP3    H222740   0.353   6.733  13.483  1.8673  0.0831  0.6346
  417TIP3   OH222741   4.079   4.050  14.914 -0.0264 -0.3785  0.0524
  417TIP3    H122742   3.991   4.028  14.946  0.1535 -1.1027  0.0534
  417TIP3    H222743   4.077   4.145  14.905 -1.1230 -0.4589 -0.8476
  418TIP3   OH222744   3.530   6.219   2.349 -0.5113 -0.2097  0.5290
  418TIP3    H122745   3.555   6.268   2.428  2.0220  0.1323 -0.3984
  418TIP3    H222746   3.483   6.143   2.383 -0.0660  0.2511  2.3286
  419TIP3   OH222747   5.415   3.731   6.699  0.4870  0.6305  0.0636
  419TIP3    H122748   5.506   3.740   6.727  0.1250  0.2308  1.4530
  419TIP3    H222749   5.421   3.719   6.604  2.1756 -2.8088  0.4428
  420TIP3   OH222750   6.194   6.371   5.804  0.0007  0.5928  0.5202
  420TIP3    H122751   6.175   6.366   5.711  3.0313 -3.6112 -0.1906
  420TIP3    H222752   6.133   6.309   5.845  1.0635 -0.3947  0.6755
  421TIP3   OH222753   0.695   0.430   6.111  0.2265 -0.1334  0.0193
  421TIP3    H122754   0.663   0.473   6.190  1.0162 -1.5561  1.1821
  421TIP3    H222755   0.682   0.493   6.041  0.0935  1.4290  1.4013
  422TIP3   OH222756   6.350   5.378  12.521 -0.0710 -0.2359  0.7780
  422TIP3    H122757   6.311   5.426  12.594  0.8319 -0.1173  1.1964
  422TIP3    H222758   6.392   5.303  12.562 -3.0334 -2.5304 -0.0195
  423TIP3   OH222759   0.712   2.932   0.407  0.3437 -0.3302  0.5918
  423TIP3    H122760   0.758   2.849   0.415  1.1295 -0.1353 -1.2951
  423TIP3    H222761   0.763   2.993   0.461  0.0209 -0.9500  1.6198
  424TIP3   OH222762   0.932   0.929  14.730  0.6600  0.0532 -0.4049
  424TIP3    H122763   0.939   0.876  14.651  0.7629 -1.1104  0.3588
  424TIP3    H222764   0.984   0.882  14.795  1.1591  1.3645  0.1683
  425TIP3   OH222765   4.111   6.180   2.541 -0.7830  0.1512 -0.0913
  425TIP3    H122766   4.047   6.249   2.528 -0.9611  0.3748  1.6761
  425TIP3    H222767   4.097   6.119   2.468 -1.1008  1.5979 -1.2698
  426TIP3   OH222768   6.449   5.016  14.505  0.1537  0.1996  0.3071
  426TIP3    H122769   6.520   5.064  14.546  0.1506  0.0138  0.5341
  426TIP3    H222770   6.394   5.083  14.464  1.3880  0.2336 -1.3754
  427TIP3   OH222771   1.999   6.554   5.789  0.3672  0.0829 -0.3619
  427TIP3    H122772   1.974   6.646   5.801  1.7955  0.6154 -1.2064
  427TIP3    H222773   2.034   6.527   5.873 -0.6739  0.0761  0.0927
  428TIP3   OH222774   1.736   2.607  15.205 -0.4017  0.3261  0.2723
  428TIP3    H122775   1.787   2.534  15.241  0.1221  0.5047 -0.1092
  428TIP3    H222776   1.669   2.623  15.271 -1.2097 -1.2181 -0.1246
  429TIP3   OH222777   6.150   1.418  15.467 -0.6004 -0.0694 -0.0690
  429TIP3    H122778   6.245   1.427  15.478  0.3141 -2.7176 -3.7751
  429TIP3    H222779   6.123   1.364  15.542  1.2678 -0.9760  0.0249
  430TIP3   OH222780   3.408   3.272  15.284  0.4086 -0.1696 -0.6280
  430TIP3    H122781   3.398   3.354  15.236  0.4751 -1.3151 -2.6768
  430TIP3    H222782   3.326   3.262  15.332  1.2258  2.1579  1.5513
  431TIP3   OH222783   0.966   0.515   3.903 -0.3054 -0.3125  0.4428
  431TIP3    H122784   0.921   0.597   3.923 -1.1770 -1.1820  2.3135
  431TIP3    H222785   1.039   0.512   3.965  0.3087 -0.5147 -0.2722
  432TIP3   OH222786   3.574   1.109   4.259  0.2143  0.0820  0.6056
  432TIP3    H122787   3.494   1.124   4.310  0.0071 -2.4697  1.1596
  432TIP3    H222788   3.546   1.113   4.168 -0.1191  1.1515  0.7378
  433TIP3   OH222789   4.662   0.995  16.789  0.8767 -0.1966  0.4009
  433TIP3    H122790   4.713   1.019  16.867  2.1244  0.1379 -0.4946
  433TIP3    H222791   4.584   0.952  16.825  0.0715  2.3327  1.9592
  434TIP3   OH222792   2.244   0.494  15.767  0.9781 -0.6159 -0.1267
  434TIP3    H122793   2.199   0.534  15.692 -0.2949  2.1245  1.8902
  434TIP3    H222794   2.177   0.439  15.808  0.5872  0.4631  0.7441
  435TIP3   OH222795   3.422   6.148  14.405 -0.0783 -0.3757 -0.6046
  435TIP3    H122796   3.374   6.078  14.450 -0.5843 -0.8288 -1.8163
  435TIP3    H222797   3.443   6.211  14.474 -3.2751  0.3390 -0.1007
  436TIP3   OH222798   6.448   0.385  14.466  0.3391 -0.2051  0.0722
  436TIP3    H122799   6.447   0.403  14.560  0.6735 -0.2994  0.0945
  436TIP3    H222800   6.539   0.363  14.447  0.8970  2.5265 -0.7866
  437TIP3   OH222801   6.333   6.238  11.073  0.3272 -0.1380 -0.3056
  437TIP3    H122802   6.361   6.175  11.007  0.1757 -0.8226  0.2722
  437TIP3    H222803   6.387   6.315  11.057  1.0940 -0.7068 -0.4972
  438TIP3   OH222804   2.395   6.356   2.760 -0.1200 -0.4551 -0.3213
  438TIP3    H122805   2.303   6.370   2.740 -0.2632 -0.5878  0.2239
  438TIP3    H222806   2.401   6.262   2.777 -0.1075 -0.2759  0.7325
  439TIP3   OH222807   4.157   1.920  14.401 -0.6359  0.2180  0.5571
  439TIP3    H122808   4.249   1.896  14.398 -0.6823  0.1015 -0.2486
  439TIP3    H222809   4.152   2.005  14.356 -0.8741  0.3797  0.8834
  440TIP3   OH222810   0.192   4.138  12.175 -0.7629  0.5794  0.4486
  440TIP3    H122811   0.104   4.105  12.195 -2.0340  2.6763 -1.2866
  440TIP3    H222812   0.195   4.224  12.216 -0.2739  1.3615 -1.1740
  441TIP3   OH222813   3.111   5.944   5.422  1.0573 -0.3904 -0.0492
  441TIP3    H122814   3.045   5.884   5.388  0.4720 -1.2048  2.2912
  441TIP3    H222815   3.062   6.024   5.444  1.4243  0.1231 -1.0226
  442TIP3   OH222816   5.341   6.702   6.295  0.3348  0.0307 -0.1820
  442TIP3    H122817   5.342   6.798   6.294  2.5632  0.0842  0.8162
  442TIP3    H222818   5.356   6.679   6.387  0.4459 -1.2808 -0.5078
  443TIP3   OH222819   5.636   0.860  11.732 -0.0652 -0.0092 -0.6587
  443TIP3    H122820   5.707   0.890  11.788 -0.1746  0.8132 -0.9504
  443TIP3    H222821   5.561   0.914  11.757 -0.5348 -0.7186 -0.5037
  444TIP3   OH222822   1.336   5.937  13.872 -0.3611 -0.3527  0.2700
  444TIP3    H122823   1.339   5.971  13.783 -0.5625  0.3323  0.5185
  444TIP3    H222824   1.259   5.880  13.873  0.3253 -1.3112 -0.3150
  445TIP3   OH222825   6.285   3.651   4.842  0.4287 -0.2949 -0.7220
  445TIP3    H122826   6.231   3.727   4.821  0.7957  0.8207  1.9686
  445TIP3    H222827   6.223   3.581   4.861 -0.1361  0.7275  1.4604
  446TIP3   OH222828   4.004   3.282   0.107  0.1081 -0.0177  0.1532
  446TIP3    H122829   3.934   3.223   0.134  1.0787 -1.0082  0.5586
  446TIP3    H222830   4.079   3.257   0.160  0.8136  0.9642 -0.3397
  447TIP3   OH222831   5.843   1.897   4.837  0.0187 -0.0578  0.9167
  447TIP3    H122832   5.830   1.805   4.815 -0.9529 -0.0179  1.2750
  447TIP3    H222833   5.786   1.944   4.777 -0.4370  0.2273  1.5670
  448TIP3   OH222834   5.871   4.336  16.735 -0.0418  0.1989  0.3611
  448TIP3    H122835   5.898   4.308  16.822 -0.5196  2.5328  1.3090
  448TIP3    H222836   5.907   4.424  16.725  0.0514 -0.0194 -1.8499
  449TIP3   OH222837   6.665   0.625   5.890 -0.0114 -0.3589 -0.1189
  449TIP3    H122838   6.663   0.574   5.809 -1.4634 -1.1332  0.3680
  449TIP3    H222839   6.573   0.644   5.909  0.4631  2.5525 -0.3061
  450TIP3   OH222840   1.889   3.955   1.449  0.0344  0.3845  0.3734
  450TIP3    H122841   1.984   3.953   1.436  0.3314  0.6763  2.2311
  450TIP3    H222842   1.870   4.046   1.471 -0.4124 -0.0161  1.6995
  451TIP3   OH222843   6.228   3.266  16.825 -0.2577 -0.0229 -0.1407
  451TIP3    H122844   6.242   3.255  16.919 -0.7046  1.2778  0.0961
  451TIP3    H222845   6.312   3.298  16.792  0.0729 -1.0175 -0.2930
  452TIP3   OH222846   4.807   2.824  12.126  0.0987 -0.3067  0.6589
  452TIP3    H122847   4.849   2.833  12.212  0.7258  0.8046  0.2551
  452TIP3    H222848   4.841   2.898  12.075  0.7462 -1.6672 -0.9686
  453TIP3   OH222849   1.697   2.660  14.252  0.4789 -0.1694  0.1215
  453TIP3    H122850   1.690   2.571  14.216 -2.1741 -0.9250  2.1991
  453TIP3    H222851   1.606   2.688  14.264  1.2501  2.6769  0.0162
  454TIP3   OH222852   6.111   3.760  16.971 -0.8172  0.0187  0.4252
  454TIP3    H122853   6.024   3.738  17.005 -0.8061 -0.5341  0.1180
  454TIP3    H222854   6.096   3.826  16.904 -0.7254  2.1444  2.3691
  455TIP3   OH222855   2.605   5.114  16.150  0.0122  0.7312 -0.0929
  455TIP3    H122856   2.655   5.176  16.204  0.1815 -0.7263  1.5252
  455TIP3    H222857   2.664   5.039  16.140 -0.7217  0.2273 -0.7486
  456TIP3   OH222858   6.269   1.795  13.221 -0.0227  0.0456 -0.9368
  456TIP3    H122859   6.235   1.710  13.192 -1.1214  0.4864 -0.9984
  456TIP3    H222860   6.281   1.785  13.316  1.5114 -0.7070 -1.1775
  457TIP3   OH222861   1.491   3.680   5.177  0.0985  0.6230  0.1804
  457TIP3    H122862   1.473   3.711   5.266 -0.8439  0.5796  0.0147
  457TIP3    H222863   1.536   3.753   5.134  2.0667  0.0683  1.1648
  458TIP3   OH222864   2.335   6.780   5.164 -1.0187 -0.9048 -0.0396
  458TIP3    H122865   2.350   6.780   5.259 -1.0347  2.0675  0.0601
  458TIP3    H222866   2.406   6.833   5.129 -1.2563 -1.6201 -1.6642
  459TIP3   OH222867   4.588   3.299   3.386 -0.2784  0.4977 -0.1346
  459TIP3    H122868   4.541   3.377   3.356 -1.8431 -1.0067 -1.8251
  459TIP3    H222869   4.525   3.254   3.442  0.3502  0.0853  0.2456
  460TIP3   OH222870   4.454   5.624  10.268 -0.4457  0.0577 -0.0466
  460TIP3    H122871   4.523   5.597  10.328 -1.2235  2.1954  1.9428
  460TIP3    H222872   4.393   5.674  10.322 -3.3869 -1.3395 -1.7756
  461TIP3   OH222873   3.490   4.821  12.080 -0.3957 -0.1453 -0.3503
  461TIP3    H122874   3.403   4.785  12.065 -1.0548  1.2726 -0.1432
  461TIP3    H222875   3.489   4.847  12.173 -0.2563  1.1412 -0.6945
  462TIP3   OH222876   0.949   3.256   5.125  0.3987  0.0550  0.2925
  462TIP3    H122877   1.035   3.294   5.143  0.1724  0.6936  0.0412
  462TIP3    H222878   0.892   3.331   5.113  0.5936 -0.2487 -3.5469
  463TIP3   OH222879   5.213   4.962  16.916  0.2250  0.0993 -0.0453
  463TIP3    H122880   5.197   5.054  16.896  0.1146  0.5832  2.0592
  463TIP3    H222881   5.308   4.952  16.910  0.2555  0.3970 -0.0506
  464TIP3   OH222882   2.115   6.629   0.488 -0.1301 -0.1628  0.3013
  464TIP3    H122883   2.024   6.650   0.509 -0.3974 -0.8197 -0.1480
  464TIP3    H222884   2.110   6.547   0.438  0.8916 -1.6869  2.5590
  465TIP3   OH222885   2.272   2.868   5.391  0.6726 -0.2287 -0.6306
  465TIP3    H122886   2.194   2.870   5.336 -1.2539  0.2085  1.9318
  465TIP3    H222887   2.272   2.952   5.437  1.5442 -0.9820  0.8496
  466TIP3   OH222888   1.435   5.964  14.755 -0.1312 -1.0798 -0.3531
  466TIP3    H122889   1.355   5.981  14.705  0.4690 -1.8252 -1.6341
  466TIP3    H222890   1.404   5.936  14.841 -1.2008  0.7071 -0.1082
  467TIP3   OH222891   1.426   6.503  14.777  0.3239 -0.7461 -0.1668
  467TIP3    H122892   1.449   6.410  14.787  0.6676 -0.5567  0.9392
  467TIP3    H222893   1.482   6.533  14.705  0.3493 -1.3498 -0.4080
  468TIP3   OH222894   6.259   0.637   5.803 -0.0785  0.0493  0.6977
  468TIP3    H122895   6.178   0.588   5.789  1.7725 -2.9123 -0.6056
  468TIP3    H222896   6.292   0.654   5.714  1.8617 -0.9937  1.1546
  469TIP3   OH222897   4.231   6.338   0.378  0.3321 -0.3625  0.4208
  469TIP3    H122898   4.241   6.280   0.454  1.2257  0.0818  0.6543
  469TIP3    H222899   4.232   6.426   0.415  2.2400 -0.0773 -0.2094
  470TIP3   OH222900   5.750   2.449   3.426 -0.6095 -0.0847 -0.0107
  470TIP3    H122901   5.835   2.482   3.453 -0.4826  0.6723 -1.2558
  470TIP3    H222902   5.707   2.423   3.507  0.3546  0.6127  0.7381
  471TIP3   OH222903   0.437   4.093  15.941 -0.3412 -0.2182 -0.3548
  471TIP3    H122904   0.378   4.020  15.954 -2.6696  1.3587 -1.3642
  471TIP3    H222905   0.452   4.095  15.846  1.3499 -0.5605 -0.1226
  472TIP3   OH222906   1.511   1.074  14.708 -0.3478  0.3259 -0.0012
  472TIP3    H122907   1.529   1.042  14.619 -1.2567  1.2249 -0.5464
  472TIP3    H222908   1.532   1.001  14.765  0.5695 -0.1677 -0.9396
  473TIP3   OH222909   2.632   5.782   4.631  0.3102 -0.3802 -0.3256
  473TIP3    H122910   2.550   5.737   4.651  0.3128 -0.4340 -0.4341
  473TIP3    H222911   2.616   5.826   4.548 -0.0911  0.8187  0.3596
  474TIP3   OH222912   3.561   3.699  10.517 -0.6413  0.5170  0.3177
  474TIP3    H122913   3.651   3.673  10.537  0.1583  1.7489 -1.3540
  474TIP3    H222914   3.506   3.647  10.576  1.0860 -1.2857  0.4165
  475TIP3   OH222915   6.631   4.408  15.134  0.2856 -0.0395 -0.1488
  475TIP3    H122916   6.675   4.486  15.101 -1.1752  1.2907  0.9418
  475TIP3    H222917   6.639   4.413  15.229 -0.7239 -0.6636 -0.0066
  476TIP3   OH222918   2.267   5.485   5.259  0.2513 -0.4236  0.0120
  476TIP3    H122919   2.259   5.430   5.337 -0.5018  0.5527  0.6483
  476TIP3    H222920   2.358   5.473   5.231  0.7995 -0.1211  1.5593
  477TIP3   OH222921   6.082   2.467   1.539  0.2585  0.4629 -0.7781
  477TIP3    H122922   6.123   2.551   1.516 -1.5439  2.0896  1.4619
  477TIP3    H222923   5.996   2.470   1.497 -0.3689  0.4261  0.4493
  478TIP3   OH222924   5.795   3.128  12.712  0.5894 -0.5515  0.0492
  478TIP3    H122925   5.714   3.080  12.729  0.3457  0.1724  0.9682
  478TIP3    H222926   5.771   3.220  12.722  0.9692 -0.1717 -2.0306
  479TIP3   OH222927   1.436   6.610   4.346 -0.1790  0.1804 -0.4087
  479TIP3    H122928   1.449   6.680   4.282 -1.4584 -0.2237 -1.1476
  479TIP3    H222929   1.369   6.644   4.406 -0.4882 -0.2298 -0.5165
  480TIP3   OH222930   6.785   1.472   2.341 -0.5600 -0.4794 -0.0486
  480TIP3    H122931   6.761   1.486   2.250  1.5690 -0.1848 -0.6062
  480TIP3    H222932   6.772   1.378   2.355  0.6215 -0.8281 -1.1538
  481TIP3   OH222933   5.112   1.663  11.470 -0.0993  0.2261  0.4587
  481TIP3    H122934   5.158   1.659  11.386 -1.2385 -1.7642 -0.1455
  481TIP3    H222935   5.021   1.682  11.446 -0.2510  0.6140  1.3202
  482TIP3   OH222936   1.153   6.247  12.031 -0.2696 -0.3637 -0.0371
  482TIP3    H122937   1.187   6.273  11.946  0.6060 -0.9321  0.1189
  482TIP3    H222938   1.060   6.268  12.028 -0.1534  0.0547 -0.9574
  483TIP3   OH222939   4.656   0.197  12.007  0.1130 -0.5704  0.7852
  483TIP3    H122940   4.717   0.245  11.951 -0.5156 -0.9384 -0.2437
  483TIP3    H222941   4.705   0.120  12.037 -0.0537 -1.2486 -0.6295
  484TIP3   OH222942   3.470   4.359   4.347  0.6574  0.1864  0.8127
  484TIP3    H122943   3.445   4.414   4.272  1.8598  1.8501  1.5680
  484TIP3    H222944   3.442   4.409   4.423 -3.4222 -2.8597  1.6170
  485TIP3   OH222945   4.946   1.128   4.128  0.2496  0.7643 -0.2837
  485TIP3    H122946   4.917   1.168   4.211  1.9037 -1.4018  1.4718
  485TIP3    H222947   4.941   1.034   4.144  3.0135  0.2831 -1.7337
  486TIP3   OH222948   4.934   6.772  16.822 -0.5129  0.4301  0.1065
  486TIP3    H122949   4.940   6.681  16.792 -0.3904  1.2326 -2.6182
  486TIP3    H222950   4.841   6.784  16.842 -1.1272  0.4068 -2.3383
  487TIP3   OH222951   1.965   0.526   0.430 -0.3727 -0.0015  0.4607
  487TIP3    H122952   2.043   0.567   0.394 -0.0612 -1.4188 -0.5374
  487TIP3    H222953   1.970   0.435   0.403 -2.0786 -0.2656  0.8869
  488TIP3   OH222954   6.563   6.100  15.118  0.2100 -0.1911  0.2923
  488TIP3    H122955   6.628   6.164  15.090  0.9108 -0.8283  0.4334
  488TIP3    H222956   6.491   6.110  15.056  0.0622  1.1221  0.6589
  489TIP3   OH222957   2.779   1.540  14.330 -0.1434  0.1841  0.0697
  489TIP3    H122958   2.867   1.573  14.311  0.5491 -1.2330  0.6463
  489TIP3    H222959   2.737   1.532  14.245  0.3460  0.7061 -0.2247
  490TIP3   OH222960   4.993   0.627  11.657 -0.0532 -0.2259  1.2205
  490TIP3    H122961   4.954   0.696  11.603 -1.0191 -1.3313  0.4445
  490TIP3    H222962   5.087   0.637  11.644 -0.2235 -1.5965 -2.3318
  491TIP3   OH222963   5.384   6.210  13.006 -0.1168 -0.0227 -0.0915
  491TIP3    H122964   5.464   6.200  13.056  1.2544  1.8726 -1.7389
  491TIP3    H222965   5.360   6.121  12.981  0.9186 -0.7015  1.2247
  492TIP3   OH222966   5.535   0.152  15.404  0.1168 -0.3877  0.1939
  492TIP3    H122967   5.457   0.109  15.437  0.6643 -0.4640  1.4273
  492TIP3    H222968   5.602   0.136  15.470  1.5656 -1.4711 -1.4460
  493TIP3   OH222969   3.179   1.559   4.363 -0.5490 -1.0465  0.1847
  493TIP3    H122970   3.204   1.598   4.447  2.4746  0.5834 -1.3365
  493TIP3    H222971   3.138   1.630   4.314 -0.3672 -1.3908 -0.4813
  494TIP3   OH222972   5.630   3.389   5.750 -0.4153 -0.0557 -0.1686
  494TIP3    H122973   5.581   3.429   5.823 -1.0993 -0.4110 -0.4233
  494TIP3    H222974   5.580   3.310   5.729 -0.5549  0.3510 -1.4113
  495TIP3   OH222975   5.996   2.936  10.841 -0.5714  0.1742 -0.0921
  495TIP3    H122976   6.048   2.856  10.838 -0.8334  0.0190 -1.1478
  495TIP3    H222977   6.012   2.977  10.756 -2.2934  0.0312 -0.5213
  496TIP3   OH222978   1.495   2.979  15.627  0.0448 -0.1847  0.1535
  496TIP3    H122979   1.400   2.988  15.633 -0.1605 -0.9094 -1.4754
  496TIP3    H222980   1.528   3.069  15.632 -0.5759 -0.0285  2.2777
  497TIP3   OH222981   4.275   2.361   5.751 -0.2444 -0.5146  0.1660
  497TIP3    H122982   4.343   2.375   5.817 -0.1255  1.6504 -0.3454
  497TIP3    H222983   4.304   2.411   5.675 -2.6708  1.0815  0.1705
  498TIP3   OH222984   2.864   5.419  11.240 -0.5218 -0.7352 -0.0746
  498TIP3    H122985   2.815   5.458  11.169 -0.2128  0.9404  0.5932
  498TIP3    H222986   2.935   5.371  11.197 -1.2677 -1.1027 -0.9328
  499TIP3   OH222987   4.948   1.879   0.494 -0.5752 -0.0858 -0.4810
  499TIP3    H122988   5.009   1.950   0.516 -1.1936  1.6688 -3.8572
  499TIP3    H222989   5.003   1.800   0.493  0.5385  0.5849  1.3992
  500TIP3   OH222990   3.129   4.409  13.826  0.4516  0.0705  0.6301
  500TIP3    H122991   3.107   4.351  13.753  1.2435  0.6231 -0.0638
  500TIP3    H222992   3.048   4.415  13.877  0.0596 -0.8030  0.1382
  501TIP3   OH222993   2.385   5.908  11.430 -0.0317 -0.2223 -0.4249
  501TIP3    H122994   2.349   5.991  11.398 -1.2538 -1.0063 -1.2028
  501TIP3    H222995   2.308   5.854  11.445  0.7881 -1.6320 -1.1262
  502TIP3   OH222996   1.660   0.927  12.860 -0.1460  0.4305 -0.0145
  502TIP3    H122997   1.650   0.838  12.893 -1.6518  0.6842  0.2698
  502TIP3    H222998   1.672   0.916  12.765  1.1691 -0.1366  0.2038
  503TIP3   OH222999   6.195   6.350  14.378 -0.1894 -0.3820 -0.0831
  503TIP3    H123000   6.248   6.429  14.371  0.5323 -0.9519 -1.3494
  503TIP3    H223001   6.118   6.368  14.325  0.6705 -1.0422 -1.6230
  504TIP3   OH223002   0.016   0.379   2.416  0.0339 -0.5934 -0.6151
  504TIP3    H123003   0.067   0.437   2.471  0.9250 -1.4459 -0.5162
  504TIP3    H223004  -0.075   0.394   2.443  0.2698  0.5487 -0.4211
  505TIP3   OH223005   3.683   1.877   1.980  0.7082 -0.3233 -0.0421
  505TIP3    H123006   3.757   1.826   2.012  0.2582 -1.3843 -0.6349
  505TIP3    H223007   3.710   1.907   1.893  0.1840 -1.3306 -0.5694
  506TIP3   OH223008   2.468   2.156   3.136  0.1346 -0.2730  0.0574
  506TIP3    H123009   2.439   2.092   3.201 -1.3632 -0.4659 -0.7464
  506TIP3    H223010   2.528   2.107   3.080 -0.5327 -0.8262 -0.1917
  507TIP3   OH223011   3.546   5.692  16.579 -0.0853 -0.2387 -0.2603
  507TIP3    H123012   3.510   5.607  16.602  2.2473 -0.8679  1.5223
  507TIP3    H223013   3.605   5.676  16.505 -2.0999  0.4986 -2.1218
  508TIP3   OH223014   4.923   1.388   3.558  0.3594 -0.0667 -0.0613
  508TIP3    H123015   4.979   1.418   3.629  0.8781  0.2003 -0.5692
  508TIP3    H223016   4.849   1.448   3.557 -1.0439 -1.6291  1.9411
  509TIP3   OH223017   2.490   4.874  15.410 -0.8331 -0.5490  0.3798
  509TIP3    H123018   2.445   4.893  15.328 -0.7717 -1.8260  0.0249
  509TIP3    H223019   2.489   4.779  15.416 -0.2004 -0.5018  1.5120
  510TIP3   OH223020   5.687   6.363   3.422  0.3624  0.2025  0.1362
  510TIP3    H123021   5.750   6.308   3.468 -1.4751 -0.5052  1.9447
  510TIP3    H223022   5.740   6.432   3.382  2.2650 -0.4011  1.4999
  511TIP3   OH223023   5.454   6.659  10.791 -0.2091  0.4348  0.0599
  511TIP3    H123024   5.475   6.738  10.741  0.7987 -1.5874 -3.0597
  511TIP3    H223025   5.359   6.653  10.789 -0.2520  1.2116 -0.3144
  512TIP3   OH223026   2.779   1.974   0.936 -0.5391  0.1428 -0.2832
  512TIP3    H123027   2.868   1.989   0.903 -0.3400  0.9104  0.5623
  512TIP3    H223028   2.784   1.889   0.981 -0.2179  0.2122 -0.1845
  513TIP3   OH223029   2.481   3.725  11.885  0.1177  0.4581  0.0460
  513TIP3    H123030   2.492   3.748  11.792 -1.5252  0.0439 -0.2737
  513TIP3    H223031   2.399   3.677  11.888  1.0779 -1.2074  1.4390
  514TIP3   OH223032   4.442   3.461   1.313  0.5135 -0.1944  0.0121
  514TIP3    H123033   4.360   3.430   1.275 -0.3800  2.2087 -0.1874
  514TIP3    H223034   4.471   3.389   1.369 -1.1512 -1.5197 -0.7134
  515TIP3   OH223035   4.734   0.635  13.113 -0.2784 -0.0473 -0.4465
  515TIP3    H123036   4.673   0.568  13.143 -0.9348  1.6362  2.2104
  515TIP3    H223037   4.807   0.630  13.174  0.0919  1.0645 -0.7797
  516TIP3   OH223038   2.642   3.803  16.549  0.2190 -0.5397 -0.1593
  516TIP3    H123039   2.557   3.836  16.578 -0.6002 -1.5277 -1.3526
  516TIP3    H223040   2.659   3.849  16.467  0.5588 -0.7829 -0.2277
  517TIP3   OH223041   5.659   4.103   6.241 -0.1557 -0.1312 -0.3448
  517TIP3    H123042   5.675   4.164   6.169 -0.5114 -0.5902 -0.8201
  517TIP3    H223043   5.721   4.032   6.225  1.3291  0.7830  1.0540
  518TIP3   OH223044   2.694   5.560   0.922  0.2984  0.5005  0.2017
  518TIP3    H123045   2.623   5.610   0.883 -1.1294 -0.4919  1.3995
  518TIP3    H223046   2.718   5.497   0.854 -1.0553 -0.1593  0.2919
  519TIP3   OH223047   2.207   2.449  14.856 -0.6666  0.1324  0.5043
  519TIP3    H123048   2.256   2.516  14.809  1.7063 -1.6491  0.2428
  519TIP3    H223049   2.274   2.386  14.885 -2.7539 -2.1530  0.6719
  520TIP3   OH223050   1.954   2.530   6.226  0.1425  0.0214 -0.0338
  520TIP3    H123051   1.930   2.440   6.202 -1.4774  0.0029  1.4455
  520TIP3    H223052   2.012   2.559   6.155 -2.3384 -0.8443 -2.6206
  521TIP3   OH223053   6.165   3.221   6.146  0.3997  0.3098 -0.8171
  521TIP3    H123054   6.225   3.294   6.132  2.2811 -1.0406 -0.2612
  521TIP3    H223055   6.116   3.245   6.225  0.3435  1.3422 -1.1518
  522TIP3   OH223056   0.398   5.399  13.324 -0.2795  0.2225 -0.2032
  522TIP3    H123057   0.354   5.314  13.323  1.0390 -0.5552  1.7890
  522TIP3    H223058   0.331   5.461  13.354 -0.6093 -0.5617  0.7080
  523TIP3   OH223059   5.355   5.247  14.765 -0.2072  0.4952 -0.5929
  523TIP3    H123060   5.390   5.209  14.846  0.1874 -0.4793 -1.2028
  523TIP3    H223061   5.427   5.238  14.702 -1.5014 -1.5762 -1.8940
  524TIP3   OH223062   3.409   1.430   3.035  0.1085  0.8338  0.2115
  524TIP3    H123063   3.499   1.434   3.004  0.0167  0.4379 -0.1118
  524TIP3    H223064   3.385   1.338   3.029  0.7136  0.3914  3.2695
  525TIP3   OH223065   3.601   5.890   3.364  0.3883  0.1009 -0.1204
  525TIP3    H123066   3.551   5.855   3.290  0.3858  0.8734 -0.4932
  525TIP3    H223067   3.691   5.862   3.348  0.1613 -0.9835  0.3620
  526TIP3   OH223068   6.357   3.497  13.896 -0.3218  0.4427 -0.4928
  526TIP3    H123069   6.449   3.508  13.918 -0.3430 -0.6546  0.2048
  526TIP3    H223070   6.354   3.415  13.846 -0.8292  0.8402 -1.1282
  527TIP3   OH223071   3.977   3.099   0.435  0.1181  0.3020  0.3867
  527TIP3    H123072   4.054   3.051   0.466 -0.4248 -0.7338  0.1744
  527TIP3    H223073   4.006   3.191   0.432  0.9289  0.1226  1.5990
  528TIP3   OH223074   2.733   3.570  12.473 -0.5119 -0.1994  0.3371
  528TIP3    H123075   2.712   3.526  12.555 -0.4314 -1.7711 -0.4528
  528TIP3    H223076   2.680   3.526  12.407  0.4322  0.1128 -0.6639
  529TIP3   OH223077   1.094   0.214   4.707  0.3969  0.4975 -0.4600
  529TIP3    H123078   1.189   0.204   4.707  0.2153 -1.7246 -0.6889
  529TIP3    H223079   1.070   0.219   4.615  0.1337 -1.7602 -0.5903
  530TIP3   OH223080   0.385   3.658  16.815  0.0035 -0.6543  0.0431
  530TIP3    H123081   0.380   3.699  16.901 -0.1277 -0.2047 -0.1732
  530TIP3    H223082   0.398   3.565  16.833 -1.3608 -0.7646  0.5638
  531TIP3   OH223083   1.512   4.008   3.404 -0.5908 -0.0313  0.0665
  531TIP3    H123084   1.472   3.926   3.375 -0.9594  0.1667  0.0084
  531TIP3    H223085   1.598   3.982   3.438 -0.6425 -0.4207 -0.0918
  532TIP3   OH223086   4.926   4.470   0.215 -0.0669 -0.0397 -0.0047
  532TIP3    H123087   5.004   4.455   0.162 -0.4400  2.3059 -1.3460
  532TIP3    H223088   4.882   4.385   0.218  2.0649 -1.2220  0.1026
  533TIP3   OH223089   1.174   0.604  13.118  0.3744 -0.4495 -0.1090
  533TIP3    H123090   1.116   0.622  13.192 -0.3638  1.4008 -1.0694
  533TIP3    H223091   1.221   0.687  13.104 -0.7423 -0.1504 -2.7259
  534TIP3   OH223092   2.638   4.242  15.029 -0.4688 -0.1183  0.1068
  534TIP3    H123093   2.626   4.227  14.935 -0.1561 -0.6654  0.1531
  534TIP3    H223094   2.677   4.161  15.062 -1.0540 -0.1279  0.8020
  535TIP3   OH223095   1.137   5.354   5.028  0.3002  0.0559  0.2673
  535TIP3    H123096   1.224   5.390   5.046 -0.0230 -0.1955  2.6802
  535TIP3    H223097   1.077   5.427   5.042  0.0127 -0.1245 -0.0031
  536TIP3   OH223098   4.492   6.052  17.057 -0.2677  0.1909  0.5530
  536TIP3    H123099   4.534   6.116  17.114  0.4148 -1.3877  1.8918
  536TIP3    H223100   4.401   6.049  17.086 -0.9206  2.1673 -1.0469
  537TIP3   OH223101   6.304   3.413   0.647  0.1285 -0.4151  0.0610
  537TIP3    H123102   6.300   3.332   0.595 -0.2343 -1.6135  1.8490
  537TIP3    H223103   6.395   3.419   0.674  0.1052 -0.3801  0.1325
  538TIP3   OH223104   6.253   1.978  12.439 -0.1465 -0.0524 -0.1373
  538TIP3    H123105   6.211   2.063  12.456  2.8806  1.3359  1.3015
  538TIP3    H223106   6.319   1.970  12.509 -0.2513 -3.6106 -0.2788
  539TIP3   OH223107   6.398   0.884  15.345 -0.1924 -0.5262 -0.9648
  539TIP3    H123108   6.464   0.886  15.414  1.7100 -0.4952 -2.7277
  539TIP3    H223109   6.367   0.975  15.338  0.7695 -0.2151 -1.2311
  540TIP3   OH223110   3.747   3.517   1.172 -0.1408 -0.3781  0.0982
  540TIP3    H123111   3.832   3.521   1.128  0.5250 -2.5692  1.0159
  540TIP3    H223112   3.738   3.603   1.214  2.2816 -0.4987  1.0597
  541TIP3   OH223113   0.918   4.127   1.173 -0.1031 -0.0358  0.1407
  541TIP3    H123114   0.855   4.059   1.150  1.8249 -2.4930  1.6589
  541TIP3    H223115   0.872   4.182   1.237 -1.2867 -0.6523 -0.1582
  542TIP3   OH223116   1.157   3.645   0.360 -0.1711  0.3231  0.2896
  542TIP3    H123117   1.216   3.586   0.313 -2.7768 -2.7522  0.5118
  542TIP3    H223118   1.127   3.594   0.436 -0.9126  2.8060  1.7740
  543TIP3   OH223119   5.356   6.215   2.620 -0.0329 -0.1044 -0.4171
  543TIP3    H123120   5.437   6.248   2.582  0.9604 -2.3123 -0.3853
  543TIP3    H223121   5.307   6.178   2.546 -0.8293  0.8252 -0.3708
  544TIP3   OH223122   6.648   4.745   1.908  0.6056  1.4470 -0.5231
  544TIP3    H123123   6.703   4.820   1.928 -1.7575  2.9380  0.7868
  544TIP3    H223124   6.563   4.782   1.885  0.2381 -0.7231 -3.2064
  545TIP3   OH223125   5.041   4.022   5.780 -0.1479 -0.0178 -0.3546
  545TIP3    H123126   5.006   3.934   5.796  1.1625 -0.3725  0.7472
  545TIP3    H223127   5.008   4.074   5.853  0.6385 -0.0796  0.0575
  546TIP3   OH223128   4.582   3.036  13.265  0.4604  0.4498 -0.6086
  546TIP3    H123129   4.608   3.114  13.315 -0.8491  0.0789  0.7067
  546TIP3    H223130   4.654   2.974  13.278  1.1843  1.1602 -1.0876
  547TIP3   OH223131   5.034   6.525  12.841 -0.3504  0.2627 -0.5924
  547TIP3    H123132   5.040   6.595  12.775  1.4978  1.5070  0.7682
  547TIP3    H223133   5.125   6.512  12.869 -0.8327 -1.7672  0.1839
  548TIP3   OH223134   3.588   0.355   2.362  1.0902 -0.5408 -0.1177
  548TIP3    H123135   3.650   0.426   2.383 -2.2790  2.2409  1.5491
  548TIP3    H223136   3.564   0.319   2.447  0.9193 -2.0968 -0.7968
  549TIP3   OH223137   4.697   1.002  13.773  0.5487 -0.0619  0.0346
  549TIP3    H123138   4.676   0.916  13.738 -1.2357 -0.1933  1.3416
  549TIP3    H223139   4.696   1.060  13.697 -0.9374 -0.7396 -0.4847
  550TIP3   OH223140   2.792   2.476   1.928 -0.1412 -0.4878  0.5800
  550TIP3    H123141   2.737   2.399   1.945 -0.6356 -0.5457 -1.1036
  550TIP3    H223142   2.780   2.531   2.006 -1.4178 -1.1746  0.9099
  551TIP3   OH223143   6.094   3.122  11.651 -0.5656 -0.3671 -0.9675
  551TIP3    H123144   6.035   3.189  11.616 -0.2919  0.4292  0.0318
  551TIP3    H223145   6.155   3.171  11.706  0.0241 -1.3753 -0.7080
  552TIP3   OH223146   0.539   5.914  16.095  0.1546  0.5908  0.0553
  552TIP3    H123147   0.583   5.916  16.010 -0.7884 -0.2936 -0.4853
  552TIP3    H223148   0.591   5.971  16.150  0.3911  1.7481 -1.3093
  553TIP3   OH223149   3.403   6.086  15.612 -0.2016  0.2564 -0.1131
  553TIP3    H123150   3.355   6.159  15.650 -0.4089  0.0420  0.0406
  553TIP3    H223151   3.404   6.104  15.518 -2.2594 -0.6921 -0.3805
  554TIP3   OH223152   2.832   0.482   2.629 -0.5514 -0.3738  1.1878
  554TIP3    H123153   2.846   0.532   2.710 -0.4493  1.4329  0.1000
  554TIP3    H223154   2.754   0.522   2.591 -0.1126 -0.6514 -0.0207
  555TIP3   OH223155   0.430   1.361   1.149  0.6467  0.4527 -0.3746
  555TIP3    H123156   0.444   1.413   1.229  0.0290  0.5394 -0.3159
  555TIP3    H223157   0.335   1.359   1.139  0.4564 -2.7148  0.9715
  556TIP3   OH223158   4.609   6.174  14.741 -0.0034 -0.2749  0.0536
  556TIP3    H123159   4.627   6.262  14.773 -0.3372 -0.2448  0.1653
  556TIP3    H223160   4.694   6.141  14.711 -0.1695  0.7436 -1.6406
  557TIP3   OH223161   0.868   0.209  14.920  0.2407 -0.2650  0.2691
  557TIP3    H123162   0.946   0.178  14.873  0.6683  0.4593  0.4799
  557TIP3    H223163   0.801   0.217  14.852 -0.0110 -2.0184  0.2774
  558TIP3   OH223164   4.281   3.267  11.104  0.0123 -0.5429 -0.0307
  558TIP3    H123165   4.334   3.333  11.059  0.6791  0.2526  1.8080
  558TIP3    H223166   4.192   3.285  11.075  0.3251  0.4299 -0.4450
  559TIP3   OH223167   1.138   5.360   0.366  0.1460 -0.6385 -0.0098
  559TIP3    H123168   1.068   5.370   0.301 -1.0434  0.3825  1.3683
  559TIP3    H223169   1.176   5.274   0.347  0.1100 -0.2150 -2.2867
  560TIP3   OH223170   2.360   3.580   2.053  0.2680 -0.1640  0.1854
  560TIP3    H123171   2.377   3.674   2.046 -1.8166  0.2263 -0.2200
  560TIP3    H223172   2.333   3.567   2.143 -1.8280  0.1165 -0.3446
  561TIP3   OH223173   1.431   0.233  15.392 -0.4769 -0.1455  0.3821
  561TIP3    H123174   1.348   0.189  15.372  0.5324 -1.7144 -0.5339
  561TIP3    H223175   1.464   0.261  15.306 -0.4054  1.1571  0.8154
  562TIP3   OH223176   6.655   2.387  12.225 -0.0249 -0.8041  0.6325
  562TIP3    H123177   6.690   2.331  12.294 -0.7348  0.0515  1.7266
  562TIP3    H223178   6.716   2.461  12.220  0.8657 -1.5913 -0.7484
  563TIP3   OH223179   4.936   5.271  15.190  0.0819 -0.1864 -0.9870
  563TIP3    H123180   4.846   5.280  15.158  0.2730 -0.3291 -1.5770
  563TIP3    H223181   4.989   5.270  15.111  0.6189  0.0420 -0.6346
  564TIP3   OH223182   0.017   4.783   2.631 -0.0407 -0.5257  0.0308
  564TIP3    H123183   0.012   4.690   2.608  1.0188 -0.8214  0.8843
  564TIP3    H223184   0.082   4.819   2.571 -0.6092 -0.2776 -0.4437
  565TIP3   OH223185   6.380   4.799  12.226  0.4792 -0.1271 -0.4285
  565TIP3    H123186   6.301   4.767  12.269  0.2354  0.6001 -0.3255
  565TIP3    H223187   6.439   4.820  12.298 -0.0824  1.4937 -0.3906
  566TIP3   OH223188   2.811   4.960  11.917 -0.4921 -0.0677 -0.5993
  566TIP3    H123189   2.788   5.014  11.842 -0.6324  0.7057 -0.0207
  566TIP3    H223190   2.766   4.877  11.903 -2.6257  0.9357 -0.1500
  567TIP3   OH223191   0.418   4.943  15.761 -0.1880 -0.2085 -0.1014
  567TIP3    H123192   0.408   4.979  15.673 -0.3929 -3.5627 -1.6055
  567TIP3    H223193   0.510   4.916  15.766 -0.2512 -0.3240  0.6118
  568TIP3   OH223194   1.627   3.022   5.919 -0.0184 -0.1692  0.1666
  568TIP3    H123195   1.658   2.948   5.972  0.7974  0.2045  0.2351
  568TIP3    H223196   1.579   3.077   5.981  1.0445  0.3305  0.5680
  569TIP3   OH223197   2.730   6.116  13.482  0.7470  0.2531  0.8750
  569TIP3    H123198   2.811   6.123  13.533  1.0773 -0.8738  0.5477
  569TIP3    H223199   2.667   6.079  13.544  1.3488 -1.8357  0.3352
  570TIP3   OH223200   5.025   3.659  12.954  0.1129  0.0409 -0.7522
  570TIP3    H123201   5.115   3.661  12.986 -0.2056 -1.6825  0.4449
  570TIP3    H223202   5.031   3.616  12.868  0.3058 -1.7620  0.1071
  571TIP3   OH223203   0.134   4.853   1.531 -0.2577 -0.1167  0.0092
  571TIP3    H123204   0.167   4.777   1.482 -0.1297 -0.6965  0.9561
  571TIP3    H223205   0.136   4.925   1.468  0.6205 -0.6658 -0.6237
  572TIP3   OH223206   4.177   5.815  16.270  0.3211 -0.0843 -0.4174
  572TIP3    H123207   4.105   5.870  16.238 -0.8586 -1.4642 -0.2642
  572TIP3    H223208   4.145   5.782  16.355  1.4759 -0.1070  0.0198
  573TIP3   OH223209   3.525   1.509   3.816  0.4206  0.5381 -0.4313
  573TIP3    H123210   3.502   1.600   3.837 -1.0971  0.9715 -3.3454
  573TIP3    H223211   3.611   1.515   3.775  0.1869  0.7527 -0.9092
  574TIP3   OH223212   1.618   5.954  16.114  0.2226 -0.0572 -0.5102
  574TIP3    H123213   1.652   6.033  16.072 -0.1794  1.5213  1.8831
  574TIP3    H223214   1.644   5.964  16.206 -1.7816 -1.6093  0.2928
  575TIP3   OH223215   5.055   1.693   6.091  0.1814 -0.3475 -0.0763
  575TIP3    H123216   5.033   1.689   5.998  0.3809 -2.6646 -0.1036
  575TIP3    H223217   5.016   1.774   6.122  0.2784  0.5677 -2.2126
  576TIP3   OH223218   0.586   1.523  11.009  0.0573 -0.3223 -0.2175
  576TIP3    H123219   0.602   1.617  11.000 -1.1495 -0.0475  0.2355
  576TIP3    H223220   0.616   1.485  10.927  1.4758  0.3148 -0.0139
  577TIP3   OH223221   5.415   1.245   4.276 -0.5175  0.2683  0.2287
  577TIP3    H123222   5.321   1.258   4.280 -0.3034  1.9485  0.5042
  577TIP3    H223223   5.446   1.309   4.212  0.4919  0.0704  0.4941
  578TIP3   OH223224   6.325   6.641  14.655 -0.6670  0.3575 -0.6648
  578TIP3    H123225   6.296   6.551  14.669 -4.0308  1.5960  1.3788
  578TIP3    H223226   6.387   6.657  14.726 -1.3564  0.1412 -0.0019
  579TIP3   OH223227   4.493   3.540   3.234  0.0905 -0.1491  0.3552
  579TIP3    H123228   4.520   3.468   3.177  2.3244  0.3637  0.6657
  579TIP3    H223229   4.523   3.619   3.189  0.1882  0.3832  1.3182
  580TIP3   OH223230   5.685   1.045  13.258 -0.1543 -0.6612 -0.0599
  580TIP3    H123231   5.600   1.073  13.292 -0.4430 -1.5687 -0.0063
  580TIP3    H223232   5.711   1.115  13.198 -1.2676 -0.7078 -0.6201
  581TIP3   OH223233   1.405   2.461  11.447  0.3139 -0.1185  0.4192
  581TIP3    H123234   1.411   2.411  11.366 -2.2629 -1.0370  0.7086
  581TIP3    H223235   1.366   2.401  11.510  0.6342  1.1151  1.8597
  582TIP3   OH223236   5.846   1.332   3.518  0.2054  0.4278  0.2104
  582TIP3    H123237   5.763   1.285   3.520  1.5988 -2.2491  1.4878
  582TIP3    H223238   5.842   1.387   3.440 -1.9721 -1.1233 -0.8642
  583TIP3   OH223239   1.427   5.222  13.454  0.1724  0.2272  0.1532
  583TIP3    H123240   1.386   5.194  13.536  0.0952 -1.6075 -0.4638
  583TIP3    H223241   1.364   5.281  13.414 -0.8916 -0.7964  0.2801
  584TIP3   OH223242   4.588   3.960  16.009  0.4506 -0.2173  0.0601
  584TIP3    H123243   4.646   4.030  15.977 -1.5511  0.7565 -1.6739
  584TIP3    H223244   4.604   3.887  15.949 -0.0149  0.0135 -0.3508
  585TIP3   OH223245   4.649   5.540  10.797 -0.1946  0.1101  0.2749
  585TIP3    H123246   4.592   5.576  10.730 -0.3725  3.3011  1.9575
  585TIP3    H223247   4.626   5.447  10.801 -0.8033 -0.0323 -3.3300
  586TIP3   OH223248   0.866   2.427  15.859 -0.4554 -0.2056  0.0298
  586TIP3    H123249   0.887   2.367  15.788 -0.3551 -1.2272  0.9028
  586TIP3    H223250   0.934   2.494  15.856  0.7489 -1.3739  0.4366
  587TIP3   OH223251   4.963   0.341  15.828 -0.6162  0.0284 -0.4963
  587TIP3    H123252   5.036   0.300  15.782 -1.2763  0.2799 -1.8106
  587TIP3    H223253   4.945   0.283  15.902 -0.9281 -1.5933 -1.7897
  588TIP3   OH223254   1.180   2.173   4.990  0.2707  0.2465  0.6304
  588TIP3    H123255   1.112   2.108   4.977  0.1079  0.5283  0.0108
  588TIP3    H223256   1.157   2.217   5.072 -1.6270  1.9040 -0.6940
  589TIP3   OH223257   4.448   4.259  11.718  1.2804 -0.0891 -0.1143
  589TIP3    H123258   4.397   4.310  11.781 -1.7739 -3.1495  0.2087
  589TIP3    H223259   4.436   4.304  11.635 -1.6739 -0.4066  0.0589
  590TIP3   OH223260   1.876   2.318  13.513 -0.2705 -0.1165  0.5707
  590TIP3    H123261   1.953   2.299  13.460 -0.3247 -2.4097  1.2210
  590TIP3    H223262   1.912   2.339  13.600 -0.1479  4.0468 -0.2520
  591TIP3   OH223263   1.110   1.612  16.634  0.5890  0.2358 -0.0397
  591TIP3    H123264   1.150   1.583  16.552  0.4761 -0.6461  0.2073
  591TIP3    H223265   1.016   1.613  16.615  0.6528  1.4312 -0.3467
  592TIP3   OH223266   0.891   2.672  16.127 -0.4993  0.1253 -0.0451
  592TIP3    H123267   0.921   2.581  16.130  0.1140  0.2470 -1.5254
  592TIP3    H223268   0.849   2.681  16.042 -2.3762  0.7190  0.8803
  593TIP3   OH223269   6.232   0.691   4.031  0.7715 -0.0032 -0.0154
  593TIP3    H123270   6.178   0.722   4.103  0.6533 -1.3021  0.4774
  593TIP3    H223271   6.319   0.726   4.050  1.0293 -1.3098  1.4539
  594TIP3   OH223272   4.345   3.955   3.700 -0.0366 -0.4077  1.1140
  594TIP3    H123273   4.362   3.910   3.782 -0.7347  0.1410  1.5828
  594TIP3    H223274   4.417   4.018   3.691  1.2046 -1.9036  0.2082
  595TIP3   OH223275   1.434   0.957  11.103  0.1406 -0.0200  0.5594
  595TIP3    H123276   1.428   1.050  11.080  0.4978 -0.0853  0.2059
  595TIP3    H223277   1.479   0.957  11.187  0.3906  0.1096  0.4263
  596TIP3   OH223278   4.481   0.332  14.231  0.3735 -0.3327 -0.4104
  596TIP3    H123279   4.419   0.305  14.163  1.6224 -0.0681 -1.7050
  596TIP3    H223280   4.523   0.410  14.195 -1.2155  1.8413  2.0577
  597TIP3   OH223281   3.612   3.646  16.024  0.2912  0.6610 -0.0547
  597TIP3    H123282   3.645   3.620  16.109 -2.7173 -1.4346  0.6337
  597TIP3    H223283   3.618   3.742  16.024  1.2311  0.6492  2.1206
  598TIP3   OH223284   3.265   3.212  13.955 -0.3962  0.2654  0.0169
  598TIP3    H123285   3.291   3.120  13.949  1.8352  0.6687  1.8274
  598TIP3    H223286   3.325   3.258  13.896 -2.0908  0.5334 -1.5746
  599TIP3   OH223287   3.886   3.624  14.085  0.0122 -0.0123 -0.3448
  599TIP3    H123288   3.917   3.703  14.041 -0.9351  0.8385  0.4799
  599TIP3    H223289   3.889   3.556  14.017  1.9101  0.4335 -0.7768
  600TIP3   OH223290   3.046   3.549   2.157  0.2415  0.2325  0.0311
  600TIP3    H123291   3.026   3.549   2.250 -1.1481  0.7571 -0.2409
  600TIP3    H223292   2.982   3.488   2.119  0.0734  0.8447 -0.7060
  601TIP3   OH223293   2.881   6.727  15.110  0.1843 -0.0917  0.1936
  601TIP3    H123294   2.846   6.813  15.089 -2.0592 -0.1382  3.0700
  601TIP3    H223295   2.809   6.667  15.090  0.5260 -0.8688  1.1968
  602TIP3   OH223296   0.763   5.948  11.594 -0.4432  0.3269  0.0127
  602TIP3    H123297   0.698   5.960  11.663 -1.7243  1.3087 -1.2834
  602TIP3    H223298   0.718   5.897  11.526  0.0062  1.2819 -1.0488
  603TIP3   OH223299   2.994   3.517   2.737 -0.9036 -0.1548  0.0397
  603TIP3    H123300   2.973   3.426   2.716  0.6987 -0.3410 -0.9837
  603TIP3    H223301   2.945   3.536   2.817 -1.6387 -1.7612  0.0028
  604TIP3   OH223302   4.412   6.265   1.954  0.9532 -0.4361  0.2151
  604TIP3    H123303   4.465   6.305   1.885 -1.2065  0.4140 -1.0485
  604TIP3    H223304   4.383   6.182   1.917 -1.1249  0.5082 -0.4665
  605TIP3   OH223305   1.436   5.215   2.516  0.1882 -0.1913 -0.2833
  605TIP3    H123306   1.472   5.164   2.444  1.4228 -0.0344  0.1886
  605TIP3    H223307   1.439   5.156   2.591 -1.2228 -0.4010 -0.3692
  606TIP3   OH223308   6.616   4.738   0.302 -0.4087 -0.2050  0.2954
  606TIP3    H123309   6.647   4.698   0.383 -2.2106 -1.3522  0.4771
  606TIP3    H223310   6.581   4.665   0.251 -0.7334  0.7155 -0.8522
  607TIP3   OH223311   1.077   2.741   0.822  0.1808 -0.2953  0.2765
  607TIP3    H123312   1.100   2.650   0.842  0.8514 -0.1444  0.2142
  607TIP3    H223313   0.985   2.748   0.847 -0.0955 -1.1925 -0.4148
  608TIP3   OH223314   0.084   6.614  13.908  0.7973 -0.3887  0.5201
  608TIP3    H123315   0.015   6.583  13.849  1.8708 -2.0372  0.0600
  608TIP3    H223316   0.041   6.680  13.962 -0.4676  0.5734 -1.5066
  609TIP3   OH223317   0.030   2.602   3.262  0.0567 -0.3085 -0.2090
  609TIP3    H123318  -0.036   2.592   3.193 -1.0926  0.6855  0.6820
  609TIP3    H223319   0.094   2.663   3.225  0.2049 -0.8573 -0.8874
  610TIP3   OH223320   6.307   2.599  14.283  0.1935  0.0302 -0.1520
  610TIP3    H123321   6.259   2.557  14.354  0.0743 -0.3049 -0.4272
  610TIP3    H223322   6.397   2.568  14.292  0.4840  1.0619  0.6754
  611TIP3   OH223323   5.428   0.844  16.050 -0.3897  0.6883 -0.2898
  611TIP3    H123324   5.454   0.934  16.072  2.6894  0.3847 -2.0406
  611TIP3    H223325   5.476   0.790  16.113  1.7447  0.1704 -2.2505
  612TIP3   OH223326   4.529   4.768   1.901 -0.0736  0.4152  0.1224
  612TIP3    H123327   4.451   4.781   1.956 -0.1078 -1.1574  0.4834
  612TIP3    H223328   4.595   4.825   1.941 -0.0842 -0.7207  1.8944
  613TIP3   OH223329   1.426   1.186   5.136  0.1698 -0.1408  1.0123
  613TIP3    H123330   1.381   1.252   5.084  0.6139 -1.5298 -1.2543
  613TIP3    H223331   1.355   1.137   5.177 -0.2257  0.4080  0.9981
  614TIP3   OH223332   0.993   5.222   1.287 -0.4557 -0.3938 -0.3223
  614TIP3    H123333   0.957   5.165   1.355  1.1420 -0.1143  0.8169
  614TIP3    H223334   1.024   5.162   1.219 -0.1690 -0.7877  0.1550
  615TIP3   OH223335   1.294   6.463  13.882  0.1153  0.3677  0.1287
  615TIP3    H123336   1.302   6.391  13.944 -0.1517  0.4859  0.3001
  615TIP3    H223337   1.360   6.444  13.815  1.4352  1.0175  1.2098
  616TIP3   OH223338   2.840   4.766  11.610  0.3107  0.1653  0.3855
  616TIP3    H123339   2.811   4.821  11.538  0.6048 -0.0321  0.1120
  616TIP3    H223340   2.791   4.797  11.686  1.2904  1.5550  0.4829
  617TIP3   OH223341   6.568   4.013   0.501 -0.2216 -0.3731  0.0881
  617TIP3    H123342   6.589   4.074   0.431  1.9310 -0.4826  0.5500
  617TIP3    H223343   6.473   4.004   0.498 -0.1766 -1.6171 -3.8710
  618TIP3   OH223344   6.490   5.619   1.361 -0.3109 -0.3166  0.6730
  618TIP3    H123345   6.487   5.636   1.455 -0.5056 -0.2696  0.6591
  618TIP3    H223346   6.515   5.703   1.323  2.9416 -1.0722  0.8977
  619TIP3   OH223347   6.282   5.948   1.981 -0.4851  0.0073  1.0088
  619TIP3    H123348   6.348   6.011   1.952  1.0182 -1.4561  1.0776
  619TIP3    H223349   6.296   5.941   2.075 -0.6398 -0.4152  1.0025
  620TIP3   OH223350   0.667   5.142   1.590 -0.0654  0.1823 -0.3277
  620TIP3    H123351   0.656   5.177   1.501 -2.2461  2.0050  0.5505
  620TIP3    H223352   0.580   5.107   1.612 -0.5303  2.6253  2.1741
  621TIP3   OH223353   2.376   4.817   5.061  0.5501 -0.7758  0.2061
  621TIP3    H123354   2.291   4.779   5.084  0.0303  0.1524 -0.1109
  621TIP3    H223355   2.369   4.908   5.089  1.7755 -0.8983  0.9772
  622TIP3   OH223356   6.275   5.403   3.449 -0.0464 -0.1760 -0.0612
  622TIP3    H123357   6.249   5.388   3.358  0.6096  0.6109 -0.3764
  622TIP3    H223358   6.297   5.315   3.482  1.5620 -0.2533 -1.2308
  623TIP3   OH223359   5.876   4.138   1.793 -0.3785 -0.2964 -0.1179
  623TIP3    H123360   5.899   4.088   1.715 -0.0509 -0.6032  0.1705
  623TIP3    H223361   5.864   4.228   1.761  0.7006 -0.2260 -0.3738
  624TIP3   OH223362   2.917   1.096   1.465 -0.3514 -0.1651 -0.2234
  624TIP3    H123363   2.837   1.116   1.417 -0.1556 -3.1664 -2.0534
  624TIP3    H223364   2.899   1.011   1.506  1.3099 -0.0490  0.8381
  625TIP3   OH223365   0.558   0.992   2.668  0.5505  0.0368 -0.3271
  625TIP3    H123366   0.510   1.045   2.731  3.2226  0.4026  1.5350
  625TIP3    H223367   0.618   1.053   2.625  1.1866 -0.8462 -0.7264
  626TIP3   OH223368   3.796   6.400  12.268 -0.3772  0.4601 -0.4398
  626TIP3    H123369   3.889   6.378  12.268 -0.4916 -0.0430  0.0401
  626TIP3    H223370   3.751   6.317  12.286 -0.9966  0.4066 -2.1098
  627TIP3   OH223371   5.779   0.013  10.787  0.3335  0.4874  0.3260
  627TIP3    H123372   5.807   0.093  10.744  1.1981 -0.3305 -0.6838
  627TIP3    H223373   5.856  -0.043  10.787  0.2502  0.2574  2.5671
  628TIP3   OH223374   1.252   4.571  14.338 -0.2230  0.0985  0.0034
  628TIP3    H123375   1.308   4.605  14.269 -0.0303  1.7294  0.9325
  628TIP3    H223376   1.240   4.479  14.314  0.6949  0.3469 -1.6166
  629TIP3   OH223377   1.992   0.908  14.161  0.2131 -0.0920  0.4662
  629TIP3    H123378   1.971   0.977  14.223  0.4913 -0.5054  1.0356
  629TIP3    H223379   1.965   0.942  14.076 -0.5875  0.3023  0.8758
  630TIP3   OH223380   3.816   1.751   3.840  0.3424  0.5429 -0.2272
  630TIP3    H123381   3.840   1.842   3.859  2.7113 -0.0147 -0.1963
  630TIP3    H223382   3.770   1.721   3.918  0.9562  1.2773  0.4339
  631TIP3   OH223383   2.719   1.115  12.743  0.6689  0.2424 -0.1493
  631TIP3    H123384   2.672   1.060  12.680  1.8590  0.0239 -0.8646
  631TIP3    H223385   2.775   1.171  12.689  1.8179 -0.0502  0.7158
  632TIP3   OH223386   1.109   4.398  15.034 -0.2635  0.2330 -0.0877
  632TIP3    H123387   1.101   4.371  15.125  0.1693 -1.7782 -0.5828
  632TIP3    H223388   1.202   4.384  15.013 -0.3367  0.7569 -0.8073
  633TIP3   OH223389   3.657   1.857  16.153  0.0595 -0.3918 -0.3827
  633TIP3    H123390   3.657   1.831  16.245  0.1960 -0.4879 -0.4086
  633TIP3    H223391   3.708   1.938  16.151 -0.3345 -0.1400 -0.3039
  634TIP3   OH223392   0.395   3.350  13.428 -0.1799  0.8091 -0.1722
  634TIP3    H123393   0.471   3.330  13.481 -0.7774 -0.4531  0.2524
  634TIP3    H223394   0.363   3.434  13.461  0.6405  1.0318  0.0677
  635TIP3   OH223395   5.640   1.477   1.464  0.3805 -0.1730 -0.2634
  635TIP3    H123396   5.674   1.448   1.549  0.5344  0.8964  0.0644
  635TIP3    H223397   5.573   1.542   1.486  1.2287  0.9761 -0.9532
  636TIP3   OH223398   1.549   6.602  16.327 -0.0162  0.2888  0.2098
  636TIP3    H123399   1.568   6.672  16.264  1.5279  0.2924  0.6463
  636TIP3    H223400   1.481   6.639  16.384 -2.2546 -0.1046 -2.0362
  637TIP3   OH223401   0.870   0.139   1.233 -0.7951 -0.0227  0.9032
  637TIP3    H123402   0.787   0.139   1.281 -0.6840  0.1497  1.0986
  637TIP3    H223403   0.885   0.231   1.212 -1.1239 -0.1578  0.0431
  638TIP3   OH223404   6.549   3.213   5.501  0.0802  0.2792 -0.7924
  638TIP3    H123405   6.466   3.243   5.539  0.0919 -0.8867  0.2296
  638TIP3    H223406   6.596   3.294   5.481 -0.8500  0.9542 -0.3572
  639TIP3   OH223407   4.019   0.216   4.708 -0.1713 -0.5115  0.5677
  639TIP3    H123408   4.027   0.295   4.761  0.8734  0.4266 -0.8890
  639TIP3    H223409   3.946   0.169   4.746 -1.9166  1.9641  0.5177
  640TIP3   OH223410   4.932   0.597   2.026 -0.5587  0.3631  0.3119
  640TIP3    H123411   4.894   0.666   1.972 -0.3248 -0.8373 -1.4754
  640TIP3    H223412   4.917   0.516   1.977  2.8627 -0.3946  0.2050
  641TIP3   OH223413   0.391   4.844   3.849 -0.0091 -0.6692 -0.3910
  641TIP3    H123414   0.367   4.773   3.909 -2.2009 -0.0241 -0.4024
  641TIP3    H223415   0.319   4.907   3.857  1.1915  0.9011 -1.4135
  642TIP3   OH223416   2.817   6.723   6.023  0.5628  0.3388  0.6038
  642TIP3    H123417   2.765   6.657   6.069  0.2806  0.3354  0.2781
  642TIP3    H223418   2.767   6.804   6.032 -0.3527 -0.0047 -1.1575
  643TIP3   OH223419   0.041   1.088   0.224 -0.2361 -0.2185  0.2322
  643TIP3    H123420   0.057   0.998   0.253 -0.5932  0.0948  1.4328
  643TIP3    H223421   0.121   1.135   0.248  0.5681 -0.4890 -1.7198
  644TIP3   OH223422   0.607   2.272   2.262  0.3755  0.1921 -0.0813
  644TIP3    H123423   0.540   2.215   2.300 -0.0555  0.3845 -0.5398
  644TIP3    H223424   0.656   2.216   2.202 -0.3904  0.4081 -0.9409
  645TIP3   OH223425   5.417   1.631   1.563  0.2089 -0.0367 -0.0362
  645TIP3    H123426   5.372   1.590   1.636  0.2980  2.3308  1.4419
  645TIP3    H223427   5.351   1.688   1.523  1.2892  2.0745  1.0303
  646TIP3   OH223428   0.665   4.265  14.258  0.0906  0.4006 -0.3759
  646TIP3    H123429   0.725   4.297  14.325 -0.8411  0.5269  0.4162
  646TIP3    H223430   0.721   4.224  14.193  1.2510  2.4790 -0.7926
  647TIP3   OH223431   4.319   6.492  14.274  0.1760 -0.1110 -0.4445
  647TIP3    H123432   4.387   6.458  14.332  0.3904  0.8655 -0.1159
  647TIP3    H223433   4.365   6.516  14.194 -0.2103 -2.0449 -1.3005
  648TIP3   OH223434   2.629   5.666   4.131  0.0828  0.0729 -0.5798
  648TIP3    H123435   2.585   5.674   4.215 -0.3535 -0.8959 -0.7029
  648TIP3    H223436   2.721   5.687   4.150 -0.2067  0.9198 -0.0868
  649TIP3   OH223437   6.256   3.185   3.078 -0.6841  0.5440 -0.1529
  649TIP3    H123438   6.204   3.265   3.068 -0.5182  0.5202 -1.4869
  649TIP3    H223439   6.193   3.116   3.097 -1.0475  0.6964 -0.7658
  650TIP3   OH223440   6.439   3.643  15.886 -0.3795 -0.2367  0.4457
  650TIP3    H123441   6.502   3.712  15.907 -0.1820 -0.8999  2.1999
  650TIP3    H223442   6.398   3.672  15.805 -0.9597  2.4126  1.5866
  651TIP3   OH223443   0.941   4.003  14.547  0.0331  0.2741 -0.3305
  651TIP3    H123444   0.972   4.053  14.623  1.7991 -1.5768  0.2469
  651TIP3    H223445   1.006   4.020  14.479  0.9759 -1.5778  0.0472
  652TIP3   OH223446   0.491   4.041  13.442 -0.0263  0.3173  0.0548
  652TIP3    H123447   0.425   4.018  13.507  0.5531  0.5509  0.7293
  652TIP3    H223448   0.453   4.013  13.359  0.1402 -1.9445  0.6883
  653TIP3   OH223449   1.876   3.747  11.505  0.4847  0.2355 -0.3670
  653TIP3    H123450   1.876   3.752  11.410 -1.3397 -0.7898 -0.4746
  653TIP3    H223451   1.802   3.803  11.532 -1.2463 -2.1443  0.1658
  654TIP3   OH223452   4.813   5.375  12.342  1.2734 -0.0758 -0.0203
  654TIP3    H123453   4.738   5.434  12.338  0.7306 -0.8368 -1.8259
  654TIP3    H223454   4.792   5.313  12.412  0.2584 -0.2038 -0.4314
  655TIP3   OH223455   0.228   6.649   1.651  0.4375  0.1388  0.0337
  655TIP3    H123456   0.222   6.625   1.743 -0.8500  0.0299 -0.0522
  655TIP3    H223457   0.281   6.729   1.650 -0.3633  0.7150  0.9947
  656TIP3   OH223458   2.813   5.731   5.999 -0.2321 -0.1416 -0.2429
  656TIP3    H123459   2.852   5.735   6.086 -1.3993 -1.7575  0.3947
  656TIP3    H223460   2.723   5.705   6.014 -0.3159 -0.9786 -1.9674
  657TIP3   OH223461   6.422   3.542  12.433  0.0143 -0.2915  0.3297
  657TIP3    H123462   6.468   3.459  12.423  1.4256  0.4845  0.1707
  657TIP3    H223463   6.443   3.591  12.353 -1.9014 -0.2593 -0.2200
  658TIP3   OH223464   1.841   3.175  12.731  0.0337  0.3680  0.3402
  658TIP3    H123465   1.904   3.123  12.782  1.1027  0.8747 -0.4149
  658TIP3    H223466   1.808   3.114  12.665 -1.2245 -0.2419  1.4997
  659TIP3   OH223467   0.381   4.919  13.735  0.3812  0.7583 -0.1203
  659TIP3    H123468   0.326   4.841  13.726  1.7579 -0.6697  2.5388
  659TIP3    H223469   0.450   4.906  13.669 -1.0311  1.3449 -1.7900
  660TIP3   OH223470   6.275   3.069  13.057  0.4086  0.5535  0.0162
  660TIP3    H123471   6.248   3.045  12.968 -0.3740  0.4327  0.2764
  660TIP3    H223472   6.336   3.142  13.045  0.2005  0.6263 -0.6204
  661TIP3   OH223473   1.651   6.345  14.488  0.1635  0.2442  0.2613
  661TIP3    H123474   1.736   6.301  14.489  0.2048  0.2039  3.1218
  661TIP3    H223475   1.645   6.383  14.400  1.7343 -2.3120 -1.0658
  662TIP3   OH223476   3.036   0.001  14.637 -0.6066  0.5343  0.2179
  662TIP3    H123477   3.092   0.025  14.711 -0.4688  1.0926 -0.0585
  662TIP3    H223478   2.976  -0.064  14.672 -0.1573  0.3551  0.6696
  663TIP3   OH223479   0.501   1.192  16.384 -0.0441 -0.5293 -0.4354
  663TIP3    H123480   0.422   1.142  16.406 -0.3292  0.0351 -0.1655
  663TIP3    H223481   0.469   1.271  16.341  0.4004 -0.4994 -0.7269
  664TIP3   OH223482   3.293   3.227   0.705  0.5223 -0.1511 -0.1402
  664TIP3    H123483   3.261   3.201   0.618  2.2779 -1.7029 -0.3877
  664TIP3    H223484   3.364   3.166   0.723 -0.3657 -0.4524  2.7953
  665TIP3   OH223485   1.433   0.432   3.327 -0.5173 -0.4087  0.2971
  665TIP3    H123486   1.346   0.394   3.343 -0.5407 -0.3530  0.3024
  665TIP3    H223487   1.428   0.519   3.365 -0.1211 -0.7816  1.2340
  666TIP3   OH223488   6.617   5.453   0.600 -0.1227  1.0022 -0.3755
  666TIP3    H123489   6.568   5.393   0.543 -0.5038  0.0540  0.9045
  666TIP3    H223490   6.700   5.407   0.617 -1.2776 -0.2629  2.3752
  667TIP3   OH223491   1.764   6.198   0.891 -0.5123 -0.0617  0.5014
  667TIP3    H123492   1.761   6.291   0.913 -1.8967 -0.0279  0.2465
  667TIP3    H223493   1.771   6.154   0.976 -1.1743  0.2321  0.7132
  668TIP3   OH223494   3.038   1.381  10.891  0.8402 -0.2155  0.1507
  668TIP3    H123495   3.104   1.312  10.889  0.0479 -1.0622  1.5055
  668TIP3    H223496   2.966   1.347  10.839  1.3142  0.5646 -1.0451
  669TIP3   OH223497   3.066   0.815   4.107 -0.0419  0.1421 -0.5834
  669TIP3    H123498   3.076   0.733   4.058 -0.1441 -1.0045  1.2446
  669TIP3    H223499   3.156   0.848   4.117  0.1988 -0.6906  0.1775
  670TIP3   OH223500   4.002   4.801  12.500 -0.3572 -0.4757  0.0619
  670TIP3    H123501   3.907   4.803  12.492 -0.4256 -1.4157  0.4966
  670TIP3    H223502   4.018   4.757  12.584  0.4863 -2.1841 -0.9550
  671TIP3   OH223503   5.993   5.536   4.467 -0.6103 -0.0423  0.0896
  671TIP3    H123504   6.063   5.591   4.432  0.6251 -1.1222  0.7762
  671TIP3    H223505   5.945   5.506   4.389 -0.3169  0.7110 -0.3896
  672TIP3   OH223506   4.518   2.830  15.208  0.5963 -0.0930 -0.1287
  672TIP3    H123507   4.590   2.887  15.235  0.5124  0.5224 -1.1288
  672TIP3    H223508   4.557   2.771  15.143  0.5177 -0.7264  0.3814
  673TIP3   OH223509   4.713   1.617  11.789 -0.1935 -0.1363  0.0557
  673TIP3    H123510   4.804   1.639  11.811  0.1980 -0.5661 -1.0903
  673TIP3    H223511   4.692   1.542  11.844  0.3366 -0.3849 -0.0776
  674TIP3   OH223512   4.327   1.320  15.156  0.2828  0.4343 -0.3090
  674TIP3    H123513   4.241   1.278  15.154  0.5028 -0.0336 -0.2687
  674TIP3    H223514   4.354   1.315  15.248  1.1490 -1.1136 -0.6046
  675TIP3   OH223515   3.532   6.637   0.512 -0.4582 -0.3601  0.4047
  675TIP3    H123516   3.473   6.571   0.478 -1.5909  1.2811 -0.9328
  675TIP3    H223517   3.498   6.657   0.599 -2.3899  1.0743 -0.6132
  676TIP3   OH223518   3.519   0.795   2.715 -0.1866 -0.6166  0.2307
  676TIP3    H123519   3.512   0.788   2.810 -4.6332  0.3080  0.1995
  676TIP3    H223520   3.541   0.887   2.699  0.9282 -0.8544  0.3076
  677TIP3   OH223521   3.718   6.617   3.649  0.4793 -0.1463  0.1577
  677TIP3    H123522   3.800   6.641   3.692  0.5413  1.1750 -0.6261
  677TIP3    H223523   3.662   6.584   3.720  1.8512 -1.5859  0.6111
  678TIP3   OH223524   4.013   6.485  15.957 -0.5979 -0.6731  0.5379
  678TIP3    H123525   3.922   6.496  15.930 -0.3181 -1.0972 -0.6471
  678TIP3    H223526   4.008   6.442  16.042 -1.5167  0.0077  0.8364
  679TIP3   OH223527   0.717   3.727  11.690  0.3604 -0.6799 -0.6929
  679TIP3    H123528   0.736   3.639  11.658 -0.5530 -1.1204 -0.0794
  679TIP3    H223529   0.637   3.717  11.742  0.6157  0.3905 -0.0546
  680TIP3   OH223530   3.904   5.169  11.474  0.0103  0.2864  0.0174
  680TIP3    H123531   3.920   5.101  11.409 -1.6268  0.7293 -0.8896
  680TIP3    H223532   3.821   5.209  11.448  0.6801  2.3322  0.7712
  681TIP3   OH223533   3.157   3.558  16.812 -0.1849 -0.0392 -0.3818
  681TIP3    H123534   3.157   3.648  16.844 -0.5468 -0.1732  0.0062
  681TIP3    H223535   3.067   3.528  16.825  0.2315 -0.8862  0.7404
  682TIP3   OH223536   1.899   2.884   0.406  0.1221 -0.2401  0.1756
  682TIP3    H123537   1.815   2.888   0.359  0.5928 -0.7328 -0.7398
  682TIP3    H223538   1.959   2.935   0.352  0.8528 -1.4262 -0.1735
  683TIP3   OH223539   5.302   5.349  12.186  0.2626 -0.2087  0.5015
  683TIP3    H123540   5.352   5.285  12.237 -2.2242 -1.4199  1.5955
  683TIP3    H223541   5.240   5.296  12.135  0.5511  1.1735 -1.3513
  684TIP3   OH223542   5.983   4.223  15.203 -0.1946  0.1226  0.0669
  684TIP3    H123543   6.051   4.234  15.269 -0.8271  0.7031  0.6426
  684TIP3    H223544   5.996   4.134  15.170  1.7402  0.7052 -0.8881
  685TIP3   OH223545   3.831   4.983   3.564  0.0093  0.3355  0.3615
  685TIP3    H123546   3.756   5.041   3.548  1.2609  1.5578 -1.4894
  685TIP3    H223547   3.793   4.896   3.569 -1.6522  1.0341  0.5919
  686TIP3   OH223548   1.121   0.063  11.150 -0.2456  0.3052  0.2952
  686TIP3    H123549   1.209   0.034  11.130  0.5515  2.1394  0.9612
  686TIP3    H223550   1.096   0.011  11.227 -0.4434 -1.3897 -0.8448
  687TIP3   OH223551   5.480   6.044  11.658 -0.1299  0.1608 -0.1249
  687TIP3    H123552   5.414   5.981  11.630 -0.3426  0.2223  0.2313
  687TIP3    H223553   5.541   5.994  11.712  0.6022 -0.0822 -1.1493
  688TIP3   OH223554   2.525   2.345  13.841 -0.0724  0.0480  0.9792
  688TIP3    H123555   2.567   2.270  13.883 -0.1088 -0.0515  0.8358
  688TIP3    H223556   2.534   2.329  13.747 -0.6892 -0.1187  0.9457
  689TIP3   OH223557   4.982   2.393  13.727  1.2298  0.3641  0.3768
  689TIP3    H123558   5.007   2.450  13.655 -0.1066 -0.2637 -0.6298
  689TIP3    H223559   4.887   2.399  13.730  1.1392 -1.0151  0.9065
  690TIP3   OH223560   5.684   3.889  11.831  0.3332 -0.9261 -0.5311
  690TIP3    H123561   5.700   3.798  11.806  0.6044 -0.5267 -1.8933
  690TIP3    H223562   5.591   3.903  11.812  0.0248 -1.2095  0.6923
  691TIP3   OH223563   5.901   1.389  16.694  0.2096  0.2908  1.0398
  691TIP3    H123564   5.987   1.356  16.721  0.4050  0.0553  0.1657
  691TIP3    H223565   5.891   1.357  16.604 -0.6748  0.5533  1.0413
  692TIP3   OH223566   1.442   2.619   3.443  0.5555  0.2952  0.0547
  692TIP3    H123567   1.517   2.667   3.478  1.1210 -0.1943 -0.4592
  692TIP3    H223568   1.366   2.668   3.474  1.0733  0.6004  0.8750
  693TIP3   OH223569   6.733   2.678  13.078  0.4811  0.6625 -0.4377
  693TIP3    H123570   6.709   2.769  13.096  1.3673  0.6941  0.6815
  693TIP3    H223571   6.680   2.627  13.139  1.3933  0.5727  0.2980
  694TIP3   OH223572   6.307   2.453   2.575  0.3238 -0.0952 -0.2430
  694TIP3    H123573   6.217   2.465   2.604  0.3826  0.2770 -0.2111
  694TIP3    H223574   6.305   2.476   2.482  0.6647  1.3143  0.0744
  695TIP3   OH223575   1.031   4.679  10.820 -0.5532  0.2658 -0.1425
  695TIP3    H123576   1.114   4.687  10.772 -1.6031 -1.9380 -2.6035
  695TIP3    H223577   1.015   4.767  10.854  1.5517  1.3904 -1.7530
  696TIP3   OH223578   1.070   0.540   5.314 -0.1044  0.7050  0.0785
  696TIP3    H123579   1.001   0.475   5.300  0.7096 -0.4869  1.3670
  696TIP3    H223580   1.051   0.609   5.251 -1.3976 -0.4585 -0.8594
  697TIP3   OH223581   3.130   0.976  13.758  0.0055  0.0391 -0.2418
  697TIP3    H123582   3.102   0.895  13.714  1.1929 -0.6892  0.2898
  697TIP3    H223583   3.201   1.009  13.703  0.2535  0.1277  0.1328
  698TIP3   OH223584   6.271   1.997  16.621 -0.0235  0.9137 -0.2470
  698TIP3    H123585   6.231   1.957  16.698 -0.7445  1.2729 -0.4277
  698TIP3    H223586   6.212   2.069  16.597 -0.6457 -0.1165 -2.0233
  699TIP3   OH223587   1.124   5.000  12.921  0.3092  0.1743  0.1456
  699TIP3    H123588   1.209   5.009  12.878  0.4622  0.6175  0.5269
  699TIP3    H223589   1.086   4.921  12.883  1.1467 -0.3613  0.4074
  700TIP3   OH223590   1.327   0.771   4.283  0.0795 -0.8940 -0.1170
  700TIP3    H123591   1.380   0.698   4.314  2.0827 -0.1167 -1.5014
  700TIP3    H223592   1.314   0.826   4.360 -0.3801 -2.0488  0.6620
  701TIP3   OH223593   6.787   5.889   3.639  0.1586  0.2050  0.8356
  701TIP3    H123594   6.837   5.970   3.635  0.6346 -0.1003  0.5978
  701TIP3    H223595   6.698   5.917   3.661  0.0853  0.8912 -0.2746
  702TIP3   OH223596   5.457   0.311   5.971  0.6790  0.1157  0.3030
  702TIP3    H123597   5.484   0.320   6.062 -0.0071 -0.3360  0.5556
  702TIP3    H223598   5.485   0.223   5.946 -0.0023 -0.1284  0.3821
  703TIP3   OH223599   4.615   4.947   5.304  0.0542  0.4257 -0.0433
  703TIP3    H123600   4.625   4.852   5.310 -0.3673  0.2972 -1.1211
  703TIP3    H223601   4.636   4.968   5.213  0.1104  1.3642  0.1721
  704TIP3   OH223602   3.526   3.284   2.658 -0.3193  0.0147 -0.4818
  704TIP3    H123603   3.531   3.239   2.743 -1.8953  1.6754  0.5809
  704TIP3    H223604   3.435   3.273   2.631 -0.1297  0.5477 -1.3600
  705TIP3   OH223605   4.624   5.242  16.065  0.9509 -0.4241 -0.2506
  705TIP3    H123606   4.647   5.183  15.994  0.5893  0.0821 -0.7943
  705TIP3    H223607   4.651   5.329  16.035  1.1021 -0.2491  0.3669
  706TIP3   OH223608   2.894   5.561   4.791  0.0935 -0.2443 -0.1135
  706TIP3    H123609   2.877   5.650   4.759 -1.8365 -0.1659  0.9456
  706TIP3    H223610   2.814   5.513   4.769 -0.7396 -0.5657  3.0638
  707TIP3   OH223611   2.791   5.241   1.048 -0.6927 -0.4190 -0.2581
  707TIP3    H123612   2.704   5.239   1.087 -1.2706 -0.5557 -1.5053
  707TIP3    H223613   2.829   5.156   1.070 -0.2575  0.2124  1.5799
  708TIP3   OH223614   1.362   2.173   1.689 -0.1205 -0.1850 -0.5696
  708TIP3    H123615   1.397   2.154   1.776 -2.4597  0.4653  0.5819
  708TIP3    H223616   1.398   2.104   1.633  0.3236 -1.4551  1.1952
  709TIP3   OH223617   0.655   1.157  13.314 -0.0791 -0.0957 -0.5053
  709TIP3    H123618   0.633   1.104  13.391 -0.3587  1.0781  0.2460
  709TIP3    H223619   0.658   1.247  13.347  1.8647  0.2313 -1.4402
  710TIP3   OH223620   3.784   3.140  11.496  0.1663  0.3196  0.1346
  710TIP3    H123621   3.784   3.226  11.452  0.7691  0.4969  0.4718
  710TIP3    H223622   3.875   3.112  11.495 -0.0920 -0.5340 -0.3704
  711TIP3   OH223623   1.150   3.032   5.477  0.8841  0.6081 -0.3598
  711TIP3    H123624   1.182   3.035   5.567 -1.8524  0.5859  0.7225
  711TIP3    H223625   1.128   2.940   5.462 -2.4433  1.1246  0.5345
  712TIP3   OH223626   3.271   2.603   0.331 -0.0730 -0.2164 -0.1504
  712TIP3    H123627   3.236   2.518   0.305 -2.0375  0.5951 -0.4054
  712TIP3    H223628   3.296   2.645   0.248 -0.8646  0.1378 -0.2245
  713TIP3   OH223629   5.865   2.902   5.813 -0.3184 -0.1760 -0.3297
  713TIP3    H123630   5.815   2.822   5.829 -1.5882  0.7029  0.1930
  713TIP3    H223631   5.899   2.927   5.900  1.3046 -0.9041 -0.7083
  714TIP3   OH223632   4.443   3.401  13.598 -0.1113 -0.4494  0.3288
  714TIP3    H123633   4.368   3.350  13.627  1.6683 -3.3467  0.2401
  714TIP3    H223634   4.490   3.343  13.538  1.5232  1.7443 -0.6716
  715TIP3   OH223635   2.650   3.528  11.787  0.4065  0.5056 -0.1668
  715TIP3    H123636   2.681   3.593  11.723  0.9827 -0.3223 -0.7547
  715TIP3    H223637   2.606   3.580  11.854  0.2068  1.4411 -0.9907
  716TIP3   OH223638   0.756   3.465  11.560  0.5469 -0.0593  0.2629
  716TIP3    H123639   0.830   3.422  11.519 -1.0472 -2.6739 -0.1245
  716TIP3    H223640   0.713   3.512  11.489  0.5009 -0.5644 -0.0509
  717TIP3   OH223641   1.811   3.147  16.669 -0.3249 -0.5414  0.2521
  717TIP3    H123642   1.905   3.163  16.667 -0.5489  0.8234 -0.5927
  717TIP3    H223643   1.774   3.226  16.708 -1.3472  0.2781 -2.2101
  718TIP3   OH223644   5.553   5.451  15.945 -0.4781  0.5243  0.0379
  718TIP3    H123645   5.507   5.380  15.901  0.9301 -0.5244  0.1937
  718TIP3    H223646   5.553   5.522  15.881  1.5099 -0.9489 -1.7312
  719TIP3   OH223647   1.534   6.281  16.539  0.6507  0.0385 -0.6217
  719TIP3    H123648   1.491   6.355  16.583  1.1028  0.2295 -0.4945
  719TIP3    H223649   1.620   6.316  16.513  0.2096  0.0928 -2.1044
  720TIP3   OH223650   6.049   0.203  16.109  0.3520  0.6594  0.2127
  720TIP3    H123651   5.981   0.268  16.089 -0.6078 -0.6685 -1.0557
  720TIP3    H223652   6.100   0.243  16.179  1.6479  4.0947 -2.4146
  721TIP3   OH223653   3.183   6.477   5.949  0.0615  0.0153 -0.5155
  721TIP3    H123654   3.207   6.541   6.017  0.0207 -0.2314 -0.2698
  721TIP3    H223655   3.110   6.428   5.986 -1.3567  1.2535 -1.5539
  722TIP3   OH223656   1.087   1.503  12.793 -0.0539  0.3994 -0.0912
  722TIP3    H123657   1.089   1.595  12.817  2.3791  1.3791 -3.3639
  722TIP3    H223658   1.179   1.475  12.797 -0.6177 -1.6577 -0.0378
  723TIP3   OH223659   3.089   3.715  15.000  0.1138 -0.2271  0.0642
  723TIP3    H123660   3.012   3.772  14.998 -0.5515 -1.0838  0.3777
  723TIP3    H223661   3.113   3.711  15.093 -0.0224 -0.6865  0.0801
  724TIP3   OH223662   0.279   4.245   2.651  0.1594  0.5411 -0.0617
  724TIP3    H123663   0.309   4.178   2.713  0.8754 -0.3784 -1.3608
  724TIP3    H223664   0.359   4.282   2.615 -0.2543  0.8717 -0.6533
  725TIP3   OH223665   4.818   4.545  16.046 -0.0376  0.1695  0.0297
  725TIP3    H123666   4.899   4.588  16.021  0.7574 -0.9158  0.6414
  725TIP3    H223667   4.792   4.586  16.129 -0.7752  1.3291 -0.7471
  726TIP3   OH223668   5.771   3.796  11.493 -0.5385  0.2307 -0.2613
  726TIP3    H123669   5.782   3.734  11.420 -0.7913 -0.2092  0.0649
  726TIP3    H223670   5.814   3.876  11.464 -1.8583  0.5319 -1.4952
  727TIP3   OH223671   5.536   1.370  17.146  0.0600  0.3710  0.0681
  727TIP3    H123672   5.464   1.410  17.097 -0.4968  0.1632  0.7013
  727TIP3    H223673   5.593   1.443  17.168 -0.0469  0.5641 -0.2892
  728TIP3   OH223674   4.805   4.573  13.765  0.7886 -0.2919 -0.2025
  728TIP3    H123675   4.760   4.650  13.799  3.3194  0.7041  1.1786
  728TIP3    H223676   4.786   4.572  13.672  0.7948  2.1135 -0.2828
  729TIP3   OH223677   6.347   4.376  13.527 -0.6109  0.1147 -0.1555
  729TIP3    H123678   6.309   4.347  13.444  0.9467  0.8105 -1.1593
  729TIP3    H223679   6.344   4.298  13.584 -0.9801 -0.5954 -1.1302
  730TIP3   OH223680   2.786   3.142   4.862  0.1995  0.7423 -0.0835
  730TIP3    H123681   2.798   3.181   4.776  0.2032  2.2889  0.5899
  730TIP3    H223682   2.784   3.048   4.845  0.2608  1.0077 -1.7534
  731TIP3   OH223683   2.704   2.887  15.069  0.3274  0.1481 -0.3576
  731TIP3    H123684   2.764   2.913  15.139  1.0025  2.0750 -1.5654
  731TIP3    H223685   2.621   2.929  15.093  0.1136 -0.5222  0.0894
  732TIP3   OH223686   6.580   3.811   3.086  0.2856 -0.2329 -0.0361
  732TIP3    H123687   6.495   3.855   3.095 -0.1164 -0.9727 -0.0831
  732TIP3    H223688   6.588   3.795   2.992  1.4750  1.7193 -0.3088
  733TIP3   OH223689   1.453   1.310   3.312  0.1990  0.0611 -0.1628
  733TIP3    H123690   1.431   1.358   3.233 -2.2203 -0.1907  0.2787
  733TIP3    H223691   1.482   1.224   3.281 -1.5255 -0.3202 -0.7852
  734TIP3   OH223692   5.233   1.104   0.777 -0.3286 -0.3557  0.7500
  734TIP3    H123693   5.266   1.106   0.866 -0.1471  2.5093  0.7132
  734TIP3    H223694   5.139   1.118   0.785 -0.0154  2.3618  0.4820
  735TIP3   OH223695   3.124   4.007   0.289  0.0505 -0.0048  0.3320
  735TIP3    H123696   3.169   4.084   0.325  0.6805 -0.8406  1.4291
  735TIP3    H223697   3.190   3.965   0.234 -0.5869  0.7048 -1.0371
  736TIP3   OH223698   1.465   1.602   2.795  0.1910 -0.0799  0.1639
  736TIP3    H123699   1.551   1.618   2.834  0.3816  0.1567 -0.3349
  736TIP3    H223700   1.418   1.685   2.806  0.1930 -0.0604  0.0349
  737TIP3   OH223701   5.980   2.311   4.606 -0.1029 -0.4339 -0.4394
  737TIP3    H123702   6.013   2.237   4.556 -1.4284 -0.4881 -1.2842
  737TIP3    H223703   5.949   2.273   4.689 -0.0606 -0.7119 -0.5504
  738TIP3   OH223704   1.991   5.935  12.681  0.2005 -0.5051  0.1627
  738TIP3    H123705   1.912   5.933  12.735  0.7274 -0.3205  0.9584
  738TIP3    H223706   1.978   5.864  12.618  0.0573 -1.4807  1.2465
  739TIP3   OH223707   6.525   0.402  16.123 -0.0772 -0.0279 -0.4355
  739TIP3    H123708   6.490   0.485  16.090  1.0655  0.2926 -0.8915
  739TIP3    H223709   6.554   0.356  16.044  2.0224  0.4252  0.0349
  740TIP3   OH223710   2.656   4.093   4.194 -0.3333  0.6525 -0.2300
  740TIP3    H123711   2.570   4.117   4.159 -1.3491  1.2990  2.4223
  740TIP3    H223712   2.687   4.023   4.137 -1.9626  1.3883 -2.1153
  741TIP3   OH223713   6.417   4.633   0.687 -0.0037 -0.0058  0.8273
  741TIP3    H123714   6.511   4.634   0.670 -0.4644 -0.0825 -2.3032
  741TIP3    H223715   6.403   4.556   0.742  1.5817 -1.0192 -0.1281
  742TIP3   OH223716   6.111   6.030  14.163  0.2515  0.2980 -0.4333
  742TIP3    H123717   6.030   6.036  14.113  0.3704  2.1723 -0.4392
  742TIP3    H223718   6.180   6.034  14.097  0.3806 -1.1914 -0.4201
  743TIP3   OH223719   6.028   3.747  16.019  0.4806 -0.4464  0.3377
  743TIP3    H123720   6.117   3.743  16.055  0.0970 -0.5090  1.3269
  743TIP3    H223721   6.024   3.831  15.974  1.3946 -0.9511 -0.7108
  744TIP3   OH223722   4.860   0.870  14.354 -0.4274  0.2238  0.6301
  744TIP3    H123723   4.786   0.931  14.363 -0.6958  0.0147 -0.0809
  744TIP3    H223724   4.935   0.926  14.336 -0.3448  0.4604  1.6325
  745TIP3   OH223725   1.275   5.708  14.417  0.8739  0.0575  0.5440
  745TIP3    H123726   1.190   5.677  14.449 -1.5943  2.2051 -3.1587
  745TIP3    H223727   1.290   5.790  14.463  1.1678 -0.4714  1.4221
  746TIP3   OH223728   6.184   2.006  10.890  0.7468  0.5117  0.5082
  746TIP3    H123729   6.119   2.049  10.835  0.9367 -0.1850 -0.2767
  746TIP3    H223730   6.137   1.930  10.926  1.1357 -0.0449 -0.1344
  747TIP3   OH223731   0.733   0.847   2.869 -0.1146  0.1625 -0.2382
  747TIP3    H123732   0.690   0.852   2.784  0.8872 -1.7503 -0.9162
  747TIP3    H223733   0.823   0.874   2.852 -0.0644  0.3993  0.3623
  748TIP3   OH223734   1.609   0.834  10.932  0.0843 -0.1546  0.2671
  748TIP3    H123735   1.561   0.805  10.854  0.3810 -0.4170  0.1793
  748TIP3    H223736   1.541   0.859  10.994 -0.1501  0.3389 -0.1838
  749TIP3   OH223737   3.873   0.387   3.211 -0.1020  0.1287  0.3420
  749TIP3    H123738   3.957   0.362   3.251  0.6337 -0.0253 -1.2269
  749TIP3    H223739   3.835   0.304   3.182 -0.9384  0.1723  1.2754
  750TIP3   OH223740   1.502   5.811   0.761 -0.0796  0.1622  0.4170
  750TIP3    H123741   1.540   5.897   0.741  1.3141 -0.7618 -1.1538
  750TIP3    H223742   1.412   5.816   0.728 -1.4186  2.2594  3.8640
  751TIP3   OH223743   2.934   6.192  17.238  0.0546  0.3417 -0.1703
  751TIP3    H123744   2.943   6.120  17.300 -0.1626  1.4916  1.2402
  751TIP3    H223745   2.943   6.272  17.291  3.1326  1.4322 -2.0323
  752TIP3   OH223746   3.378   2.016   2.564  0.0951  0.2740  0.0433
  752TIP3    H123747   3.391   1.978   2.477  0.8385  0.4972  0.0420
  752TIP3    H223748   3.307   1.966   2.603  0.7684 -0.8514 -0.1184
  753TIP3   OH223749   1.363   0.528  13.930 -0.1602 -0.8327  0.5702
  753TIP3    H123750   1.436   0.558  13.876  0.2058 -0.5882  1.1859
  753TIP3    H223751   1.387   0.438  13.955 -0.6318 -1.1728 -0.1953
  754TIP3   OH223752   0.419   3.816  13.261  0.1073 -0.0796  0.1818
  754TIP3    H123753   0.401   3.782  13.174  0.7950 -0.7741  0.2978
  754TIP3    H223754   0.490   3.761  13.294 -0.2963  0.0262  1.2719
  755TIP3   OH223755   4.596   0.645  12.498  0.4204 -0.2182 -0.0009
  755TIP3    H123756   4.514   0.595  12.490  1.0748 -1.4212  0.4241
  755TIP3    H223757   4.582   0.701  12.574 -0.4436  0.5031 -0.6665
  756TIP3   OH223758   5.362   1.412   4.489 -0.7837 -0.2924  0.4627
  756TIP3    H123759   5.317   1.486   4.528 -1.7437  0.8505 -2.5079
  756TIP3    H223760   5.433   1.451   4.439 -0.7216 -1.4625 -0.4166
  757TIP3   OH223761   4.206   4.407  14.454  0.4330 -0.2018  0.0962
  757TIP3    H123762   4.141   4.475  14.436 -0.2975 -1.2227 -1.2721
  757TIP3    H223763   4.154   4.328  14.470  1.3183 -0.9282 -0.5471
  758TIP3   OH223764   0.542   0.269  13.467 -0.1887 -0.6455  0.3705
  758TIP3    H123765   0.504   0.357  13.458 -1.6233 -1.1783  0.8468
  758TIP3    H223766   0.620   0.270  13.412  0.3273  1.2052  1.0608
  759TIP3   OH223767   2.872   2.163   6.288  0.2608  0.6060 -0.0670
  759TIP3    H123768   2.809   2.118   6.346  0.1875  2.3018  1.2511
  759TIP3    H223769   2.935   2.095   6.264 -0.6368 -0.5344  0.6725
  760TIP3   OH223770   3.112   0.663  14.862  0.0343  0.2625 -0.4214
  760TIP3    H123771   3.047   0.726  14.892  0.6430  1.0560 -0.7542
  760TIP3    H223772   3.127   0.685  14.770  0.0487 -0.5426 -0.6205
  761TIP3   OH223773   2.402   0.983   2.770 -0.0998 -0.2630 -0.7614
  761TIP3    H123774   2.431   1.013   2.856  0.1219  0.6609 -1.1556
  761TIP3    H223775   2.379   0.891   2.784 -0.3983 -0.0326  0.3655
  762TIP3   OH223776   4.565   6.403  13.752  0.2999 -0.2122 -0.0653
  762TIP3    H123777   4.544   6.408  13.659 -1.7982  0.0381  0.3727
  762TIP3    H223778   4.481   6.415  13.796  0.8784 -2.4352  1.8297
  763TIP3   OH223779   3.693   5.397  12.613 -0.1427  0.2559  0.0889
  763TIP3    H123780   3.651   5.464  12.668  0.8831  0.6570  0.4197
  763TIP3    H223781   3.786   5.402  12.638  0.0361 -0.8741 -0.3300
  764TIP3   OH223782   6.131   0.723   5.041 -0.2297  0.7097 -0.5165
  764TIP3    H123783   6.104   0.815   5.051 -0.8230  0.4311  0.7403
  764TIP3    H223784   6.209   0.715   5.096 -0.6750  0.2762  0.0675
  765TIP3   OH223785   6.411   0.950   1.813 -0.1644  0.6104  0.2265
  765TIP3    H123786   6.383   1.040   1.831  0.2321  1.0936 -1.4587
  765TIP3    H223787   6.331   0.899   1.823 -0.2714  1.0285  1.8121
  766TIP3   OH223788   0.081   5.699  11.358 -0.5237 -0.2343  0.2679
  766TIP3    H123789   0.008   5.645  11.390 -0.3645 -0.8918 -0.4450
  766TIP3    H223790   0.145   5.635  11.326 -0.7740  0.3813 -1.5652
  767TIP3   OH223791   2.273   1.137  13.571  0.1088 -0.0859  0.2805
  767TIP3    H123792   2.269   1.210  13.633  0.1194 -0.2987  0.5353
  767TIP3    H223793   2.268   1.178  13.485 -0.6434  0.1540  0.4365
  768TIP3   OH223794   6.383   2.273  12.120  0.3811 -0.2080  0.2612
  768TIP3    H123795   6.416   2.200  12.174  0.6020 -0.7909 -0.6315
  768TIP3    H223796   6.411   2.351  12.166 -1.0348 -0.6503  1.9695
  769TIP3   OH223797   0.268   2.797   6.375  0.9025 -0.0900 -0.2946
  769TIP3    H123798   0.187   2.837   6.341  0.0496 -1.9497 -0.5756
  769TIP3    H223799   0.274   2.829   6.465 -0.3917 -0.2583 -0.1305
  770TIP3   OH223800   4.122   1.319  13.948 -0.1122  0.2718 -0.0968
  770TIP3    H123801   4.109   1.395  14.005  1.2499  1.8121 -1.7122
  770TIP3    H223802   4.212   1.329  13.916 -0.7848 -0.5569 -2.4299
  771TIP3   OH223803   1.425   0.915   1.621 -0.3315  0.4281  0.4820
  771TIP3    H123804   1.520   0.931   1.619 -0.5704  2.0019 -1.5278
  771TIP3    H223805   1.412   0.841   1.562 -0.4166  0.5722  0.3214
  772TIP3   OH223806   1.901   2.514   1.952 -0.0011  0.1550  0.1179
  772TIP3    H123807   1.943   2.597   1.931 -0.4910  0.2557 -0.4537
  772TIP3    H223808   1.853   2.490   1.873 -0.1328 -0.5065  0.3931
  773TIP3   OH223809   3.379   2.243  16.040 -0.0371  0.3246  0.3002
  773TIP3    H123810   3.391   2.150  16.062 -1.0824  0.7632  3.0784
  773TIP3    H223811   3.286   2.251  16.019  0.0500  0.7470  0.0673
  774TIP3   OH223812   3.919   6.038   3.625 -0.3806  0.3203 -0.5497
  774TIP3    H123813   4.007   6.074   3.618 -0.1888  0.3204  1.3418
  774TIP3    H223814   3.875   6.067   3.545  0.7702  1.8845 -0.6645
  775TIP3   OH223815   3.687   3.659   2.580 -0.0627  0.3379  0.2286
  775TIP3    H123816   3.695   3.701   2.666  0.4648  2.8031 -0.9428
  775TIP3    H223817   3.776   3.655   2.547 -0.4319  0.9873 -0.8790
  776TIP3   OH223818   6.717   1.789  12.394 -0.6823  0.1400 -0.3528
  776TIP3    H123819   6.764   1.741  12.325  0.1783  0.0981  0.2430
  776TIP3    H223820   6.640   1.735  12.413  0.6964 -1.5127  0.8989
  777TIP3   OH223821   3.615   4.892   5.951 -0.1963 -0.0880  0.0031
  777TIP3    H123822   3.696   4.931   5.918  0.8691 -1.6873  0.5716
  777TIP3    H223823   3.546   4.954   5.927  1.3471  2.0030  0.7039
  778TIP3   OH223824   4.299   2.329   1.629 -0.7165 -0.3713  0.3226
  778TIP3    H123825   4.304   2.407   1.684  3.1186 -1.2056  1.4050
  778TIP3    H223826   4.329   2.358   1.542 -0.1268 -0.4444  0.4989
  779TIP3   OH223827   5.325   2.361  13.936 -0.4492  0.0158 -0.4277
  779TIP3    H123828   5.269   2.438  13.942 -0.5318 -0.0840  0.2535
  779TIP3    H223829   5.264   2.287  13.934 -0.3954 -0.2351  2.5248
  780TIP3   OH223830   5.907   0.994  14.413 -0.0785  0.1275 -0.0610
  780TIP3    H123831   5.950   0.929  14.468  0.0737  0.6762  0.4879
  780TIP3    H223832   5.978   1.033  14.362 -0.2696 -0.6284 -0.9170
  781TIP3   OH223833   4.400   4.089   3.026 -0.0504  0.2081  0.6943
  781TIP3    H123834   4.411   4.048   2.941  1.4850  1.5734  0.1772
  781TIP3    H223835   4.348   4.168   3.009 -0.7250 -0.1044  1.2320
  782TIP3   OH223836   1.639   6.270   5.612  0.0830 -0.4343 -0.6454
  782TIP3    H123837   1.644   6.353   5.565 -3.1313  0.2138 -0.0809
  782TIP3    H223838   1.698   6.212   5.565 -0.7108  1.0183 -3.6826
  783TIP3   OH223839   1.842   5.987   5.634  0.5693  0.0213  0.8186
  783TIP3    H123840   1.868   6.014   5.722  0.0900  0.6426  0.7687
  783TIP3    H223841   1.766   5.930   5.648  0.4238  0.2106  0.8001
  784TIP3   OH223842   5.926   1.990   5.730 -0.4838  0.4254  0.3474
  784TIP3    H123843   5.928   1.895   5.736  1.4198  0.3738 -0.2245
  784TIP3    H223844   5.886   2.009   5.645  0.7954  0.0356 -0.3720
  785TIP3   OH223845   4.635   2.331  12.549 -0.2512 -0.2666 -0.4558
  785TIP3    H123846   4.664   2.380  12.626  0.0124 -1.5394  0.2751
  785TIP3    H223847   4.622   2.241  12.580 -3.1361 -0.2123 -1.1847
  786TIP3   OH223848   1.778   5.239  13.976  0.4384  0.3599  0.7354
  786TIP3    H123849   1.724   5.171  14.017  2.2816 -0.9279  1.1810
  786TIP3    H223850   1.807   5.200  13.894 -0.1961  1.4793 -0.0462
  787TIP3   OH223851   2.972   4.922   5.761  0.2147 -0.4387  1.0949
  787TIP3    H123852   2.970   4.829   5.786  1.8130 -1.8008 -3.0545
  787TIP3    H223853   3.062   4.950   5.778  0.7352 -0.7812 -0.8955
  788TIP3   OH223854   4.769   2.311   5.533  0.3848 -0.7586  0.2412
  788TIP3    H123855   4.814   2.394   5.549  0.6476 -0.9789  0.6836
  788TIP3    H223856   4.841   2.248   5.521  0.1874 -1.0057  0.3611
  789TIP3   OH223857   0.616   1.287   3.625  1.2131 -0.3605  0.3983
  789TIP3    H123858   0.689   1.228   3.605  2.2440  0.7543  0.7528
  789TIP3    H223859   0.658   1.367   3.658 -0.1931  0.1124  1.1213
  790TIP3   OH223860   1.505   5.302   1.599 -0.5356 -0.4008  0.5100
  790TIP3    H123861   1.560   5.249   1.658  0.1161  0.5846  0.8083
  790TIP3    H223862   1.482   5.379   1.651  0.2335  0.5950 -0.5729
  791TIP3   OH223863   3.029   0.259   2.297  0.5374 -0.1801 -0.5426
  791TIP3    H123864   3.123   0.243   2.312  0.3669 -1.3167 -0.5999
  791TIP3    H223865   2.988   0.174   2.309 -0.2305 -0.1647 -2.6094
  792TIP3   OH223866   0.890   0.276   4.251 -0.1515  0.0206 -0.0847
  792TIP3    H123867   0.861   0.362   4.221  0.1868  0.5528  1.0590
  792TIP3    H223868   0.810   0.234   4.283 -0.5262 -0.5759 -1.7036
  793TIP3   OH223869   6.451   6.506  14.044  0.0135 -0.0751  0.3184
  793TIP3    H123870   6.514   6.534  13.978 -0.4314  0.0092 -0.0723
  793TIP3    H223871   6.493   6.529  14.128 -0.2473  1.6065  0.0258
  794TIP3   OH223872   1.143   3.993  16.000 -0.2380  0.3718  0.2283
  794TIP3    H123873   1.062   3.985  16.051 -0.0683  0.8676  0.5924
  794TIP3    H223874   1.191   3.913  16.018 -0.2338  0.4917  0.7552
  795TIP3   OH223875   0.296   3.335   1.453 -0.0252 -0.4751  0.1175
  795TIP3    H123876   0.229   3.290   1.504 -1.2671 -1.0704 -1.9145
  795TIP3    H223877   0.316   3.414   1.504 -2.4413 -0.1724  0.7297
  796TIP3   OH223878   3.008   0.990   4.746 -0.5578  0.1511 -0.1124
  796TIP3    H123879   2.932   0.964   4.798 -0.0642 -1.2568 -0.0524
  796TIP3    H223880   3.083   0.967   4.800 -0.0021 -2.1897 -1.6974
  797TIP3   OH223881   0.120   2.722   0.113 -0.1046  0.3578  0.0855
  797TIP3    H123882   0.063   2.760   0.181  2.6619 -1.1372  3.6026
  797TIP3    H223883   0.060   2.672   0.057 -2.6508  2.1864  0.9531
  798TIP3   OH223884   6.615   1.145   3.215  0.3268 -0.4719  1.0088
  798TIP3    H123885   6.602   1.116   3.125  1.6459 -0.3951  0.7678
  798TIP3    H223886   6.581   1.074   3.269  0.9115 -1.1940  0.4379
  799TIP3   OH223887   2.030   4.909  11.218 -0.5136  0.0643  0.2021
  799TIP3    H123888   1.968   4.857  11.167 -1.1711  1.4827 -0.5200
  799TIP3    H223889   2.115   4.868  11.203 -1.2882 -2.2419  1.6360
  800TIP3   OH223890   2.655   0.856  14.934  0.4987 -0.0154 -0.1592
  800TIP3    H123891   2.702   0.899  14.861  2.0521  0.5684  1.1148
  800TIP3    H223892   2.586   0.806  14.891  1.0949  0.6295 -2.0117
  801TIP3   OH223893   1.314   5.896   2.285 -0.4188 -0.3021 -0.0207
  801TIP3    H123894   1.327   5.805   2.258 -0.5114 -0.2503 -0.2450
  801TIP3    H223895   1.398   5.938   2.268 -0.9296  0.1039 -1.7566
  802TIP3   OH223896   4.560   4.945   6.641  0.4220  0.3056  0.1287
  802TIP3    H123897   4.622   4.986   6.702 -0.3515  0.4899  0.8007
  802TIP3    H223898   4.524   5.018   6.591 -0.0324  0.3201  0.4703
  803TIP3   OH223899   0.347   3.301  17.245  0.6567  0.7144  0.4146
  803TIP3    H123900   0.373   3.222  17.292  1.3532  0.0605 -0.9963
  803TIP3    H223901   0.258   3.319  17.275  1.4972  1.0655  2.8759
  804TIP3   OH223902   5.205   6.180   0.555  0.0812 -0.3197  0.0001
  804TIP3    H123903   5.163   6.143   0.477 -1.0954 -0.6551  0.7603
  804TIP3    H223904   5.218   6.272   0.534  0.1620 -0.4911 -0.7400
  805TIP3   OH223905   1.179   4.742   6.245 -0.7159 -0.0288 -0.0517
  805TIP3    H123906   1.144   4.713   6.329 -1.9448  0.2873 -0.4354
  805TIP3    H223907   1.221   4.664   6.207 -0.4778 -0.2589  0.6784
  806TIP3   OH223908   3.548   6.555   6.340 -0.3425  0.2240 -0.4643
  806TIP3    H123909   3.475   6.587   6.394  0.5047  1.2177  0.1421
  806TIP3    H223910   3.506   6.519   6.262 -1.4309  2.6553 -1.1070
  807TIP3   OH223911   1.065   2.569  11.355 -0.7182 -0.4926 -0.3908
  807TIP3    H123912   1.082   2.477  11.338  0.1105 -0.4308  0.0845
  807TIP3    H223913   1.132   2.616  11.306  0.4901 -0.2425  1.4181
  808TIP3   OH223914   4.996   4.510  11.929 -0.0653 -0.3121 -0.0013
  808TIP3    H123915   5.032   4.588  11.887  0.7215  0.3077  1.7265
  808TIP3    H223916   4.928   4.544  11.987 -2.4819 -1.3225 -2.0184
  809TIP3   OH223917   4.936   4.749   4.166  0.0711 -0.0811  0.1194
  809TIP3    H123918   4.929   4.731   4.072 -1.6793 -0.0675  0.2219
  809TIP3    H223919   4.899   4.837   4.176 -0.2393 -0.2965  0.8950
  810TIP3   OH223920   3.742   4.645  13.251  0.6246  0.5418 -0.1659
  810TIP3    H123921   3.813   4.592  13.289 -1.4328 -1.7419  0.7594
  810TIP3    H223922   3.697   4.683  13.326 -1.0316 -0.6950 -0.4858
  811TIP3   OH223923   3.547   2.893  16.983  0.1775  0.4527 -0.3949
  811TIP3    H123924   3.584   2.981  16.976  0.9965  0.0728 -1.0176
  811TIP3    H223925   3.591   2.842  16.915 -0.2525 -0.4561 -0.0214
  812TIP3   OH223926   5.182   3.236  17.137 -0.2112 -0.0535  0.4227
  812TIP3    H123927   5.170   3.157  17.083 -1.7590  0.5405 -0.1738
  812TIP3    H223928   5.123   3.224  17.211  0.4522  0.0247  0.9797
  813TIP3   OH223929   4.327   3.304  13.239  0.3925 -0.3041 -0.2165
  813TIP3    H123930   4.374   3.287  13.157  2.2213 -0.1381  0.7343
  813TIP3    H223931   4.286   3.389  13.226  2.0195  0.4873 -0.4066
  814TIP3   OH223932   0.798   3.291  17.290  0.8531 -0.0190  0.1057
  814TIP3    H123933   0.826   3.222  17.350  0.5464  0.0349  0.3134
  814TIP3    H223934   0.723   3.254  17.244  0.3097  0.3857  0.6472
  815TIP3   OH223935   5.374   5.896  15.949 -0.0602 -0.2740 -0.1158
  815TIP3    H123936   5.367   5.805  15.976  0.5951 -0.2958 -0.0155
  815TIP3    H223937   5.296   5.938  15.986 -0.0925 -0.6821  0.2836
  816TIP3   OH223938   4.346   6.650  15.875  0.1835 -0.1887  0.0737
  816TIP3    H123939   4.308   6.572  15.834  0.2167 -0.3540  0.3477
  816TIP3    H223940   4.291   6.664  15.953 -0.3517  0.5722 -0.4293
  817TIP3   OH223941   6.017   0.976  12.150  0.0709 -0.6258 -0.1681
  817TIP3    H123942   6.020   1.068  12.175  1.7128 -1.2458  2.2633
  817TIP3    H223943   6.056   0.974  12.063  0.3093  0.9368 -0.1317
  818TIP3   OH223944   2.177   1.201   6.287  0.3119  0.0920 -0.3045
  818TIP3    H123945   2.192   1.133   6.352  0.4438  0.5328  0.1349
  818TIP3    H223946   2.260   1.206   6.239  0.3503  0.0419 -0.2449
  819TIP3   OH223947   1.006   2.835   3.737  0.4505 -0.3781 -1.1198
  819TIP3    H123948   1.029   2.748   3.769  0.2046  0.2578  0.9677
  819TIP3    H223949   0.957   2.875   3.809  1.8200  2.0167 -1.3890
  820TIP3   OH223950   5.375   5.642  16.045  0.3024  0.5839  0.4743
  820TIP3    H123951   5.460   5.609  16.016  0.2963 -0.0906  1.1816
  820TIP3    H223952   5.346   5.578  16.111  0.1823  1.8931  1.7258
  821TIP3   OH223953   0.824   3.904  11.142  0.4473  0.4266  0.1020
  821TIP3    H123954   0.919   3.898  11.131  0.2586  0.1590 -1.6593
  821TIP3    H223955   0.788   3.846  11.075 -0.9798  1.7914 -0.3907
  822TIP3   OH223956   1.408   4.081  16.761 -0.1567 -0.2949  0.5419
  822TIP3    H123957   1.385   3.989  16.747  0.4858 -0.4791  0.6821
  822TIP3    H223958   1.328   4.129  16.738 -0.6965 -0.9260  1.0410
  823TIP3   OH223959   5.294   2.383   3.486 -0.4433 -0.0451 -0.1933
  823TIP3    H123960   5.274   2.384   3.393 -1.6747  1.8677  0.0416
  823TIP3    H223961   5.245   2.457   3.522 -1.0300 -1.4941  2.1971
  824TIP3   OH223962   1.340   0.498  11.217  0.4237  0.4743 -0.3089
  824TIP3    H123963   1.259   0.447  11.223 -0.4729  1.7660 -1.0182
  824TIP3    H223964   1.386   0.480  11.299  0.4059 -1.8586 -0.7277
  825TIP3   OH223965   5.259   4.756   4.931  0.0769  0.1425 -0.4784
  825TIP3    H123966   5.265   4.714   5.017  1.9529  0.8507 -0.2238
  825TIP3    H223967   5.326   4.712   4.878  0.8552  1.5699 -0.7215
  826TIP3   OH223968   1.687   4.246   3.667 -0.3097 -0.3003  0.2751
  826TIP3    H123969   1.765   4.204   3.703 -1.0525  0.6933  3.3236
  826TIP3    H223970   1.720   4.319   3.616  0.7723 -0.8684  0.1373
  827TIP3   OH223971   4.652   3.200  12.724  0.0254 -0.7158  0.0233
  827TIP3    H123972   4.603   3.175  12.645 -0.7276 -1.3450  0.6643
  827TIP3    H223973   4.653   3.295  12.722  1.1443 -0.7219 -1.4071
  828TIP3   OH223974   0.166   6.259  12.041 -0.0905  0.5845  0.0925
  828TIP3    H123975   0.260   6.242  12.036 -0.0411  1.0242 -0.5448
  828TIP3    H223976   0.126   6.173  12.033  0.1882  0.5898 -1.9858
  829TIP3   OH223977   5.372   4.268   5.758 -0.3335 -0.5841  0.0330
  829TIP3    H123978   5.446   4.267   5.698 -0.7031 -1.0783 -0.4251
  829TIP3    H223979   5.302   4.222   5.710 -1.3571  1.0275 -0.1099
  830TIP3   OH223980   5.503   1.277  14.245 -0.0511 -0.3056  0.1326
  830TIP3    H123981   5.550   1.326  14.177  0.6572 -2.1507 -0.7670
  830TIP3    H223982   5.424   1.246  14.202  0.1562 -1.0639  0.2845
  831TIP3   OH223983   6.719   5.337   4.607 -0.2070 -0.5771  0.0479
  831TIP3    H123984   6.758   5.251   4.597 -0.5763 -0.5735 -1.7321
  831TIP3    H223985   6.629   5.326   4.577 -0.3635  0.3495  0.1451
  832TIP3   OH223986   1.215   5.067   1.142 -0.2868 -0.6547  0.2786
  832TIP3    H123987   1.230   5.026   1.056 -1.6124 -0.8157  0.0991
  832TIP3    H223988   1.205   5.160   1.123  2.0050 -0.2731  0.6034
  833TIP3   OH223989   4.802   0.388   3.663 -0.1016  0.2647  0.3702
  833TIP3    H123990   4.839   0.307   3.627 -0.2043 -0.3711  1.6252
  833TIP3    H223991   4.878   0.443   3.682 -0.0967  1.1562 -1.9563
  834TIP3   OH223992   0.608   2.138   3.275 -0.0364  0.5982 -0.3800
  834TIP3    H123993   0.679   2.187   3.316 -0.1546  1.2307 -0.9231
  834TIP3    H223994   0.541   2.204   3.256 -0.3757  0.1569 -0.7313
  835TIP3   OH223995   1.049   5.950  13.049 -0.1528  0.5501 -0.0081
  835TIP3    H123996   1.135   5.907  13.051  0.2040  1.2207 -0.5124
  835TIP3    H223997   1.001   5.903  12.980  0.1142  0.7436 -0.3244
  836TIP3   OH223998   2.153   5.041   5.374  0.3831  0.1937  0.7973
  836TIP3    H123999   2.152   4.992   5.456  1.8732 -1.9880 -0.3965
  836TIP3    H224000   2.062   5.039   5.344 -0.0360  0.3735  2.0126
  837TIP3   OH224001   0.404   5.907   0.972  0.8764  0.7947  0.1262
  837TIP3    H124002   0.407   5.829   0.916  1.0596  0.0520  1.1416
  837TIP3    H224003   0.433   5.978   0.916  1.9176 -0.0863 -0.4805
  838TIP3   OH224004   6.097   4.471  16.447  0.0491 -0.3267 -0.3830
  838TIP3    H124005   6.079   4.474  16.354  1.7289 -1.1099 -0.7788
  838TIP3    H224006   6.114   4.562  16.472  3.2153 -0.4189 -1.6967
  839TIP3   OH224007   4.785   0.476   5.540  0.5907  0.4441  0.5540
  839TIP3    H124008   4.869   0.431   5.535 -0.3835 -1.3429 -1.9924
  839TIP3    H224009   4.731   0.421   5.597  0.4814  0.3309  0.3439
  840TIP3   OH224010   5.641   2.096   5.726  0.1902 -0.0894 -0.6672
  840TIP3    H124011   5.732   2.115   5.746  0.0982  0.6477 -0.9134
  840TIP3    H224012   5.600   2.079   5.811  0.3364  0.5837 -0.4593
  841TIP3   OH224013   3.544   0.808   1.850 -0.2420 -0.0861  0.1746
  841TIP3    H124014   3.476   0.812   1.783  0.6016 -0.9125 -0.7600
  841TIP3    H224015   3.586   0.723   1.837  1.5169  0.7369  0.1737
  842TIP3   OH224016   4.097   4.143  12.699 -0.4250  0.6189  0.1920
  842TIP3    H124017   4.183   4.153  12.739  0.3996 -0.3541 -1.2640
  842TIP3    H224018   4.042   4.109  12.769  0.0066  2.4493  1.5018
  843TIP3   OH224019   2.723   1.008   0.242 -0.3704  0.2623  0.4821
  843TIP3    H124020   2.747   1.097   0.215  2.7269 -1.0040 -1.4708
  843TIP3    H224021   2.785   0.986   0.311 -1.9678  0.0152  1.8953
  844TIP3   OH224022   2.211   2.090   3.037 -0.3505  0.1923 -0.0867
  844TIP3    H124023   2.192   2.028   3.107 -0.4141 -0.4973 -0.7000
  844TIP3    H224024   2.301   2.119   3.053  0.6645 -2.0739 -1.2432
  845TIP3   OH224025   0.906   5.809   3.318  0.1751 -0.1910  0.1206
  845TIP3    H124026   0.977   5.851   3.367 -0.7049  1.2620  0.2088
  845TIP3    H224027   0.917   5.716   3.336  0.9605  0.1474  1.6189
  846TIP3   OH224028   3.354   5.185  12.182 -0.2228 -0.1041  0.0594
  846TIP3    H124029   3.307   5.221  12.107 -1.2699 -0.4569  0.5248
  846TIP3    H224030   3.410   5.256  12.212 -0.7159  0.4455 -0.2982
  847TIP3   OH224031   0.578   6.363  15.573  0.4132  0.6008  0.4540
  847TIP3    H124032   0.579   6.341  15.480  0.5662 -0.5617  0.7149
  847TIP3    H224033   0.669   6.386  15.594  0.0270  2.8368 -0.1006
  848TIP3   OH224034   0.843   1.201  13.120 -0.1906  0.3284 -0.1023
  848TIP3    H124035   0.784   1.204  13.196 -0.8199  0.0829 -0.5725
  848TIP3    H224036   0.819   1.121  13.074 -0.5316  0.9848 -1.1163
  849TIP3   OH224037   1.947   2.326   4.031 -0.7612 -0.0499 -0.3586
  849TIP3    H124038   1.995   2.246   4.052  0.0470  0.4575 -0.2366
  849TIP3    H224039   2.014   2.395   4.029 -1.6790  0.9626  1.3815
  850TIP3   OH224040   1.311   4.423   0.782  0.0517  0.5607 -0.0550
  850TIP3    H124041   1.299   4.339   0.825  0.1896 -0.5312 -2.0518
  850TIP3    H224042   1.349   4.479   0.850  0.9562 -1.2855  1.0328
  851TIP3   OH224043   4.137   3.731  13.814  0.3451 -0.0208 -0.4227
  851TIP3    H124044   4.112   3.687  13.895 -1.3538  1.0532 -0.3265
  851TIP3    H224045   4.215   3.781  13.837  0.9846 -1.1911  0.0396
  852TIP3   OH224046   0.901   1.111  14.390  0.2452  0.0918 -0.8203
  852TIP3    H124047   0.922   1.105  14.483 -1.5115  0.6673 -0.3383
  852TIP3    H224048   0.970   1.165  14.352  0.7727  0.1723  0.2303
  853TIP3   OH224049   3.940   2.668  12.094 -0.5238 -0.9363 -0.3219
  853TIP3    H124050   3.984   2.623  12.022 -0.0604  0.1927 -0.7688
  853TIP3    H224051   3.847   2.654  12.078 -0.4170 -0.9233 -1.0034
  854TIP3   OH224052   6.584   6.662  17.292  0.4625 -0.1745 -0.4483
  854TIP3    H124053   6.502   6.657  17.243 -0.1138 -1.2732  0.5744
  854TIP3    H224054   6.557   6.687  17.381  0.9690 -2.3665  0.3907
  855TIP3   OH224055   0.338   4.029  11.451  0.3818 -0.2844  0.1961
  855TIP3    H124056   0.368   4.092  11.387  0.4116  0.3612  0.8371
  855TIP3    H224057   0.380   3.946  11.425  0.1276 -0.1096 -0.7952
  856TIP3   OH224058   2.639   3.503  10.691  0.2303  0.3205 -0.2102
  856TIP3    H124059   2.623   3.414  10.660  0.7457  0.2131 -0.1790
  856TIP3    H224060   2.669   3.491  10.782  1.4402  0.4383 -0.5767
  857TIP3   OH224061   0.470   4.864  14.242  0.0741  0.0923  0.0216
  857TIP3    H124062   0.548   4.851  14.296 -0.8450 -0.3095  1.2997
  857TIP3    H224063   0.398   4.869  14.305 -1.0337 -0.3135 -1.1721
  858TIP3   OH224064   4.497   5.642  12.607 -0.8445  0.3740 -0.6974
  858TIP3    H124065   4.563   5.711  12.603 -1.3083  0.8179 -0.8812
  858TIP3    H224066   4.414   5.690  12.616 -0.9787 -0.2132  1.8738
  859TIP3   OH224067   1.962   6.466   1.717 -0.2036  0.2134  0.1733
  859TIP3    H124068   1.936   6.480   1.626  0.2423  2.1378  0.3025
  859TIP3    H224069   2.057   6.460   1.714 -0.2621 -0.9604  0.3812
  860TIP3   OH224070   0.264   4.024  12.550  0.9223  0.3666  0.2519
  860TIP3    H124071   0.293   3.998  12.462 -0.1232  0.7179 -0.2131
  860TIP3    H224072   0.335   4.080  12.583  0.7041  1.3727 -0.9294
  861TIP3   OH224073   6.746   4.333   5.268  0.3294  0.0482  0.0242
  861TIP3    H124074   6.773   4.242   5.259 -0.2643 -0.2137  0.8075
  861TIP3    H224075   6.821   4.377   5.309  0.7065 -0.0324 -0.5732
  862TIP3   OH224076   4.406   0.188  15.149  0.0325 -0.1896  0.1444
  862TIP3    H124077   4.378   0.266  15.100  2.4791  0.7978  0.1673
  862TIP3    H224078   4.445   0.223  15.229  0.3801 -1.5004  0.5688
  863TIP3   OH224079   5.164   2.298  14.177 -0.4669 -0.2515  0.5997
  863TIP3    H124080   5.121   2.373  14.218  0.6115  1.1925 -0.7870
  863TIP3    H224081   5.128   2.294  14.089  2.9462  1.8486 -1.0987
  864TIP3   OH224082   5.849   6.791   5.381 -0.3379 -0.6566  0.4121
  864TIP3    H124083   5.884   6.765   5.466  1.9295 -3.5362 -1.2038
  864TIP3    H224084   5.904   6.865   5.355  1.1971 -1.8096  0.1775
  865TIP3   OH224085   0.141   3.450   5.023  0.1957  0.2763 -0.2682
  865TIP3    H124086   0.124   3.361   4.993 -0.2067 -0.3431  1.6266
  865TIP3    H224087   0.058   3.496   5.013 -0.0198 -0.0139  0.1440
  866TIP3   OH224088   3.462   3.867  15.175  0.6226 -0.3218 -0.5184
  866TIP3    H124089   3.542   3.829  15.212 -0.3759 -1.8846  0.1636
  866TIP3    H224090   3.440   3.938  15.234  2.1717  0.9934 -1.4352
  867TIP3   OH224091   5.698   1.685   2.727  0.2253 -0.1464  0.5814
  867TIP3    H124092   5.631   1.716   2.666 -0.2519 -1.3251  0.4952
  867TIP3    H224093   5.696   1.748   2.799  0.7954  1.2778 -0.5793
  868TIP3   OH224094   0.322   1.086  11.332 -0.7769 -0.3272 -0.0093
  868TIP3    H124095   0.412   1.054  11.338  0.4389  1.1341 -5.2755
  868TIP3    H224096   0.275   1.018  11.285 -1.3687  0.5006 -0.6418
  869TIP3   OH224097   0.001   5.178  11.351 -0.9699  0.0615  0.1587
  869TIP3    H124098  -0.033   5.116  11.286 -0.8533  0.1506  0.0136
  869TIP3    H224099   0.096   5.175  11.340 -1.0178  1.2740 -0.7833
  870TIP3   OH224100   6.478   4.713   6.381  0.1703  0.1525 -0.0890
  870TIP3    H124101   6.524   4.697   6.299  0.7814  0.7079  0.1403
  870TIP3    H224102   6.476   4.809   6.389 -0.9808  0.1438 -0.0708
  871TIP3   OH224103   4.753   1.339  15.985 -0.0326 -0.2276 -0.7890
  871TIP3    H124104   4.743   1.244  15.996  2.8877 -0.5435  0.1288
  871TIP3    H224105   4.704   1.377  16.057  2.2047 -1.3492  1.4846
  872TIP3   OH224106   4.508   3.136  14.038 -0.3692 -0.0049  0.0212
  872TIP3    H124107   4.417   3.150  14.062  0.0111  1.3451  0.7647
  872TIP3    H224108   4.552   3.113  14.120 -0.0265 -0.5839 -0.3175
  873TIP3   OH224109   0.407   6.092   0.445 -0.5624  0.1913 -0.0634
  873TIP3    H124110   0.440   6.029   0.381  0.6024  0.0879  0.6299
  873TIP3    H224111   0.456   6.075   0.525 -1.9946  0.3242  0.8920
  874TIP3   OH224112   6.086   4.725  15.709  0.0094 -0.5666 -0.4645
  874TIP3    H124113   6.008   4.777  15.730  0.0020 -0.1988 -1.3879
  874TIP3    H224114   6.060   4.635  15.727 -0.3995 -0.3806 -0.1032
  875TIP3   OH224115   3.249   3.482  13.207 -0.8077  0.6581 -0.9166
  875TIP3    H124116   3.187   3.544  13.167 -0.5970  1.2492 -0.3520
  875TIP3    H224117   3.318   3.537  13.243 -0.9731  0.1566  0.2267
  876TIP3   OH224118   0.858   5.597  12.550  0.2912  0.4065 -0.2172
  876TIP3    H124119   0.769   5.633  12.553  0.5902  1.1091  0.4011
  876TIP3    H224120   0.846   5.503  12.567 -0.3074  0.5399  0.1402
  877TIP3   OH224121   3.865   3.627   1.857  0.0384 -0.2227 -0.1139
  877TIP3    H124122   3.854   3.636   1.763 -0.4530 -0.4490 -0.0811
  877TIP3    H224123   3.778   3.643   1.893  0.0203 -1.0883  0.2324
  878TIP3   OH224124   6.006   5.380   6.139 -0.8600 -0.4703  1.2078
  878TIP3    H124125   6.053   5.299   6.156 -1.0531 -0.5651  1.2901
  878TIP3    H224126   6.002   5.424   6.223 -2.2829 -1.1876  1.5536
  879TIP3   OH224127   1.945   1.928   2.793 -0.5392 -0.2794 -0.4896
  879TIP3    H124128   1.974   2.017   2.774 -0.4818  0.4479  2.5091
  879TIP3    H224129   2.012   1.872   2.752 -0.3850  1.0049 -2.1063
  880TIP3   OH224130   4.606   0.486   5.970  0.3714  0.2579 -0.1082
  880TIP3    H124131   4.696   0.506   5.945  1.2931 -0.5379  2.2791
  880TIP3    H224132   4.558   0.567   5.956  0.6055 -0.1369 -4.5328
  881TIP3   OH224133   4.435   1.329   3.029  0.5276  0.2173 -0.0141
  881TIP3    H124134   4.506   1.274   3.064 -1.2080 -0.4661  2.7240
  881TIP3    H224135   4.480   1.405   2.992  2.7860 -1.2210 -0.4519
  882TIP3   OH224136   5.275   3.345  14.697 -0.2226  0.0886  0.3040
  882TIP3    H124137   5.338   3.369  14.765 -0.0148  0.7998 -0.1275
  882TIP3    H224138   5.325   3.351  14.615 -0.4329 -0.8808  0.0910
  883TIP3   OH224139   2.125   2.837   0.937  0.6015  0.5344 -0.1702
  883TIP3    H124140   2.039   2.852   0.975  0.7649 -0.6544  0.7209
  883TIP3    H224141   2.183   2.896   0.984  0.0294  2.8567 -2.1369
  884TIP3   OH224142   5.821   3.567   0.462 -0.1640 -0.1806 -0.3839
  884TIP3    H124143   5.879   3.491   0.473  1.7754  1.2443 -0.2634
  884TIP3    H224144   5.838   3.621   0.539 -1.4894  0.4208 -0.4962
  885TIP3   OH224145   4.592   0.949   5.057  0.5961  0.4324  0.3341
  885TIP3    H124146   4.613   0.936   4.965  0.7756  0.6799  0.3408
  885TIP3    H224147   4.617   1.039   5.076 -1.5919  1.1470  0.0384
  886TIP3   OH224148   3.603   4.298  14.992 -0.0905  0.2232 -0.0793
  886TIP3    H124149   3.567   4.210  14.982 -0.5350  0.3313  0.5328
  886TIP3    H224150   3.535   4.347  15.039  0.3587  0.7611  0.0224
  887TIP3   OH224151   0.401   1.502   1.389 -0.0730  0.0284 -0.0362
  887TIP3    H124152   0.311   1.534   1.387 -0.5106 -1.1240  0.4117
  887TIP3    H224153   0.413   1.467   1.477  0.9165  0.4157  0.0024
  888TIP3   OH224154   6.807   4.887  14.265  0.1089 -0.3120 -0.7436
  888TIP3    H124155   6.799   4.817  14.200  0.6737 -2.1525  1.0851
  888TIP3    H224156   6.728   4.939  14.253 -0.4777 -1.4212 -1.9822
  889TIP3   OH224157   4.141   2.209  16.813  0.5017  0.3251  0.0035
  889TIP3    H124158   4.198   2.224  16.888 -0.8846  1.8972  0.8135
  889TIP3    H224159   4.073   2.151  16.847  0.5392  0.0587 -0.3796
  890TIP3   OH224160   2.505   0.584   3.859  0.1509 -0.7278  0.1370
  890TIP3    H124161   2.450   0.595   3.936  1.2096  1.1540  0.6633
  890TIP3    H224162   2.488   0.661   3.805 -1.2455 -2.4155 -2.0159
  891TIP3   OH224163   6.072   2.259   0.512  0.1880  0.0464 -0.6164
  891TIP3    H124164   6.053   2.172   0.547 -0.8046 -0.2874 -1.9187
  891TIP3    H224165   6.039   2.319   0.579  1.0386 -0.5620  0.3735
  892TIP3   OH224166   5.324   6.811   0.356  0.0467  0.1881 -0.4175
  892TIP3    H124167   5.290   6.773   0.275  2.2222 -0.2923 -1.1880
  892TIP3    H224168   5.368   6.892   0.328 -0.1837  0.6236  0.4552
  893TIP3   OH224169   6.170   1.694  11.483  0.1306  0.0344 -0.0598
  893TIP3    H124170   6.115   1.704  11.405  0.3811  0.3440 -0.1993
  893TIP3    H224171   6.228   1.770  11.481  0.1447  0.0393  0.4276
  894TIP3   OH224172   2.229   6.095   2.118 -0.1693  0.1307  0.2448
  894TIP3    H124173   2.247   6.188   2.134 -1.7755  0.5756 -0.3057
  894TIP3    H224174   2.146   6.095   2.070  0.2249 -1.5613 -0.4913
  895TIP3   OH224175   3.107   4.376   3.029 -0.5337 -0.1802  0.0759
  895TIP3    H124176   3.104   4.290   2.987 -2.2227  0.1687 -0.6013
  895TIP3    H224177   3.146   4.360   3.115 -2.3369 -1.9462  0.6398
  896TIP3   OH224178   3.474   3.226  15.695 -0.0831  0.2619 -0.5744
  896TIP3    H124179   3.514   3.157  15.641 -0.7198  0.0144 -0.7376
  896TIP3    H224180   3.545   3.256  15.752  0.5766  0.4506 -1.4713
  897TIP3   OH224181   0.232   0.521   1.362 -0.3307 -0.1779  0.3279
  897TIP3    H124182   0.257   0.534   1.453 -1.6175 -0.3069  0.7195
  897TIP3    H224183   0.164   0.587   1.346  0.6313  0.5592 -0.8662
  898TIP3   OH224184   3.316   3.687   4.821 -0.0103 -0.2546 -0.1633
  898TIP3    H124185   3.259   3.763   4.813 -1.3401 -1.1236  0.6809
  898TIP3    H224186   3.383   3.714   4.884 -1.5552 -0.3572  1.6065
  899TIP3   OH224187   3.143   4.495  15.264  0.2756  0.6791 -0.5878
  899TIP3    H124188   3.100   4.566  15.313  1.1825 -0.1116  1.4643
  899TIP3    H224189   3.125   4.416  15.315 -1.0874 -0.7256 -3.0507
  900TIP3   OH224190   3.172   2.194  16.355  0.0948  0.8818 -0.7093
  900TIP3    H124191   3.213   2.119  16.398 -0.6005 -0.8352 -2.9113
  900TIP3    H224192   3.240   2.262  16.357  1.6882 -0.6296 -0.9278
  901TIP3   OH224193   3.592   3.908  13.071 -0.2812 -0.1799  0.2757
  901TIP3    H124194   3.679   3.872  13.054 -1.1368 -3.3071  1.7257
  901TIP3    H224195   3.563   3.942  12.986  1.4565 -1.1974 -0.7830
  902TIP3   OH224196   3.883   4.331   4.887  0.0446 -0.2010 -0.0013
  902TIP3    H124197   3.791   4.320   4.909  0.5561 -1.9613  1.5872
  902TIP3    H224198   3.912   4.405   4.941  0.1655 -1.4452  1.7243
  903TIP3   OH224199   2.474   0.354   0.089  0.0735 -0.0923  0.1907
  903TIP3    H124200   2.492   0.444   0.063 -0.2161 -0.0611  0.0938
  903TIP3    H224201   2.411   0.322   0.024 -0.4772 -0.0906  0.7130
  904TIP3   OH224202   4.059   6.711   1.109 -0.0099  0.1357 -0.1447
  904TIP3    H124203   4.150   6.703   1.137  0.9809  0.8305 -2.8668
  904TIP3    H224204   4.062   6.773   1.035 -2.5767 -0.3824 -0.7673
  905TIP3   OH224205   2.096   3.358  13.588 -0.3173  0.0210 -0.3907
  905TIP3    H124206   2.190   3.344  13.581 -0.4903 -1.0757 -0.7870
  905TIP3    H224207   2.087   3.445  13.627  0.8569 -0.0642  0.1129
  906TIP3   OH224208   0.031   5.156   2.358 -0.0679 -0.3964  0.1215
  906TIP3    H124209  -0.056   5.184   2.330 -0.8639  1.3504  3.8350
  906TIP3    H224210   0.022   5.061   2.371 -1.2664 -0.3081  0.0345
  907TIP3   OH224211   0.717   1.036   0.792  0.1129  0.1232  0.1837
  907TIP3    H124212   0.734   1.060   0.701 -1.9311  2.2887  0.2896
  907TIP3    H224213   0.625   1.009   0.793  0.3432 -0.6884  1.4782
  908TIP3   OH224214   5.928   5.151  16.878 -0.5799 -0.0321 -0.1628
  908TIP3    H124215   5.906   5.058  16.869 -2.0074  0.1529  1.0181
  908TIP3    H224216   5.930   5.166  16.972  2.5698  0.5326 -0.2241
  909TIP3   OH224217   3.856   2.723   5.382  0.8091 -0.2513 -0.2036
  909TIP3    H124218   3.861   2.817   5.396 -0.8118 -0.3210  1.1210
  909TIP3    H224219   3.913   2.707   5.307  1.6878  1.6645 -0.0059
  910TIP3   OH224220   4.116   0.335  14.493 -0.0629  0.0712  0.3143
  910TIP3    H124221   4.057   0.285  14.549  0.0711 -0.0629  0.3379
  910TIP3    H224222   4.203   0.321  14.532  0.1823 -0.8711 -0.5272
  911TIP3   OH224223   5.359   4.276  12.489  0.6220 -0.8406  0.4317
  911TIP3    H124224   5.269   4.309  12.499  0.0999 -2.2864  0.8788
  911TIP3    H224225   5.351   4.181  12.504  1.7926 -1.4339 -2.1725
  912TIP3   OH224226   5.411   2.785  14.581 -0.2608 -0.5753  0.1118
  912TIP3    H124227   5.321   2.804  14.555 -0.7617 -1.1358  1.3527
  912TIP3    H224228   5.407   2.698  14.620  0.4956  0.0403  1.6339
  913TIP3   OH224229   5.839   1.867  16.806  0.3942  0.0300  0.0315
  913TIP3    H124230   5.766   1.804  16.811  0.1428  0.3773  1.2547
  913TIP3    H224231   5.831   1.907  16.720 -0.4637 -0.4306 -0.1167
  914TIP3   OH224232   3.108   1.468   4.855 -0.7031  0.2200  0.0746
  914TIP3    H124233   3.040   1.535   4.857 -1.8381 -0.8320  3.0844
  914TIP3    H224234   3.160   1.484   4.934  0.1308 -1.3362 -0.1079
  915TIP3   OH224235   0.302   4.166   1.283 -0.1820 -0.5486  0.1505
  915TIP3    H124236   0.387   4.153   1.241  0.0632  0.6186  0.2538
  915TIP3    H224237   0.253   4.086   1.263  0.5870 -0.8115 -0.7557
  916TIP3   OH224238   1.192   4.594   3.694  0.1257  0.0733 -0.4021
  916TIP3    H124239   1.115   4.640   3.660  0.7980  1.0182 -0.6767
  916TIP3    H224240   1.220   4.538   3.621 -0.7701 -0.9020 -0.0236
  917TIP3   OH224241   6.409   5.303   1.605 -0.0705 -0.0018 -0.2789
  917TIP3    H124242   6.348   5.376   1.613  0.8825  0.9374 -1.2456
  917TIP3    H224243   6.369   5.245   1.540  0.3151  0.9047 -1.3534
  918TIP3   OH224244   5.962   0.748  11.018  0.9747 -0.3818  0.2324
  918TIP3    H124245   5.958   0.662  11.061 -0.4414 -0.2047  0.5052
  918TIP3    H224246   5.880   0.790  11.042  1.4348  0.8656 -0.3153
  919TIP3   OH224247   4.516   1.709   1.086  0.0931  0.0918  0.4721
  919TIP3    H124248   4.566   1.762   1.149  0.7110 -0.3749  0.3919
  919TIP3    H224249   4.453   1.661   1.140 -0.0197  0.4054  0.6218
  920TIP3   OH224250   3.947   2.431   5.027 -0.3004  0.5371  0.0924
  920TIP3    H124251   3.954   2.526   5.016  0.1298  0.6039  0.8769
  920TIP3    H224252   3.912   2.400   4.944  0.0508  1.3289 -0.3656
  921TIP3   OH224253   1.659   5.316   6.742  0.4948 -0.3575 -0.0833
  921TIP3    H124254   1.753   5.302   6.726  1.0922  1.2790  1.6618
  921TIP3    H224255   1.619   5.230   6.726  2.2956 -1.1301 -0.7069
  922TIP3   OH224256   4.638   3.784   3.344 -0.7836  0.6292 -0.0624
  922TIP3    H124257   4.720   3.813   3.304 -0.4359  1.8835  1.4835
  922TIP3    H224258   4.662   3.761   3.434 -1.8849 -0.3626  0.0023
  923TIP3   OH224259   0.429   5.178  16.827 -0.3428 -0.2055 -0.4235
  923TIP3    H124260   0.374   5.110  16.866  1.4020 -0.8594  1.0262
  923TIP3    H224261   0.485   5.207  16.899  1.4487  0.1706 -1.9076
  924TIP3   OH224262   0.916   6.758  15.050 -0.1908 -0.0198  0.4639
  924TIP3    H124263   0.854   6.690  15.074 -1.0870 -0.4137 -2.4648
  924TIP3    H224264   0.880   6.838  15.089  0.0389 -0.9456  2.6547
  925TIP3   OH224265   0.834   4.163  14.072  0.2604  0.6089 -0.6201
  925TIP3    H124266   0.819   4.069  14.059  0.8512  0.3732  0.2821
  925TIP3    H224267   0.828   4.201  13.984 -0.4623 -0.1976 -0.9289
  926TIP3   OH224268   3.226   0.320  15.464 -0.0391 -0.3905 -0.0954
  926TIP3    H124269   3.311   0.279  15.485 -0.1546 -0.0126  1.2107
  926TIP3    H224270   3.168   0.246  15.445 -0.1307 -0.8672  1.8155
  927TIP3   OH224271   2.451   1.654  15.243 -0.1221 -0.4295  0.4213
  927TIP3    H124272   2.413   1.719  15.185  1.3516  0.8176  0.7894
  927TIP3    H224273   2.408   1.669  15.327 -1.7937 -1.8130 -0.1535
  928TIP3   OH224274   1.313   1.590   4.744  0.0406 -0.1320  0.1975
  928TIP3    H124275   1.387   1.533   4.762 -0.6862 -1.6513 -1.2802
  928TIP3    H224276   1.237   1.531   4.745 -0.7361  0.7670 -1.4424
  929TIP3   OH224277   2.554   3.597  12.242  0.0647 -0.1262 -0.5097
  929TIP3    H124278   2.520   3.512  12.270 -1.4463  0.1929 -1.2904
  929TIP3    H224279   2.503   3.660  12.292  2.0564  0.3598  1.0461
  930TIP3   OH224280   2.712   1.148   4.600 -0.0470  0.3650  0.8889
  930TIP3    H124281   2.756   1.164   4.683 -0.7511 -0.4149  1.4296
  930TIP3    H224282   2.778   1.105   4.546  0.1093 -0.0387  1.3943
  931TIP3   OH224283   2.485   2.320   2.621  0.7788  0.8074  0.3846
  931TIP3    H124284   2.459   2.241   2.668 -0.4478  0.2948 -1.0924
  931TIP3    H224285   2.418   2.384   2.643 -0.8226  0.0553 -1.9092
  932TIP3   OH224286   4.553   6.802   0.478 -0.7447 -0.7227 -0.2383
  932TIP3    H124287   4.641   6.823   0.446 -1.5837  0.6255 -1.8125
  932TIP3    H224288   4.546   6.707   0.470  0.6769 -0.8959  0.2584
  933TIP3   OH224289   0.587   5.743   5.108  0.0961  0.2018 -0.3140
  933TIP3    H124290   0.628   5.828   5.122 -0.1481  0.3597 -0.5658
  933TIP3    H224291   0.587   5.703   5.195  0.8575  0.1626 -0.3198
  934TIP3   OH224292   1.496   4.106   2.737  0.1371 -0.2696 -0.7517
  934TIP3    H124293   1.551   4.109   2.814 -0.1773 -3.1417 -0.2857
  934TIP3    H224294   1.459   4.194   2.730  1.2838  0.4696  1.5079
  935TIP3   OH224295   5.448   2.812  11.310  0.2277  0.2654 -0.5741
  935TIP3    H124296   5.358   2.784  11.295  0.4307 -0.8205  0.1575
  935TIP3    H224297   5.498   2.767  11.242  0.4162 -0.4005 -0.0118
  936TIP3   OH224298   3.990   1.081  15.472  0.1525 -0.0283 -0.9570
  936TIP3    H124299   3.993   1.064  15.566  0.6720  1.2777 -0.7059
  936TIP3    H224300   3.990   0.995  15.431  1.6281 -0.6151  0.2082
  937TIP3   OH224301   4.498   2.555  15.980 -0.4685 -0.8077 -0.1688
  937TIP3    H124302   4.458   2.601  16.054  2.3968  0.3952  0.7583
  937TIP3    H224303   4.518   2.468  16.014  0.8039 -0.2715  0.4961
  938TIP3   OH224304   1.368   0.770   5.142 -0.1775  0.3167 -0.1832
  938TIP3    H124305   1.403   0.721   5.217  1.1793  0.6175 -0.5988
  938TIP3    H224306   1.343   0.702   5.079 -1.2958  0.0633  0.4973
  939TIP3   OH224307   0.833   6.425  13.279 -0.3768  0.4379 -0.0589
  939TIP3    H124308   0.915   6.387  13.311 -0.6378 -1.2242 -1.2642
  939TIP3    H224309   0.846   6.519  13.288  1.5728  0.2082  0.0409
  940TIP3   OH224310   5.489   6.389   4.442  0.3592 -0.0232 -0.6143
  940TIP3    H124311   5.533   6.439   4.373  1.2399 -0.4476 -0.3722
  940TIP3    H224312   5.415   6.348   4.398  1.9065 -1.7383 -1.7915
  941TIP3   OH224313   0.039   3.829  14.573  0.0025 -0.1278 -0.4120
  941TIP3    H124314  -0.028   3.762  14.584  0.3994 -0.8092 -1.8372
  941TIP3    H224315   0.036   3.850  14.479  1.7070 -0.1032 -0.4919
  942TIP3   OH224316   6.672   2.485  15.713  0.6878  0.1720 -0.3380
  942TIP3    H124317   6.636   2.532  15.788 -0.1428 -0.3598 -0.3891
  942TIP3    H224318   6.663   2.392  15.737 -3.5476 -0.3069 -2.7121
  943TIP3   OH224319   4.929   2.710   5.114  0.6163  0.5889 -0.2678
  943TIP3    H124320   4.944   2.795   5.071  0.4541  1.5387  1.4422
  943TIP3    H224321   4.987   2.712   5.191 -0.0503 -0.4810  0.2775
  944TIP3   OH224322   1.115   0.702  15.863  0.4417 -0.2079  0.4791
  944TIP3    H124323   1.192   0.739  15.819  0.2298  0.5832  0.7468
  944TIP3    H224324   1.126   0.727  15.954  0.9355 -1.9349  0.9372
  945TIP3   OH224325   6.331   6.193  15.718  0.2474 -0.5005  0.3895
  945TIP3    H124326   6.296   6.131  15.654  0.6136 -0.7181  0.3927
  945TIP3    H224327   6.422   6.166  15.729  0.7516  0.7215 -0.4695
  946TIP3   OH224328   3.685   6.107   4.933  0.4506  0.4028  0.4671
  946TIP3    H124329   3.708   6.196   4.909 -0.3250  0.2959 -0.7495
  946TIP3    H224330   3.669   6.063   4.849  0.7171 -0.8481  1.0503
  947TIP3   OH224331   3.566   2.110   6.032 -0.1117 -0.0989  0.2722
  947TIP3    H124332   3.577   2.095   5.938  0.3454 -1.1516  0.4828
  947TIP3    H224333   3.565   2.206   6.041 -3.7610  0.1598 -1.1995
  948TIP3   OH224334   3.951   5.763  16.469  0.3372 -0.6879  0.1386
  948TIP3    H124335   4.014   5.691  16.473  0.9579 -0.1048  2.1809
  948TIP3    H224336   3.936   5.786  16.560 -1.0221  0.7813 -0.4159
  949TIP3   OH224337   6.015   6.703  14.810  0.1173 -0.6260  0.4034
  949TIP3    H124338   5.988   6.656  14.731  0.1185 -1.9608  1.1542
  949TIP3    H224339   6.105   6.729  14.793  0.0912 -0.8329 -0.0634
  950TIP3   OH224340   1.233   4.553  11.974 -0.1308  0.2972  0.8284
  950TIP3    H124341   1.239   4.514  12.061 -0.3297  0.1810  0.7915
  950TIP3    H224342   1.213   4.479  11.916  0.7443  0.2539  0.5733
  951TIP3   OH224343   2.064   1.481   5.245  0.0232 -0.1502 -0.0659
  951TIP3    H124344   2.143   1.527   5.215  0.5355 -0.3569  0.8907
  951TIP3    H224345   2.070   1.485   5.341 -0.8004 -0.7404  0.0177
  952TIP3   OH224346   0.991   6.488  16.946 -0.4395  0.3356 -0.1482
  952TIP3    H124347   0.975   6.517  17.036 -0.1032  1.4077 -0.4251
  952TIP3    H224348   1.073   6.439  16.951 -0.7144 -0.0984  0.2222
  953TIP3   OH224349   5.016   5.696   1.395  0.4531  0.2537  0.5212
  953TIP3    H124350   5.089   5.726   1.340 -0.0098 -0.8308 -0.7200
  953TIP3    H224351   5.034   5.603   1.409 -1.1785 -0.2619 -0.6108
  954TIP3   OH224352   4.037   1.475   0.120 -0.5083 -0.2944  0.1709
  954TIP3    H124353   4.064   1.551   0.171  3.3423 -1.5735  0.4306
  954TIP3    H224354   3.955   1.446   0.160  0.0176  1.3941  2.6698
  955TIP3   OH224355   5.878   0.459  14.565  0.0754 -0.4634  0.5913
  955TIP3    H124356   5.955   0.450  14.620 -0.9543 -0.0304  2.1486
  955TIP3    H224357   5.913   0.476  14.477  1.7445  3.1424  1.8032
  956TIP3   OH224358   1.752   0.463  14.950 -0.2182 -0.1912  0.0725
  956TIP3    H124359   1.783   0.454  15.041 -3.2206  0.9962  1.3307
  956TIP3    H224360   1.702   0.383  14.934  1.5057 -1.0796 -1.1432
  957TIP3   OH224361   5.085   1.295   1.863 -0.0888  0.1038  0.0075
  957TIP3    H124362   5.131   1.233   1.919  1.7983 -0.6131 -2.1994
  957TIP3    H224363   5.046   1.240   1.794 -2.4192  0.9436  0.5616
  958TIP3   OH224364   0.909   3.024   1.001  0.3624  0.2645 -0.2926
  958TIP3    H124365   0.979   2.963   0.979 -0.1897 -0.5794  0.2160
  958TIP3    H224366   0.829   2.975   0.983 -0.1123  0.0522  2.0692
  959TIP3   OH224367   2.104   4.599   4.885 -0.0010 -0.3070 -0.3623
  959TIP3    H124368   2.174   4.549   4.843  0.1466  0.5763 -1.2098
  959TIP3    H224369   2.094   4.677   4.830 -0.3289  0.5158  0.8390
  960TIP3   OH224370   5.858   4.064  11.436 -0.4234 -0.1897  0.1199
  960TIP3    H124371   5.916   4.038  11.364 -0.0803 -0.5589  0.5317
  960TIP3    H224372   5.909   4.127  11.486  0.2068 -1.6065  1.3329
  961TIP3   OH224373   4.017   3.904  14.129  0.7521 -0.6319 -0.1926
  961TIP3    H124374   4.099   3.952  14.133  1.0191 -0.9248 -1.7130
  961TIP3    H224375   4.000   3.879  14.220  1.0627  1.5150  0.5213
  962TIP3   OH224376   1.179   3.253   6.231 -0.0872  0.3208 -0.3400
  962TIP3    H124377   1.117   3.281   6.299  1.0575 -0.0546  0.9133
  962TIP3    H224378   1.130   3.192   6.177 -0.8504  0.1165  0.5534
  963TIP3   OH224379   2.537   5.553  12.742  0.4043  0.3401 -1.1706
  963TIP3    H124380   2.526   5.647  12.726 -0.4149  0.6005  0.6483
  963TIP3    H224381   2.604   5.548  12.810 -1.6499 -0.1506  0.9248
  964TIP3   OH224382   6.710   5.090  13.253  0.2166  0.4860  0.2983
  964TIP3    H124383   6.711   5.101  13.348  1.5403  0.9109  0.2650
  964TIP3    H224384   6.659   5.165  13.221 -0.4049  0.2304  0.6737
  965TIP3   OH224385   3.547   1.339   0.755 -0.1368 -0.0863  0.0957
  965TIP3    H124386   3.521   1.394   0.681 -0.1107  0.9663  0.8550
  965TIP3    H224387   3.484   1.360   0.824  1.8468  1.5343  1.5291
  966TIP3   OH224388   0.883   3.187  14.874  0.5061 -0.6214  0.6574
  966TIP3    H124389   0.964   3.183  14.924  2.2096  0.0033 -1.8753
  966TIP3    H224390   0.827   3.248  14.924  2.0769 -0.0318  1.7708
  967TIP3   OH224391   0.408   5.583   3.906  0.3204 -0.5962 -0.2726
  967TIP3    H124392   0.420   5.517   3.974  0.1193 -0.9758 -0.6004
  967TIP3    H224393   0.313   5.590   3.895  0.2756  0.7415  0.7144
  968TIP3   OH224394   1.061   5.124   2.136 -0.0214  0.0957 -0.0491
  968TIP3    H124395   1.096   5.113   2.224  0.6351 -0.1241 -0.3304
  968TIP3    H224396   0.966   5.131   2.148  0.0707  0.1230  0.6743
  969TIP3   OH224397   1.974   1.302   4.563 -0.0669 -0.0307  0.2030
  969TIP3    H124398   1.934   1.291   4.649 -0.5220  0.6394  0.0835
  969TIP3    H224399   1.906   1.343   4.510  0.1876 -0.4901 -0.5016
  970TIP3   OH224400   6.475   0.619  13.388 -0.4955  0.2584  0.1526
  970TIP3    H124401   6.405   0.561  13.358 -0.8686  1.1342 -0.7380
  970TIP3    H224402   6.555   0.567  13.380 -0.6339  0.2853 -1.9786
  971TIP3   OH224403   4.696   5.973  15.935  0.0367  0.0681 -0.2097
  971TIP3    H124404   4.688   5.933  16.021  1.0790  0.4104  0.0646
  971TIP3    H224405   4.635   6.047  15.937 -0.0517 -0.0125  0.1886
  972TIP3   OH224406   2.349   1.242  12.630  0.2012  0.9704  0.4838
  972TIP3    H124407   2.403   1.315  12.598  0.7632 -0.4540 -2.1298
  972TIP3    H224408   2.407   1.166  12.629 -1.3793 -0.3119 -0.9566
  973TIP3   OH224409   1.504   3.944  11.318 -0.4494 -0.2619  0.3535
  973TIP3    H124410   1.461   3.859  11.311 -2.9190  0.9235 -0.2328
  973TIP3    H224411   1.508   3.977  11.229 -0.2337  0.5373  0.6478
  974TIP3   OH224412   2.295   3.126  14.837  0.4333 -0.0748  0.4084
  974TIP3    H124413   2.345   3.207  14.835 -0.5091  0.6454  2.6493
  974TIP3    H224414   2.359   3.057  14.816  1.2022  1.1964 -1.7265
  975TIP3   OH224415   3.688   4.561  15.171 -0.3648 -0.1153  0.7824
  975TIP3    H124416   3.669   4.583  15.079  0.9744 -0.4372  0.4104
  975TIP3    H224417   3.612   4.595  15.219 -2.1536 -1.8264 -0.6479
  976TIP3   OH224418   3.901   1.144  11.058 -0.2120 -0.2337 -0.4879
  976TIP3    H124419   3.868   1.076  11.117  0.3249  0.1221  0.2362
  976TIP3    H224420   3.887   1.109  10.971  2.3804 -2.4615 -0.1493
  977TIP3   OH224421   5.969   6.362  11.860 -0.0723 -0.4904  0.5959
  977TIP3    H124422   5.968   6.387  11.768  0.3150  0.6264  0.8850
  977TIP3    H224423   5.996   6.270  11.859  1.8450  0.0479 -0.2928
  978TIP3   OH224424   5.275   2.271   0.663 -0.1322  0.7483  0.3975
  978TIP3    H124425   5.347   2.239   0.608 -0.4347 -0.4519  0.6714
  978TIP3    H224426   5.238   2.344   0.614  2.2996  2.5019  0.9995
  979TIP3   OH224427   2.087   4.169   0.568 -0.1661  0.1573  0.0164
  979TIP3    H124428   2.077   4.238   0.502 -0.5902  0.6789  0.6114
  979TIP3    H224429   2.039   4.202   0.644 -3.9537 -2.5135 -0.9078
  980TIP3   OH224430   4.389   5.858  15.132  0.4676  0.1605  0.2507
  980TIP3    H124431   4.359   5.775  15.169  0.7227  1.0167  2.5467
  980TIP3    H224432   4.308   5.907  15.114  0.3438 -0.1816 -0.1373
  981TIP3   OH224433   5.976   3.804  11.695  0.6569  0.0210 -0.3149
  981TIP3    H124434   5.893   3.789  11.651 -0.3816 -0.4730  1.6941
  981TIP3    H224435   6.040   3.753  11.645 -0.3328 -0.0500 -1.5541
  982TIP3   OH224436   3.162   5.382  12.075  0.1818 -0.2935  0.1582
  982TIP3    H124437   3.161   5.409  12.167 -2.5636 -2.2224  0.8335
  982TIP3    H224438   3.069   5.383  12.049  0.7066 -1.6408 -1.9952
  983TIP3   OH224439   5.239   5.410  14.168  0.0826 -0.1507 -0.0441
  983TIP3    H124440   5.281   5.344  14.223 -0.0963 -1.7896 -1.7726
  983TIP3    H224441   5.146   5.401  14.185 -0.0192 -1.0707 -1.0033
  984TIP3   OH224442   6.585   4.538   5.304  0.4598  0.1581 -0.3743
  984TIP3    H124443   6.635   4.460   5.280  0.2735  0.1774 -0.8313
  984TIP3    H224444   6.650   4.604   5.324  0.6178  0.1335 -0.8032
  985TIP3   OH224445   4.223   0.503   1.972 -0.1554 -0.0092 -1.0280
  985TIP3    H124446   4.285   0.448   1.923  1.7320  1.7250 -0.7335
  985TIP3    H224447   4.240   0.482   2.064  0.1548  0.6328 -0.9378
  986TIP3   OH224448   5.547   4.326  12.908  0.2012  0.1044  0.4252
  986TIP3    H124449   5.497   4.257  12.863  0.3055 -0.0694  0.5752
  986TIP3    H224450   5.554   4.396  12.843  1.6384 -0.7344 -0.3696
  987TIP3   OH224451   4.114   0.971  10.899 -0.0020 -0.4251  0.1521
  987TIP3    H124452   4.113   1.007  10.988 -0.7063 -0.2396  0.0676
  987TIP3    H224453   4.134   0.878  10.912  2.2775  0.0154  0.3437
  988TIP3   OH224454   4.596   2.912   0.863 -0.4939  0.5505 -0.7060
  988TIP3    H124455   4.675   2.866   0.889 -0.9913 -0.7674 -1.4039
  988TIP3    H224456   4.555   2.854   0.798 -1.5758  1.6057 -1.0029
  989TIP3   OH224457   1.487   2.915  14.894  0.0701 -0.3605  0.3970
  989TIP3    H124458   1.404   2.958  14.871 -0.5243 -2.3997 -1.6833
  989TIP3    H224459   1.553   2.958  14.840 -0.1697 -0.7005 -0.1732
  990TIP3   OH224460   6.168   4.680  12.315 -0.1295  0.5145  0.5215
  990TIP3    H124461   6.119   4.605  12.280 -2.7049  2.2109  0.1953
  990TIP3    H224462   6.181   4.660  12.408 -0.1000 -0.6390  0.2776
  991TIP3   OH224463   4.644   0.660   5.234  0.0362  0.6171 -0.3761
  991TIP3    H124464   4.660   0.568   5.215 -0.1337  0.3150  0.8825
  991TIP3    H224465   4.567   0.683   5.183 -0.3518 -0.1351 -0.1290
  992TIP3   OH224466   6.473   5.868   3.404 -0.4408  0.3475  0.0025
  992TIP3    H124467   6.505   5.802   3.465  1.3245  0.9371 -0.2478
  992TIP3    H224468   6.529   5.860   3.327 -0.2936  2.0022 -0.0991
  993TIP3   OH224469   4.927   1.167  12.202  0.2954  0.1462  0.2228
  993TIP3    H124470   4.933   1.121  12.118  0.6710 -0.3909  0.5374
  993TIP3    H224471   4.999   1.231  12.199  1.2987 -0.9243  0.7564
  994TIP3   OH224472   2.663   6.372   3.830  0.5063 -0.6232 -0.2287
  994TIP3    H124473   2.757   6.387   3.820  0.6828 -0.3713  1.5357
  994TIP3    H224474   2.641   6.413   3.914 -1.0162 -1.4397 -0.2009
  995TIP3   OH224475   5.546   3.149  16.681  0.7793 -0.2816  0.4998
  995TIP3    H124476   5.461   3.174  16.719  0.2400  0.2451 -0.9714
  995TIP3    H224477   5.607   3.152  16.754 -0.4235 -0.4317  1.5456
  996TIP3   OH224478   4.790   0.065  15.368 -0.3216 -0.4725  0.0909
  996TIP3    H124479   4.844   0.030  15.439 -0.1517 -0.5685 -0.0839
  996TIP3    H224480   4.826   0.024  15.289  1.0362  1.4251 -0.3503
  997TIP3   OH224481   2.374   2.335  13.009 -0.2454  0.0486 -0.1518
  997TIP3    H124482   2.356   2.269  13.076 -0.9358 -0.3233 -0.6916
  997TIP3    H224483   2.394   2.285  12.930  0.6542  0.4863 -0.2137
  998TIP3   OH224484   6.406   2.899   0.768 -0.3125  0.3518  0.1530
  998TIP3    H124485   6.449   2.900   0.853 -0.8678  1.7602  0.4423
  998TIP3    H224486   6.461   2.955   0.713  1.4506 -2.4789 -1.2076
  999TIP3   OH224487   0.358   1.235  16.113  0.2051 -0.1890  0.2225
  999TIP3    H124488   0.348   1.150  16.070  1.2787 -0.7024  0.9586
  999TIP3    H224489   0.420   1.283  16.057 -0.3088  0.0916 -0.1263
 1000TIP3   OH224490   1.120   1.958   3.613 -0.1299  0.5195 -0.3573
 1000TIP3    H124491   1.098   2.049   3.592 -0.0141  0.6785  0.1951
 1000TIP3    H224492   1.037   1.912   3.606 -0.2643  0.7425 -0.2652
 1001TIP3   OH224493   2.153   2.094  15.486 -0.1959 -0.2006 -0.2057
 1001TIP3    H124494   2.170   2.178  15.444 -0.0748  1.3577  2.7568
 1001TIP3    H224495   2.058   2.093  15.499 -0.2892 -0.8883 -0.8271
 1002TIP3   OH224496   2.116   3.204   1.000 -0.7520  0.4612 -0.1488
 1002TIP3    H124497   2.153   3.116   1.012 -1.9609 -0.0758 -0.2747
 1002TIP3    H224498   2.165   3.258   1.061  1.7658  0.2429 -1.8163
 1003TIP3   OH224499   0.970   3.547  14.098  0.0014 -0.6759 -0.4173
 1003TIP3    H124500   0.984   3.492  14.174 -1.9555  0.5792  0.9618
 1003TIP3    H224501   0.875   3.562  14.097  0.1137  0.2098 -2.4819
 1004TIP3   OH224502   0.427   2.578  11.064  0.6533  0.5977 -0.0514
 1004TIP3    H124503   0.457   2.490  11.042  1.7661  0.8572  0.3424
 1004TIP3    H224504   0.508   2.629  11.070  0.0873  1.4329  0.6424
 1005TIP3   OH224505   5.493   5.231   0.257 -0.3014 -0.1851 -0.9631
 1005TIP3    H124506   5.549   5.305   0.278 -1.9069  0.9189 -0.3283
 1005TIP3    H224507   5.525   5.160   0.313  2.1495 -0.4672 -2.5802
 1006TIP3   OH224508   3.766   2.102  12.008  0.8695  0.4784 -0.4677
 1006TIP3    H124509   3.808   2.188  12.005  0.9757  0.6288  2.3311
 1006TIP3    H224510   3.673   2.121  11.993  0.6254  1.4273  1.7677
 1007TIP3   OH224511   1.603   0.261  15.741  0.0153 -0.3920 -0.3133
 1007TIP3    H124512   1.616   0.220  15.827  1.0207 -0.3960 -0.4644
 1007TIP3    H224513   1.604   0.188  15.679  1.0753 -0.2345 -0.5044
 1008TIP3   OH224514   6.591   3.646  12.921 -0.2355  0.0139  0.2808
 1008TIP3    H124515   6.573   3.683  12.834  1.0739  0.3162  0.1284
 1008TIP3    H224516   6.684   3.628  12.921  0.0410  1.2047  2.0674
 1009TIP3   OH224517   5.085   1.444   3.777  0.0135  0.1233 -0.3709
 1009TIP3    H124518   5.163   1.449   3.832  0.7887  0.6435 -1.4799
 1009TIP3    H224519   5.064   1.350   3.773  0.5808 -0.0197 -0.0609
 1010TIP3   OH224520   2.485   3.556   5.587  0.2436  0.2009 -0.6170
 1010TIP3    H124521   2.514   3.487   5.527  1.1411  0.6280 -0.6961
 1010TIP3    H224522   2.412   3.598   5.543 -1.1945 -1.5229 -0.0010
 1011TIP3   OH224523   5.960   0.634   2.890 -0.0546 -0.0533 -0.1425
 1011TIP3    H124524   5.917   0.713   2.923 -0.3635  0.3198 -1.4037
 1011TIP3    H224525   5.894   0.565   2.901 -1.4093  0.6683 -2.8374
 1012TIP3   OH224526   0.223   3.385  12.567  0.2794  0.0071  0.2499
 1012TIP3    H124527   0.314   3.373  12.594  1.0178 -1.2343 -2.4371
 1012TIP3    H224528   0.227   3.455  12.501 -0.7916  0.2846  0.4619
 1013TIP3   OH224529   6.771   6.736   2.006 -0.3508 -0.3402 -0.1280
 1013TIP3    H124530   6.678   6.727   2.028 -0.1806  0.2318  0.8785
 1013TIP3    H224531   6.786   6.671   1.936 -0.7381 -2.9094  2.0246
 1014TIP3   OH224532   5.863   4.239   4.888  0.1447  0.7568  0.3290
 1014TIP3    H124533   5.937   4.197   4.932 -1.0925  0.5029  2.3043
 1014TIP3    H224534   5.823   4.294   4.956 -3.5143 -1.7555  0.5024
 1015TIP3   OH224535   6.578   2.109  15.651  0.2835  0.3753  1.1391
 1015TIP3    H124536   6.535   2.024  15.651 -0.4537  0.7354  0.4142
 1015TIP3    H224537   6.509   2.171  15.673  0.2265  1.0362 -0.7435
 1016TIP3   OH224538   6.261   2.357   4.222 -0.7007  0.5517  0.0175
 1016TIP3    H124539   6.273   2.272   4.264  1.0552  0.4748 -0.5785
 1016TIP3    H224540   6.189   2.343   4.161 -0.6483 -0.4174  0.1576
 1017TIP3   OH224541   3.757   2.914   6.083  0.2833 -0.4669  0.0534
 1017TIP3    H124542   3.830   2.976   6.073  0.8458 -1.4154 -2.0824
 1017TIP3    H224543   3.690   2.965   6.128  1.5630  1.0025  0.4161
 1018TIP3   OH224544   4.055   2.855   4.428  0.3519  0.2928 -0.1605
 1018TIP3    H124545   4.005   2.882   4.351  1.1668  1.6822 -0.2481
 1018TIP3    H224546   4.135   2.907   4.424  1.2153 -0.9009  0.6844
 1019TIP3   OH224547   0.381   1.846   1.548 -0.2830  0.1319 -0.3738
 1019TIP3    H124548   0.413   1.858   1.459  0.6588 -0.9362 -0.1990
 1019TIP3    H224549   0.435   1.777   1.584  0.0785  1.2744  1.4108
 1020TIP3   OH224550   4.886   5.288   3.434  0.2888  0.2235  0.1419
 1020TIP3    H124551   4.839   5.262   3.354  2.6273  0.7815 -1.5164
 1020TIP3    H224552   4.939   5.363   3.407 -0.0501  1.4985  2.7002
 1021TIP3   OH224553   3.560   4.308   3.183  0.2185  0.1842 -0.4936
 1021TIP3    H124554   3.646   4.272   3.206  0.0857 -0.2746 -0.6939
 1021TIP3    H224555   3.571   4.339   3.092  0.8895  2.4534  0.2827
 1022TIP3   OH224556   4.223   5.157  10.716  0.5174 -0.4871 -0.0465
 1022TIP3    H124557   4.265   5.073  10.701 -1.3639 -1.1395 -2.3508
 1022TIP3    H224558   4.261   5.215  10.649  0.0508 -0.2217 -0.0871
 1023TIP3   OH224559   6.536   4.227   5.811  0.0433  0.2696  0.0043
 1023TIP3    H124560   6.602   4.223   5.742 -0.0370  1.9203 -0.2009
 1023TIP3    H224561   6.584   4.205   5.891  0.7862  1.0969 -0.1969
 1024TIP3   OH224562   3.883   2.683   3.946  0.2426  0.3572  0.3783
 1024TIP3    H124563   3.916   2.773   3.954  0.4633  0.2945  0.1861
 1024TIP3    H224564   3.809   2.679   4.007 -0.7704  1.1506 -0.7464
 1025TIP3   OH224565   0.270   0.929   2.230 -0.1069 -0.5391  0.1030
 1025TIP3    H124566   0.321   0.848   2.231  0.6054 -0.1077  1.0833
 1025TIP3    H224567   0.220   0.925   2.149  0.7977 -1.4205 -0.4409
 1026TIP3   OH224568   4.817   3.710  13.177 -0.1100  0.3216  0.0371
 1026TIP3    H124569   4.874   3.707  13.101  0.4889  1.4824  0.4124
 1026TIP3    H224570   4.729   3.715  13.141  0.1198  0.1505 -0.5650
 1027TIP3   OH224571   5.650   4.700  15.220  0.5699  0.0377 -0.2939
 1027TIP3    H124572   5.694   4.777  15.256 -0.1502 -0.3163  1.4690
 1027TIP3    H224573   5.638   4.720  15.128 -0.1552  2.3252  0.2433
 1028TIP3   OH224574   1.207   0.686  15.549 -0.0443 -0.4468 -0.1549
 1028TIP3    H124575   1.263   0.616  15.581  1.3241  0.5126 -0.3585
 1028TIP3    H224576   1.119   0.661  15.578  0.6404 -1.3987  1.2417
 1029TIP3   OH224577   1.931   2.645  11.151  0.3061  0.6582  0.1169
 1029TIP3    H124578   1.943   2.709  11.221  0.4249  0.7086  0.0516
 1029TIP3    H224579   1.886   2.694  11.082 -0.7267  0.3410  0.5471
 1030TIP3   OH224580   0.341   3.558   4.892  0.2613 -0.5834 -0.3408
 1030TIP3    H124581   0.305   3.487   4.945 -1.4809  0.4998 -0.0031
 1030TIP3    H224582   0.436   3.547   4.898  0.1235 -4.1783 -2.0904
 1031TIP3   OH224583   3.284   4.793  13.938 -0.3326 -0.1220  0.2460
 1031TIP3    H124584   3.313   4.716  13.889 -0.9243  0.1097 -0.4809
 1031TIP3    H224585   3.194   4.808  13.908 -1.1597 -0.7081  2.2999
 1032TIP3   OH224586   3.975   6.446   1.160  0.2809  0.4490 -0.0827
 1032TIP3    H124587   3.996   6.535   1.133  0.8425 -0.0077 -1.1776
 1032TIP3    H224588   3.984   6.448   1.256  1.9779  1.1307 -0.2236
 1033TIP3   OH224589   0.316   0.444  13.282  0.4046 -0.1954 -0.3649
 1033TIP3    H124590   0.328   0.538  13.294  0.2183 -0.2784  0.6106
 1033TIP3    H224591   0.379   0.420  13.215  2.2644  0.2105  1.1314
 1034TIP3   OH224592   2.311   1.264  12.016 -0.3626 -0.3079  0.3915
 1034TIP3    H124593   2.352   1.219  11.942 -2.2541 -1.4372 -0.0351
 1034TIP3    H224594   2.379   1.267  12.083  0.7139 -1.2283 -0.6147
 1035TIP3   OH224595   2.808   1.599  11.983 -0.3687  0.3882 -0.0202
 1035TIP3    H124596   2.894   1.636  12.000 -0.7263  0.5401  1.6543
 1035TIP3    H224597   2.783   1.558  12.066 -0.9536 -1.6291 -1.1324
 1036TIP3   OH224598   1.097   6.499  16.005 -0.3268 -0.1678 -0.1442
 1036TIP3    H124599   1.173   6.489  16.063 -0.6947  0.3926  0.4434
 1036TIP3    H224600   1.133   6.540  15.926  0.4054 -2.0739 -0.8554
 1037TIP3   OH224601   5.933   4.061   0.365 -0.4811 -0.3885  0.1050
 1037TIP3    H124602   5.974   3.976   0.375  1.0099  0.3238  0.3218
 1037TIP3    H224603   5.879   4.071   0.444  1.5883  0.0413  1.5256
 1038TIP3   OH224604   6.372   3.568  13.309 -0.2059 -0.0447 -0.4540
 1038TIP3    H124605   6.361   3.581  13.215 -2.0463  0.2198 -0.2367
 1038TIP3    H224606   6.354   3.475  13.323  1.0466 -0.3068 -0.4649
 1039TIP3   OH224607   4.731   4.230   0.522 -0.8919  0.0666  0.3219
 1039TIP3    H124608   4.811   4.179   0.534 -0.0689  1.2541  0.0497
 1039TIP3    H224609   4.691   4.234   0.610  1.0991  2.2368  1.2381
 1040TIP3   OH224610   3.393   2.336  13.724 -0.0423  0.2320 -0.1086
 1040TIP3    H124611   3.427   2.386  13.798  1.8401 -0.6784 -0.2783
 1040TIP3    H224612   3.410   2.391  13.648 -0.0365  0.2850 -0.0693
 1041TIP3   OH224613   1.630   5.686   1.699  0.3800 -0.0371  0.3234
 1041TIP3    H124614   1.601   5.730   1.780  0.0206  0.8530 -0.2691
 1041TIP3    H224615   1.609   5.594   1.713 -0.3601  0.2166  0.9545
 1042TIP3   OH224616   5.834   6.616  15.558  0.5475 -0.2890 -0.7442
 1042TIP3    H124617   5.884   6.686  15.601 -2.0355  2.5428 -2.0109
 1042TIP3    H224618   5.869   6.536  15.597  3.0954  1.6705  1.4755
 1043TIP3   OH224619   3.909   0.242  13.515 -0.0361 -0.0565  0.3160
 1043TIP3    H124620   3.884   0.162  13.468 -1.2244  1.1138 -1.1514
 1043TIP3    H224621   3.902   0.218  13.608 -1.6771 -1.2818 -0.0708
 1044TIP3   OH224622   4.746   1.245   1.572  0.2734  0.2491  0.1376
 1044TIP3    H124623   4.826   1.207   1.607  0.1895  0.0587  0.1260
 1044TIP3    H224624   4.723   1.315   1.633 -0.9925 -1.3888  1.6573
 1045TIP3   OH224625   0.381   5.555   5.898  0.2246  0.2577 -0.1164
 1045TIP3    H124626   0.364   5.603   5.979  1.8796  0.1818  0.3183
 1045TIP3    H224627   0.399   5.465   5.927 -0.5274 -0.0963 -0.7059
 1046TIP3   OH224628   2.001   5.070   3.891  0.0234  0.0408 -0.5508
 1046TIP3    H124629   2.018   5.156   3.854  2.3661  1.3094  2.9120
 1046TIP3    H224630   1.920   5.081   3.941 -0.4142 -0.2020 -1.1938
 1047TIP3   OH224631   1.121   6.264  14.535  0.6283 -0.1807  0.2506
 1047TIP3    H124632   1.107   6.333  14.599  1.2024  1.3133 -1.1592
 1047TIP3    H224633   1.038   6.256  14.488  0.8689  0.3183 -0.2771
 1048TIP3   OH224634   0.342   2.815   1.844 -0.1322  0.2291  0.0892
 1048TIP3    H124635   0.383   2.902   1.838 -1.5171  0.8028 -2.4022
 1048TIP3    H224636   0.296   2.816   1.928 -0.1815  1.9382  0.0819
 1049TIP3   OH224637   5.647   0.846   5.637 -0.0474 -0.1253 -0.1627
 1049TIP3    H124638   5.626   0.793   5.714  0.3507 -1.7715 -1.1481
 1049TIP3    H224639   5.619   0.935   5.661  0.7800 -0.4202  2.1684
 1050TIP3   OH224640   0.304   0.137  13.269  0.3099 -0.2645  0.0570
 1050TIP3    H124641   0.328   0.158  13.179 -1.4956 -0.1381 -0.4248
 1050TIP3    H224642   0.326   0.216  13.319  0.6966 -0.0923 -0.3764
 1051TIP3   OH224643   2.136   5.989   1.125 -0.4251 -0.3719 -0.0276
 1051TIP3    H124644   2.086   5.914   1.157 -2.5221  0.9165 -0.0786
 1051TIP3    H224645   2.094   6.013   1.043  1.6295 -0.4718 -1.1673
 1052TIP3   OH224646   2.984   3.971  11.705 -0.4289 -0.0693 -0.0733
 1052TIP3    H124647   2.947   3.944  11.789 -0.9277 -3.4238 -1.2104
 1052TIP3    H224648   3.078   3.955  11.713 -0.3945  0.1723  0.0183
 1053TIP3   OH224649   2.607   1.679  12.549  0.0095  0.1408 -0.6080
 1053TIP3    H124650   2.631   1.684  12.457 -1.0642  0.4237 -0.8909
 1053TIP3    H224651   2.603   1.770  12.578  0.0458  0.0656 -0.3685
 1054TIP3   OH224652   1.646   2.261   1.068  0.6214 -0.2955  0.4158
 1054TIP3    H124653   1.581   2.258   0.998  0.4069  2.4992  0.3953
 1054TIP3    H224654   1.595   2.284   1.146  0.9516 -2.7583  1.4339
 1055TIP3   OH224655   5.425   2.717  14.896  0.3898 -0.2583  0.1263
 1055TIP3    H124656   5.354   2.770  14.860  0.1846  0.2830  1.2975
 1055TIP3    H224657   5.398   2.697  14.985  1.6500 -0.1424  0.5600
 1056TIP3   OH224658   0.538   2.071  11.253  0.2638 -0.2683  0.3473
 1056TIP3    H124659   0.581   1.990  11.280  0.9601 -0.0836 -0.1731
 1056TIP3    H224660   0.576   2.139  11.309 -0.0394 -0.2438  0.5246
 1057TIP3   OH224661   3.480   2.167  12.544 -0.3642 -0.0213 -0.5683
 1057TIP3    H124662   3.535   2.124  12.479 -1.7592  0.1461 -1.9042
 1057TIP3    H224663   3.428   2.229  12.495 -0.3041  1.3206  0.9617
 1058TIP3   OH224664   3.076   0.103  12.711 -0.5804  0.7892 -0.2490
 1058TIP3    H124665   3.164   0.126  12.741 -0.3723  1.3647 -1.2526
 1058TIP3    H224666   3.051   0.027  12.764  0.6482  0.4239 -0.1788
 1059TIP3   OH224667   3.632   4.187  15.800  0.3461  0.2303 -0.2749
 1059TIP3    H124668   3.716   4.197  15.846 -0.2913  0.9137  0.8031
 1059TIP3    H224669   3.634   4.254  15.732  0.8514 -0.0521 -0.5442
 1060TIP3   OH224670   2.203   2.911   0.050 -0.4417 -0.0241 -0.0886
 1060TIP3    H124671   2.121   2.960   0.046  0.1910  1.0116 -1.0123
 1060TIP3    H224672   2.237   2.929   0.138 -0.7806  0.2679 -0.0131
 1061TIP3   OH224673   3.695   2.000  15.330  0.3177 -0.1365  0.3518
 1061TIP3    H124674   3.703   2.084  15.285 -1.0084  0.5269  1.2889
 1061TIP3    H224675   3.781   1.958  15.319  1.2831  1.7014  0.5897
 1062TIP3   OH224676   6.088   6.742   6.853 -0.5874 -0.8201 -0.4285
 1062TIP3    H124677   6.133   6.669   6.896  0.3517  0.1372  0.2680
 1062TIP3    H224678   6.150   6.815   6.858 -0.6952 -0.4825 -2.8828
 1063TIP3   OH224679   1.697   6.752   2.555  0.3062 -0.3773 -0.1723
 1063TIP3    H124680   1.606   6.773   2.532  0.5619 -0.8970 -1.8117
 1063TIP3    H224681   1.700   6.657   2.553  1.1467 -0.3432 -1.2985
 1064TIP3   OH224682   3.207   1.829  12.551 -0.0228 -0.0180 -0.2140
 1064TIP3    H124683   3.209   1.917  12.512  2.0094 -0.6424 -1.7079
 1064TIP3    H224684   3.230   1.843  12.643 -1.3204  1.1286 -0.0140
 1065TIP3   OH224685   6.193   3.015  13.307 -0.3664  0.2250 -0.2510
 1065TIP3    H124686   6.102   2.985  13.306 -0.2522 -0.1163 -1.6727
 1065TIP3    H224687   6.211   3.042  13.217  0.2426  2.4889  0.4603
 1066TIP3   OH224688   4.724   5.163   6.315 -0.3437 -0.2789 -0.0303
 1066TIP3    H124689   4.631   5.182   6.306 -0.7365 -1.5601  0.8902
 1066TIP3    H224690   4.728   5.096   6.384  1.1426 -1.1713 -0.9246
 1067TIP3   OH224691   3.564   1.423  14.420  0.5676  0.0791  0.2924
 1067TIP3    H124692   3.570   1.414  14.325 -0.5145 -1.0803  0.3049
 1067TIP3    H224693   3.482   1.469  14.434  0.3118 -0.5005  0.6963
 1068TIP3   OH224694   0.655   6.505   6.370  0.2991  0.6229 -0.2266
 1068TIP3    H124695   0.733   6.525   6.318 -0.2047  1.3519 -0.7107
 1068TIP3    H224696   0.611   6.435   6.322  0.8883 -0.1365  0.3006
 1069TIP3   OH224697   2.833   1.764   5.439 -0.8865 -0.2724 -0.0479
 1069TIP3    H124698   2.862   1.739   5.351 -0.3406  0.1149  0.0174
 1069TIP3    H224699   2.900   1.728   5.497 -0.2342  1.0713  0.0702
 1070TIP3   OH224700   0.855   2.331   1.555  0.1922  0.4512  0.2778
 1070TIP3    H124701   0.927   2.357   1.614  0.0475 -0.4462  0.8595
 1070TIP3    H224702   0.781   2.316   1.613  0.1157 -0.7073 -0.0924
 1071TIP3   OH224703   0.979   5.238  10.938 -0.0096  0.6494  0.5609
 1071TIP3    H124704   1.059   5.205  10.897  0.0181  0.7840  0.5077
 1071TIP3    H224705   0.923   5.263  10.865 -0.2755  0.1409  0.5923
 1072TIP3   OH224706   3.378   1.240  13.254 -0.1059 -0.3540 -0.3593
 1072TIP3    H124707   3.374   1.331  13.225  0.3585  0.6413  2.4554
 1072TIP3    H224708   3.306   1.230  13.316  1.6479 -0.9610  1.6946
 1073TIP3   OH224709   6.313   4.538   1.680  0.4969 -0.3191 -0.1451
 1073TIP3    H124710   6.381   4.509   1.620 -0.2162  0.1292 -1.1920
 1073TIP3    H224711   6.243   4.473   1.670 -0.4408  0.8202 -1.2938
 1074TIP3   OH224712   1.759   3.790  16.225 -0.8191  0.0007 -0.4319
 1074TIP3    H124713   1.704   3.712  16.235 -0.9761  0.2455  0.8751
 1074TIP3    H224714   1.783   3.792  16.132 -2.8020 -0.2582 -0.9910
 1075TIP3   OH224715   3.028   3.503  11.279  0.0877  0.4216 -1.0612
 1075TIP3    H124716   3.027   3.599  11.278 -1.8112  0.5698  1.6764
 1075TIP3    H224717   2.940   3.478  11.251  0.1914 -0.4542 -0.6359
 1076TIP3   OH224718   3.216   1.590  12.903 -0.3917  0.1643  0.7722
 1076TIP3    H124719   3.215   1.559  12.812 -0.9372  1.8854  0.1460
 1076TIP3    H224720   3.286   1.655  12.906 -1.2095  1.0693  1.2046
 1077TIP3   OH224721   6.685   2.791  17.073 -0.2995  0.0334 -0.1186
 1077TIP3    H124722   6.595   2.761  17.081  0.2537 -1.2654  2.1618
 1077TIP3    H224723   6.694   2.858  17.140  0.3231  0.5104 -0.6618
 1078TIP3   OH224724   1.661   2.537   5.207 -0.0128  0.1981 -0.1191
 1078TIP3    H124725   1.687   2.627   5.222  1.2122  0.2001 -1.9630
 1078TIP3    H224726   1.565   2.539   5.210  0.0008  1.5322 -0.0353
 1079TIP3   OH224727   6.754   4.279   1.746 -0.2501 -0.1023  0.2497
 1079TIP3    H124728   6.694   4.253   1.815  0.2407 -1.3426  0.2357
 1079TIP3    H224729   6.808   4.347   1.786  0.4557 -1.2552  1.3299
 1080TIP3   OH224730   1.924   4.872   2.685  0.4679  0.4186  0.7605
 1080TIP3    H124731   1.998   4.914   2.730  0.4453  0.8197  0.4327
 1080TIP3    H224732   1.913   4.924   2.605  1.1816 -0.9164 -0.2366
 1081TIP3   OH224733   0.402   6.276   0.245 -0.0654 -0.3389  0.1672
 1081TIP3    H124734   0.414   6.209   0.313  0.2243 -0.7522 -0.2890
 1081TIP3    H224735   0.307   6.288   0.240 -0.0527  0.4815  1.3969
 1082TIP3   OH224736   5.599   1.513  14.710 -0.3060  0.1989 -0.1701
 1082TIP3    H124737   5.633   1.423  14.706 -0.1646  0.2551 -0.2487
 1082TIP3    H224738   5.564   1.529  14.622  1.2039  0.8149 -0.6987
 1083TIP3   OH224739   3.843   3.964  16.549 -0.5632 -0.2770  0.1103
 1083TIP3    H124740   3.819   3.894  16.489  0.4819 -0.6103  0.0680
 1083TIP3    H224741   3.932   3.944  16.576 -0.1858  1.1177 -0.0075
 1084TIP3   OH224742   5.648   5.267  12.156 -1.0925  0.2512  0.0184
 1084TIP3    H124743   5.564   5.243  12.196 -1.2821  0.6201 -0.1521
 1084TIP3    H224744   5.624   5.309  12.073 -0.6890 -0.9162 -0.7072
 1085TIP3   OH224745   0.653   4.772  17.188  0.4278  0.3321 -0.0829
 1085TIP3    H124746   0.665   4.690  17.236  0.0770  1.3215  1.7509
 1085TIP3    H224747   0.564   4.766  17.153  0.3138  0.0390  0.2487
 1086TIP3   OH224748   4.188   3.629   6.448  0.4481  0.2382  0.2632
 1086TIP3    H124749   4.130   3.705   6.441 -1.6225 -1.1652  1.1435
 1086TIP3    H224750   4.269   3.657   6.404 -0.7777  2.3775 -0.8242
 1087TIP3   OH224751   1.721   0.955   1.105  0.2363  0.3311 -0.0100
 1087TIP3    H124752   1.747   0.969   1.196  1.4936 -1.8010  0.0288
 1087TIP3    H224753   1.802   0.969   1.055 -0.3069  0.9093 -0.7432
 1088TIP3   OH224754   6.387   6.282  16.583 -0.2495  0.0279  0.0633
 1088TIP3    H124755   6.357   6.195  16.557  0.4352 -0.3365  0.4696
 1088TIP3    H224756   6.318   6.314  16.642 -1.4993  0.6070 -1.6089
 1089TIP3   OH224757   5.375   0.456  14.537  0.2008  0.3145 -0.0193
 1089TIP3    H124758   5.290   0.442  14.495  0.5459  0.3380 -0.7506
 1089TIP3    H224759   5.366   0.540  14.582 -0.1703  0.3055 -0.0696
 1090TIP3   OH224760   1.393   1.057   0.478 -0.0599  0.0970  0.6622
 1090TIP3    H124761   1.386   1.113   0.556  0.0546 -2.0211  2.2954
 1090TIP3    H224762   1.388   0.968   0.513 -2.5286 -0.9621 -2.0117
 1091TIP3   OH224763   4.007   1.784   2.820 -0.0106 -0.0150  0.8942
 1091TIP3    H124764   3.934   1.773   2.759 -0.2152  1.1395  0.8986
 1091TIP3    H224765   4.021   1.879   2.823  1.5637 -0.2170  0.8215
 1092TIP3   OH224766   2.479   3.967   3.146 -0.2804  0.1284 -0.5911
 1092TIP3    H124767   2.440   4.010   3.070 -0.5872  1.8496  0.4819
 1092TIP3    H224768   2.450   4.020   3.221  0.8104 -0.9339  0.6368
 1093TIP3   OH224769   0.247   1.328  15.102  0.8064  0.0014 -0.2300
 1093TIP3    H124770   0.221   1.382  15.028 -0.2450  0.6088  0.5546
 1093TIP3    H224771   0.319   1.377  15.142  0.2273  0.5618  0.1500
 1094TIP3   OH224772   3.815   4.696  13.756  0.0928 -0.1769  0.1774
 1094TIP3    H124773   3.907   4.675  13.743 -0.1406 -1.0592 -0.1212
 1094TIP3    H224774   3.778   4.618  13.797 -0.6269 -0.0346 -0.1800
 1095TIP3   OH224775   6.090   0.416   3.404 -0.0922 -0.2516  0.4899
 1095TIP3    H124776   6.111   0.380   3.491  0.9397 -2.0062 -0.4330
 1095TIP3    H224777   5.999   0.446   3.412 -0.0921 -0.5657  2.0994
 1096TIP3   OH224778   0.097   1.861  14.562  0.4736  0.4524  1.4471
 1096TIP3    H124779   0.010   1.821  14.561  0.9362 -1.1239 -3.1485
 1096TIP3    H224780   0.156   1.788  14.580  1.0134  0.1905 -1.0356
 1097TIP3   OH224781   1.968   0.852   3.072  0.5141  0.0343  0.7498
 1097TIP3    H124782   2.033   0.913   3.106  0.6801  0.3011 -0.0192
 1097TIP3    H224783   1.886   0.902   3.070  0.5770  0.1303  0.4495
 1098TIP3   OH224784   5.011   0.140  11.282  0.5860  0.4900  0.3747
 1098TIP3    H124785   5.007   0.190  11.200 -2.4854  0.3879  0.3404
 1098TIP3    H224786   5.062   0.062  11.260  0.5602  0.8785 -1.1955
 1099TIP3   OH224787   5.677   5.442   2.431  0.1687  0.4602 -0.3524
 1099TIP3    H124788   5.660   5.370   2.370  1.3635  0.1006 -0.2834
 1099TIP3    H224789   5.594   5.454   2.477 -0.6585  0.5286 -1.8080
 1100TIP3   OH224790   6.628   1.905   6.107  0.2026 -0.2885  0.3088
 1100TIP3    H124791   6.598   1.985   6.151  0.4476  0.3749 -0.6814
 1100TIP3    H224792   6.691   1.866   6.168 -1.3474 -0.8005  1.6724
 1101TIP3   OH224793   1.891   2.173   3.067  0.7863  0.0315 -0.5825
 1101TIP3    H124794   1.982   2.156   3.044  0.7760  0.8924 -1.3079
 1101TIP3    H224795   1.886   2.153   3.161  1.9575  0.8642 -0.3205
 1102TIP3   OH224796   1.922   2.256  12.306 -0.3769  0.5210  0.0480
 1102TIP3    H124797   1.832   2.288  12.310 -0.0952  1.2844  0.2857
 1102TIP3    H224798   1.923   2.181  12.366 -0.6146  1.0993  0.7917
 1103TIP3   OH224799   5.929   6.614   5.673 -0.5197  0.0211 -0.8677
 1103TIP3    H124800   5.997   6.668   5.713 -1.1239 -0.4311  0.8695
 1103TIP3    H224801   5.853   6.671   5.667 -0.3184  0.2041 -1.7797
 1104TIP3   OH224802   4.840   4.263   5.797  0.5715 -0.6599 -0.0085
 1104TIP3    H124803   4.890   4.222   5.727  1.0965 -0.6381  0.3491
 1104TIP3    H224804   4.809   4.190   5.850  0.4037 -0.6610 -0.1060
 1105TIP3   OH224805   2.648   2.258   1.991  0.2042  0.3845 -0.4368
 1105TIP3    H124806   2.629   2.219   1.906  0.0288  2.2128 -1.2746
 1105TIP3    H224807   2.565   2.293   2.021  0.4571  0.5969  0.0334
 1106TIP3   OH224808   3.487   1.816  17.149 -0.6050  0.4836  0.3024
 1106TIP3    H124809   3.476   1.746  17.084  0.6592  1.9025 -1.5597
 1106TIP3    H224810   3.575   1.851  17.132 -1.0204  2.2358  1.4494
 1107TIP3   OH224811   2.777   0.762   5.657 -0.2984  0.2614 -0.3537
 1107TIP3    H124812   2.720   0.690   5.633 -0.8384  0.3295  0.6605
 1107TIP3    H224813   2.724   0.841   5.640  0.0004  0.3833 -0.7193
 1108TIP3   OH224814   0.517   3.317  12.551  0.7153 -0.3332 -0.1992
 1108TIP3    H124815   0.492   3.227  12.569  1.7724 -0.3478  1.3178
 1108TIP3    H224816   0.592   3.334  12.608  0.9207  1.3204 -0.8884
 1109TIP3   OH224817   1.060   6.567   2.240  0.2634  0.2620  0.2686
 1109TIP3    H124818   0.991   6.506   2.214 -1.1801  1.1272  1.9007
 1109TIP3    H224819   1.141   6.519   2.225 -0.6948 -1.0253 -1.0848
 1110TIP3   OH224820   4.187   3.334   1.231 -0.4522  0.1194 -0.1179
 1110TIP3    H124821   4.232   3.271   1.175 -1.1864  0.9027 -1.6378
 1110TIP3    H224822   4.112   3.286   1.266  0.5624 -0.6729  1.0525
 1111TIP3   OH224823   3.211   0.997  14.311 -0.7580  0.2908  0.7866
 1111TIP3    H124824   3.157   1.036  14.380 -0.7923 -1.1274  1.6155
 1111TIP3    H224825   3.151   0.945  14.259 -0.5822  0.6542  0.2136
 1112TIP3   OH224826   5.145   3.046   1.944 -0.5701  0.4194 -0.1128
 1112TIP3    H124827   5.075   3.081   1.889 -0.3489 -0.7355 -1.1761
 1112TIP3    H224828   5.221   3.101   1.923  0.0884 -1.3063 -2.6614
 1113TIP3   OH224829   2.829   3.911  16.018  0.1961  0.4090 -0.2957
 1113TIP3    H124830   2.923   3.903  16.005 -0.2370 -1.1411 -3.3312
 1113TIP3    H224831   2.808   4.001  15.992  0.5994  0.0929 -1.7756
 1114TIP3   OH224832   0.303   0.737  13.439  0.2685 -0.1791 -0.2377
 1114TIP3    H124833   0.302   0.773  13.528 -0.0775 -1.7016  0.4098
 1114TIP3    H224834   0.379   0.678  13.438  0.0004 -0.5227 -0.7950
 1115TIP3   OH224835   3.929   6.391   2.526  0.6160 -0.1258  0.3517
 1115TIP3    H124836   3.930   6.485   2.506  1.6843 -0.3722 -0.8496
 1115TIP3    H224837   3.921   6.348   2.441 -1.4546 -1.1381  0.9875
 1116TIP3   OH224838   1.453   5.457   2.667 -0.0525 -0.4095  0.1167
 1116TIP3    H124839   1.414   5.420   2.746  0.2172 -2.7324 -0.7688
 1116TIP3    H224840   1.448   5.387   2.602  0.9294  0.9766 -1.5438
 1117TIP3   OH224841   6.700   4.719  12.897  0.3186  0.2917 -0.1843
 1117TIP3    H124842   6.687   4.804  12.855 -0.2345  0.0729 -0.4710
 1117TIP3    H224843   6.701   4.657  12.825 -1.5258 -0.1946  0.1529
 1118TIP3   OH224844   1.863   3.406  17.099  0.1245 -0.3452  0.0950
 1118TIP3    H124845   1.846   3.493  17.136  0.3341 -0.0015 -0.5979
 1118TIP3    H224846   1.940   3.375  17.147  1.1694  0.6253 -0.8798
 1119TIP3   OH224847   4.297   3.837  11.905 -0.3637  0.5620 -0.3168
 1119TIP3    H124848   4.242   3.910  11.932 -1.8861  0.6458 -3.2283
 1119TIP3    H224849   4.262   3.762  11.954 -0.4672  1.3087  0.7841
 1120TIP3   OH224850   2.537   1.901  11.830 -0.6449  0.1921 -0.0970
 1120TIP3    H124851   2.632   1.897  11.838 -0.5823 -1.2898 -1.1323
 1120TIP3    H224852   2.517   1.994  11.823  1.1274  0.4732 -3.6213
 1121TIP3   OH224853   2.797   1.522   3.549  0.6269  0.1072  0.1758
 1121TIP3    H124854   2.847   1.504   3.629  0.1167 -0.0539  0.4602
 1121TIP3    H224855   2.797   1.439   3.501 -1.2123 -0.5489  1.2053
 1122TIP3   OH224856   0.408   0.690  12.820 -0.1816 -0.7166 -0.3006
 1122TIP3    H124857   0.319   0.661  12.801 -1.0472  1.9897 -0.7149
 1122TIP3    H224858   0.441   0.724  12.738  1.0299 -1.1208 -0.0011
 1123TIP3   OH224859   4.711   3.386   2.373 -0.2868 -0.1110  0.0729
 1123TIP3    H124860   4.790   3.411   2.421  1.0811  0.8494 -2.5195
 1123TIP3    H224861   4.692   3.297   2.403  1.7368 -0.3300  0.8267
 1124TIP3   OH224862   4.830   2.956   4.659 -0.2662 -0.3196  0.8256
 1124TIP3    H124863   4.831   3.035   4.605 -0.3862  0.7431  2.3187
 1124TIP3    H224864   4.921   2.940   4.681 -0.3847  0.4397  1.9411
 1125TIP3   OH224865   0.294   3.198   5.727  0.8431 -0.0009  0.3833
 1125TIP3    H124866   0.369   3.234   5.681  1.1165  1.1003  1.6479
 1125TIP3    H224867   0.272   3.118   5.679  2.0682  0.2972 -0.7047
 1126TIP3   OH224868   3.703   2.978   2.530 -0.6004  0.7703 -0.0612
 1126TIP3    H124869   3.701   2.997   2.436  0.5975 -1.3904 -0.6073
 1126TIP3    H224870   3.765   3.041   2.566  0.3334  0.4627 -1.0740
 1127TIP3   OH224871   4.531   1.574  10.730  0.4730 -0.1776  0.1414
 1127TIP3    H124872   4.455   1.541  10.682 -0.0695  0.6627  0.4150
 1127TIP3    H224873   4.587   1.497  10.740  0.0216 -0.6418 -0.7309
 1128TIP3   OH224874   5.184   2.616   1.304  0.1079 -0.8044  0.2437
 1128TIP3    H124875   5.089   2.616   1.320  0.1581 -0.7671  0.5295
 1128TIP3    H224876   5.216   2.540   1.353  0.5628  0.5085  2.0542
 1129TIP3   OH224877   5.858   0.144   5.061 -0.3798  0.0875 -0.4092
 1129TIP3    H124878   5.886   0.077   4.998 -0.7707 -0.6825  0.2318
 1129TIP3    H224879   5.808   0.096   5.126  3.2429  0.0910  2.7332
 1130TIP3   OH224880   2.229   0.769  13.348 -0.0067  0.2864  0.1963
 1130TIP3    H124881   2.139   0.803  13.350 -1.0833 -2.0624 -1.9393
 1130TIP3    H224882   2.246   0.752  13.255  1.5205 -2.0527  0.8085
 1131TIP3   OH224883   5.073   2.273  11.092 -0.1167  0.0033 -0.0576
 1131TIP3    H124884   5.039   2.212  11.027 -1.5243  0.5098  0.1846
 1131TIP3    H224885   5.106   2.347  11.040  0.0067 -0.1903 -0.2560
 1132TIP3   OH224886   4.529   4.240   4.322  0.8687  0.4297 -0.1014
 1132TIP3    H124887   4.515   4.148   4.303  0.1287  0.5195 -0.0121
 1132TIP3    H224888   4.625   4.251   4.321  1.0556 -0.6941  1.5567
 1133TIP3   OH224889   3.598   2.684   3.090  0.0030 -0.1131 -0.2401
 1133TIP3    H124890   3.522   2.646   3.045  0.8219 -1.0649 -0.8650
 1133TIP3    H224891   3.583   2.665   3.183 -0.7002  0.0534 -0.3099
 1134TIP3   OH224892   0.222   4.386  16.131  0.0416  0.3259  0.2079
 1134TIP3    H124893   0.234   4.291  16.121 -1.0274  0.1980 -0.0381
 1134TIP3    H224894   0.280   4.425  16.065 -0.8049 -0.2289 -0.8964
 1135TIP3   OH224895   0.086   0.044  14.089 -0.0550 -0.6216 -0.2551
 1135TIP3    H124896   0.166   0.035  14.141 -0.9519 -2.6974  0.9057
 1135TIP3    H224897   0.041   0.120  14.127  1.1454  0.3379 -0.6856
 1136TIP3   OH224898   6.623   5.466  16.855  0.6228 -0.3589  0.1839
 1136TIP3    H124899   6.607   5.550  16.899 -1.7392  0.2162 -1.5337
 1136TIP3    H224900   6.549   5.412  16.879 -0.3121 -0.3013 -2.2713
 1137TIP3   OH224901   0.418   3.191   1.250 -0.3121  0.2451 -0.2310
 1137TIP3    H124902   0.375   3.238   1.321  1.5118 -0.1336  1.2130
 1137TIP3    H224903   0.348   3.145   1.205 -1.6021  1.0543  0.8910
 1138TIP3   OH224904   5.697   2.377   4.709  0.1894  0.2033 -0.2548
 1138TIP3    H124905   5.607   2.403   4.733  0.3935 -0.2257  1.0926
 1138TIP3    H224906   5.744   2.377   4.793  1.0634 -1.0611 -0.7270
 1139TIP3   OH224907   3.511   4.589   1.956  0.2304  0.0662 -0.4548
 1139TIP3    H124908   3.484   4.506   1.996  0.2583  0.6117  0.7446
 1139TIP3    H224909   3.606   4.588   1.963  0.3197 -0.2979 -1.5015
 1140TIP3   OH224910   1.039   5.736   2.137 -0.4882  0.4890 -0.3816
 1140TIP3    H124911   1.124   5.704   2.107  0.2015  1.1361  0.8083
 1140TIP3    H224912   1.045   5.734   2.232 -2.1539 -0.3345 -0.2528
 1141TIP3   OH224913   0.962   2.528   1.811 -0.0297 -0.6971  0.3863
 1141TIP3    H124914   0.893   2.582   1.849  0.2255 -0.3701  0.3950
 1141TIP3    H224915   0.979   2.461   1.877 -0.2801 -0.7258  0.4206
 1142TIP3   OH224916   5.556   5.396  17.203  0.4412 -0.4334  0.0084
 1142TIP3    H124917   5.566   5.346  17.122  1.2586 -0.4907  0.1372
 1142TIP3    H224918   5.487   5.350  17.251 -0.6219  0.0643 -0.9926
 1143TIP3   OH224919   0.168   2.023   5.625  0.1782  0.5480 -0.0546
 1143TIP3    H124920   0.165   2.031   5.720  2.5056 -0.3924  0.1792
 1143TIP3    H224921   0.198   1.933   5.610 -0.2195  0.6630 -1.6761
 1144TIP3   OH224922   4.057   3.281   5.547 -0.1094  0.3290  0.5308
 1144TIP3    H124923   4.080   3.250   5.635 -1.7126 -1.0130  0.5389
 1144TIP3    H224924   4.065   3.203   5.492  1.6086  1.3138 -0.7171
 1145TIP3   OH224925   2.963   0.876  16.299  0.2555  0.3144 -0.1415
 1145TIP3    H124926   2.916   0.823  16.234  2.2918  0.1437 -1.5496
 1145TIP3    H224927   3.014   0.813  16.350  1.1901  0.7245 -0.5459
 1146TIP3   OH224928   5.209   5.804   0.311 -0.1038  0.1622  0.2427
 1146TIP3    H124929   5.141   5.823   0.246 -0.2081 -0.3867  0.1883
 1146TIP3    H224930   5.228   5.889   0.352 -0.0935  0.4935 -0.4484
 1147TIP3   OH224931   1.260   4.332  12.184  0.7119 -0.4067 -0.2211
 1147TIP3    H124932   1.263   4.311  12.091  1.7715 -2.0300  0.1417
 1147TIP3    H224933   1.291   4.253  12.228 -0.3615  0.0945  1.5552
 1148TIP3   OH224934   4.739   0.064  13.796 -0.0149  0.2684 -0.0386
 1148TIP3    H124935   4.810   0.122  13.823 -1.2317  1.2412  1.2442
 1148TIP3    H224936   4.674   0.122  13.757 -0.3378 -0.5324 -0.7303
 1149TIP3   OH224937   0.973   0.654  11.944 -0.2538  0.1428 -0.3650
 1149TIP3    H124938   0.944   0.568  11.975  0.7946  0.5194  1.8652
 1149TIP3    H224939   0.993   0.641  11.852  0.6489 -2.2360  0.0993
 1150TIP3   OH224940   2.962   2.351  13.930 -0.5561 -0.2148  0.6212
 1150TIP3    H124941   2.882   2.352  13.876  0.6026  1.5205 -1.2223
 1150TIP3    H224942   2.933   2.381  14.016 -2.7821 -4.6428  1.6811
 1151TIP3   OH224943   2.278   3.136   5.451 -0.2443 -0.0111 -0.8783
 1151TIP3    H124944   2.268   3.195   5.376 -2.8468 -0.2213 -0.8037
 1151TIP3    H224945   2.227   3.177   5.521 -0.2683 -1.2354 -0.1444
 1152TIP3   OH224946   3.695   3.160  13.817  0.1267  0.1703 -0.2557
 1152TIP3    H124947   3.647   3.233  13.856  0.3464 -0.3081  0.9430
 1152TIP3    H224948   3.633   3.087  13.816  0.9164 -0.6170  1.8185
 1153TIP3   OH224949   6.780   4.897   2.360 -0.9193  0.3935 -0.0817
 1153TIP3    H124950   6.708   4.835   2.343 -1.4183  0.9277  0.0467
 1153TIP3    H224951   6.858   4.842   2.365 -1.1514 -0.0964 -1.3052
 1154TIP3   OH224952   6.245   3.290  11.827 -0.0064  0.2731  0.2085
 1154TIP3    H124953   6.168   3.299  11.883 -1.2127  0.1513 -1.3629
 1154TIP3    H224954   6.318   3.320  11.882 -1.1282  0.2460  1.7925
 1155TIP3   OH224955   3.263   1.015  14.825 -0.2090 -0.1446 -0.0461
 1155TIP3    H124956   3.184   0.971  14.857  0.4415 -0.8170  0.6935
 1155TIP3    H224957   3.308   0.949  14.771  1.7564 -1.2025  2.6261
 1156TIP3   OH224958   5.996   2.156   5.300  0.3426  0.3365 -0.3413
 1156TIP3    H124959   6.086   2.183   5.319 -0.0240  0.7566  0.8453
 1156TIP3    H224960   5.941   2.222   5.343 -0.5523 -0.7464  0.2303
 1157TIP3   OH224961   0.852   1.759  15.818 -0.3094 -0.7662 -0.1661
 1157TIP3    H124962   0.791   1.762  15.891  0.5295 -3.3976  0.7632
 1157TIP3    H224963   0.841   1.671  15.781  0.6904 -0.2018 -1.9810
 1158TIP3   OH224964   5.168   4.870  11.227 -0.3148 -0.0808  0.3087
 1158TIP3    H124965   5.227   4.858  11.152  1.2967  1.5648  1.2195
 1158TIP3    H224966   5.085   4.896  11.187 -0.3064 -1.8462 -0.9930
 1159TIP3   OH224967   2.864   6.232   5.214 -0.0256  0.0021 -0.7758
 1159TIP3    H124968   2.855   6.138   5.194 -2.4208  0.0693 -0.2461
 1159TIP3    H224969   2.833   6.276   5.135  0.3754  0.3410 -0.7438
 1160TIP3   OH224970   0.374   3.690   3.445  0.1885 -0.5679  0.3833
 1160TIP3    H124971   0.290   3.650   3.423  0.5749 -0.9913 -0.3813
 1160TIP3    H224972   0.353   3.780   3.469 -0.3760 -0.3257 -0.9234
 1161TIP3   OH224973   6.052   1.697   3.898 -0.3762 -0.6507  0.1700
 1161TIP3    H124974   6.027   1.614   3.860 -0.1996 -0.0066 -1.4086
 1161TIP3    H224975   5.999   1.704   3.978 -0.0181 -2.4741  0.6027
 1162TIP3   OH224976   4.012   3.144   0.946  0.0979 -0.1249  0.1175
 1162TIP3    H124977   4.013   3.157   1.040 -1.7632 -0.1142  0.1686
 1162TIP3    H224978   3.920   3.150   0.921  0.4766 -0.7106 -1.6173
 1163TIP3   OH224979   4.292   0.916  15.602 -0.2560  0.0250  0.3742
 1163TIP3    H124980   4.275   0.924  15.508 -0.7634 -0.9617  0.3763
 1163TIP3    H224981   4.209   0.940  15.644 -0.5365 -1.1072  0.5055
 1164TIP3   OH224982   0.222   3.296   3.935 -0.6104 -0.0803  0.7235
 1164TIP3    H124983   0.262   3.218   3.973 -0.7376 -0.4765  0.0572
 1164TIP3    H224984   0.290   3.363   3.942 -0.3908 -0.3293  1.0180
 1165TIP3   OH224985   0.009   6.282   3.769  0.3946  1.0861  0.2153
 1165TIP3    H124986   0.071   6.227   3.721 -1.0358 -0.9853  0.5790
 1165TIP3    H224987   0.060   6.320   3.840  1.7336  1.2734 -0.8194
 1166TIP3   OH224988   3.178   1.853   2.724  0.3226  0.1478  0.3682
 1166TIP3    H124989   3.092   1.844   2.683  0.0746  0.7529  0.7441
 1166TIP3    H224990   3.215   1.765   2.721  0.7760  0.3552 -2.1058
 1167TIP3   OH224991   3.863   0.259  10.737 -0.6447  0.5299  0.0864
 1167TIP3    H124992   3.914   0.328  10.779 -2.6904  0.9433  2.1116
 1167TIP3    H224993   3.916   0.180  10.749  0.9077  1.4107 -0.6781
 1168TIP3   OH224994   6.566   2.806   1.457  0.1757 -0.0721 -0.6430
 1168TIP3    H124995   6.478   2.840   1.442 -0.3206  0.4666  2.7697
 1168TIP3    H224996   6.593   2.773   1.372 -2.9650  0.5338 -2.0269
 1169TIP3   OH224997   3.887   1.383  12.043 -0.3048  0.4429 -0.0623
 1169TIP3    H124998   3.887   1.478  12.029 -1.2778  0.2448 -1.6646
 1169TIP3    H224999   3.956   1.350  11.984  1.8224  0.3205  2.3248
 1170TIP3   OH225000   4.039   4.310   3.177  0.5610 -0.3258  0.1175
 1170TIP3    H125001   4.071   4.336   3.090  1.5146 -0.4064  0.4284
 1170TIP3    H225002   4.109   4.256   3.213 -0.1329 -0.8807  0.6637
 1171TIP3   OH225003   1.665   1.787   4.302  0.4660 -0.1895 -0.1830
 1171TIP3    H125004   1.722   1.767   4.377  1.1237  0.2353 -0.5604
 1171TIP3    H225005   1.675   1.881   4.289  1.3273 -0.4493 -1.5807
 1172TIP3   OH225006   6.602   0.094   4.692  0.2060  0.5828 -0.4268
 1172TIP3    H125007   6.517   0.050   4.683  1.1849 -2.0849  1.6469
 1172TIP3    H225008   6.660   0.045   4.634  1.0354 -0.0121  0.8621
 1173TIP3   OH225009   1.639   3.516   3.863 -0.4870 -0.1601 -0.3213
 1173TIP3    H125010   1.642   3.547   3.953 -0.7196 -0.3330 -0.2543
 1173TIP3    H225011   1.653   3.595   3.810  1.7776 -0.3420 -0.1171
 1174TIP3   OH225012   1.602   1.040  14.183 -0.7502 -0.6565  0.8268
 1174TIP3    H125013   1.588   1.120  14.233  0.0437 -1.7412  2.9492
 1174TIP3    H225014   1.687   1.051  14.141 -1.5352  0.3702 -0.5561
 1175TIP3   OH225015   3.509   6.508  10.804 -0.1742  0.4183  0.6446
 1175TIP3    H125016   3.415   6.519  10.813 -0.2052  2.5983 -1.3470
 1175TIP3    H225017   3.523   6.413  10.806 -2.4896  0.0123  0.2818
 1176TIP3   OH225018   2.924   3.455   5.538 -0.2720  0.0497  0.5259
 1176TIP3    H125019   2.968   3.435   5.456 -0.7818  0.0228  0.2555
 1176TIP3    H225020   2.993   3.489   5.595 -0.4689  3.2399 -0.9620
 1177TIP3   OH225021   5.196   0.774  13.179  0.6215 -0.5213 -0.7018
 1177TIP3    H125022   5.166   0.829  13.107  0.2703  1.2386  0.7070
 1177TIP3    H225023   5.277   0.815  13.209 -0.1130 -0.1586  0.9540
 1178TIP3   OH225024   0.484   2.168  17.115  0.5926  0.4853  0.2060
 1178TIP3    H125025   0.577   2.144  17.108  0.3054 -0.9491  0.8987
 1178TIP3    H225026   0.474   2.202  17.204  0.5274  1.0169 -0.0015
 1179TIP3   OH225027   4.298   0.263  15.403 -0.2369 -0.1709 -0.1449
 1179TIP3    H125028   4.272   0.307  15.323 -0.5794  0.0986  0.1113
 1179TIP3    H225029   4.394   0.269  15.404 -0.2031 -0.5226 -0.7241
 1180TIP3   OH225030   6.014   3.392  11.270  0.4087 -0.2326  0.5073
 1180TIP3    H125031   6.025   3.386  11.175  0.2528  0.8915  0.4059
 1180TIP3    H225032   6.094   3.433  11.302 -1.2087  3.5304  0.3027
 1181TIP3   OH225033   6.583   0.296   2.359  0.3868  0.4111  0.1337
 1181TIP3    H125034   6.530   0.360   2.407  1.0020  0.9885  0.0531
 1181TIP3    H225035   6.529   0.272   2.283 -0.4128 -0.1880  0.8699
 1182TIP3   OH225036   2.021   2.121   4.721 -0.1698 -0.1839  0.2477
 1182TIP3    H125037   1.958   2.170   4.668  0.6166  0.9538  0.3234
 1182TIP3    H225038   2.105   2.134   4.677  0.1287 -1.1241  0.5141
 1183TIP3   OH225039   3.778   3.991  16.993 -0.3992 -0.8757  0.0142
 1183TIP3    H125040   3.852   3.931  16.990 -1.2776 -2.0283  0.5912
 1183TIP3    H225041   3.772   4.017  17.085  0.1240  0.3238 -0.2694
 1184TIP3   OH225042   1.633   1.893   1.823  0.0321 -0.5206 -0.3331
 1184TIP3    H125043   1.654   1.856   1.737 -0.1631  0.0897 -0.6457
 1184TIP3    H225044   1.700   1.958   1.839 -0.9142  0.6023 -0.8131
 1185TIP3   OH225045   5.319   0.957  17.073 -0.0801  0.2047  0.8340
 1185TIP3    H125046   5.321   0.864  17.051 -1.1429  0.6010 -1.1865
 1185TIP3    H225047   5.234   0.969  17.117 -0.0465  0.2611  0.8851
 1186TIP3   OH225048   1.600   5.634   6.240 -0.1404 -0.2241  0.5115
 1186TIP3    H125049   1.647   5.597   6.315  2.1175 -0.7072 -1.0357
 1186TIP3    H225050   1.543   5.563   6.210  0.1158 -0.5588  0.8118
 1187TIP3   OH225051   0.380   2.719   0.191 -0.0914 -0.0083 -0.8495
 1187TIP3    H125052   0.288   2.715   0.166 -0.7640  0.7611  1.3380
 1187TIP3    H225053   0.406   2.627   0.201 -1.1831 -0.2115  0.3501
 1188TIP3   OH225054   1.837   3.149   4.675 -0.0788  0.2890  1.0886
 1188TIP3    H125055   1.906   3.112   4.731  0.0329  1.5808  1.8463
 1188TIP3    H225056   1.882   3.214   4.622 -0.6263  0.7643  1.2031
 1189TIP3   OH225057   5.076   6.577   3.112 -0.3921 -0.2357 -1.0816
 1189TIP3    H125058   5.040   6.649   3.162 -0.8993 -1.6793  0.7516
 1189TIP3    H225059   4.999   6.526   3.085 -0.1227  0.4025 -3.2631
 1190TIP3   OH225060   1.835   6.744  13.674  0.6198  0.2733  0.8322
 1190TIP3    H125061   1.810   6.831  13.704  0.0881  0.8067 -0.9946
 1190TIP3    H225062   1.871   6.758  13.586  0.6300 -1.3281  0.5402
 1191TIP3   OH225063   4.766   3.190  11.767 -0.0023  0.0764 -0.1349
 1191TIP3    H125064   4.832   3.252  11.798  0.6916  0.3035 -1.9375
 1191TIP3    H225065   4.693   3.245  11.738 -1.3715 -0.1960  2.4902
 1192TIP3   OH225066   0.468   2.706  15.032 -0.1293 -0.2461  0.0568
 1192TIP3    H125067   0.474   2.741  15.120  1.4112 -1.0459  0.3068
 1192TIP3    H225068   0.555   2.668  15.015  0.1624  1.3246 -2.4286
 1193TIP3   OH225069   5.962   2.417  17.181  0.1698  0.4282  0.5818
 1193TIP3    H125070   5.870   2.399  17.163  0.6807 -0.0163 -2.0081
 1193TIP3    H225071   6.005   2.411  17.096  2.6110  0.6471  1.6991
 1194TIP3   OH225072   0.066   6.309  16.645 -0.2895  0.6407 -0.3802
 1194TIP3    H125073   0.011   6.359  16.705 -0.3020 -0.0227  0.1695
 1194TIP3    H225074   0.004   6.250  16.601  0.1082 -0.9814  1.1249
 1195TIP3   OH225075   0.698   3.044  11.771 -0.3405 -0.3607 -0.2100
 1195TIP3    H125076   0.674   3.112  11.834 -1.0438 -0.4109 -0.4090
 1195TIP3    H225077   0.773   3.000  11.810 -0.7858 -0.4095  0.6019
 1196TIP3   OH225078   5.188   0.141   3.164  0.6764 -0.3447 -0.2726
 1196TIP3    H125079   5.199   0.211   3.228 -4.3951  0.1294  0.5352
 1196TIP3    H225080   5.158   0.186   3.085  1.2980 -1.3559 -1.1022
 1197TIP3   OH225081   6.504   2.557   3.239 -0.5943  0.1516  0.0913
 1197TIP3    H125082   6.567   2.579   3.170 -0.7924 -0.0246 -0.1471
 1197TIP3    H225083   6.420   2.551   3.194 -0.3417 -2.7026 -0.1816
 1198TIP3   OH225084   5.558   4.548  16.930  0.0013 -0.4593 -0.0881
 1198TIP3    H125085   5.589   4.552  16.839 -0.5497  0.2100 -0.2555
 1198TIP3    H225086   5.493   4.477  16.930 -1.5235  0.8721 -0.7191
 1199TIP3   OH225087   4.518   0.072   3.322 -0.2652  0.2909 -0.6202
 1199TIP3    H125088   4.593   0.045   3.270  0.3359 -0.8453  0.7738
 1199TIP3    H225089   4.539   0.044   3.411 -3.0212 -1.5820 -0.4393
 1200TIP3   OH225090   2.620   3.863  16.265 -0.7491 -0.1040  0.5693
 1200TIP3    H125091   2.661   3.836  16.182 -1.7103  1.8260 -0.6044
 1200TIP3    H225092   2.526   3.858  16.248 -0.9758  2.4905  0.7283
 1201TIP3   OH225093   3.417   3.077  12.559  0.8994 -0.3312  0.3894
 1201TIP3    H125094   3.441   3.054  12.469  1.4094 -1.0451  0.6980
 1201TIP3    H225095   3.496   3.116  12.595 -0.3781  3.6817 -0.6252
 1202TIP3   OH225096   1.362   5.824  15.179 -0.5246 -0.2531  0.2227
 1202TIP3    H125097   1.388   5.853  15.266  2.7472  0.2318 -0.7727
 1202TIP3    H225098   1.350   5.906  15.129  0.6897 -0.5076 -0.5256
 1203TIP3   OH225099   4.223   0.100  11.997  0.0230 -0.2331  0.7148
 1203TIP3    H125100   4.219   0.059  11.910  0.0577  1.2140 -0.0069
 1203TIP3    H225101   4.310   0.078  12.030  0.6248  0.5047 -0.3207
 1204TIP3   OH225102   2.922   2.902   3.257  0.4080  0.2211  0.3216
 1204TIP3    H125103   2.983   2.975   3.273 -1.3232  1.9143 -0.4636
 1204TIP3    H225104   2.837   2.934   3.287 -0.5317 -1.2288 -0.6686
 1205TIP3   OH225105   1.401   2.287  13.870 -0.0973  0.6541  0.3500
 1205TIP3    H125106   1.402   2.252  13.959 -1.4028  0.3069  0.2426
 1205TIP3    H225107   1.390   2.210  13.814 -3.1028  1.1451  0.1170
 1206TIP3   OH225108   3.580   2.813   2.176 -0.0478 -0.0015  0.3153
 1206TIP3    H125109   3.587   2.768   2.092  2.4196  0.4990  0.1542
 1206TIP3    H225110   3.662   2.792   2.221 -0.2919  1.5961  1.6160
 1207TIP3   OH225111   6.693   3.872   6.525 -0.1647 -0.2654 -0.1778
 1207TIP3    H125112   6.605   3.850   6.494  0.5780 -1.1483 -1.7438
 1207TIP3    H225113   6.736   3.788   6.541  0.5013  0.1495  0.2878
 1208TIP3   OH225114   0.374   2.483   5.251 -0.4323  0.0539  0.5387
 1208TIP3    H125115   0.299   2.519   5.299 -1.6269 -1.1880 -0.3029
 1208TIP3    H225116   0.401   2.407   5.301  0.8958  1.0224  1.3316
 1209TIP3   OH225117   5.976   3.443  12.634  0.6850 -0.0415 -0.0716
 1209TIP3    H125118   5.960   3.528  12.593  2.6799  0.0692 -0.7340
 1209TIP3    H225119   5.892   3.397  12.627 -0.2769  1.6473 -0.2005
 1210TIP3   OH225120   3.122   1.105   2.305  0.7666  0.2727  0.0062
 1210TIP3    H125121   3.202   1.155   2.319  1.0565 -0.6963  2.2473
 1210TIP3    H225122   3.152   1.017   2.284  0.3954 -0.5777  2.6973
 1211TIP3   OH225123   0.811   2.663  14.551  0.2053  0.1091 -0.6831
 1211TIP3    H125124   0.852   2.747  14.530  4.0182 -1.7400 -1.3546
 1211TIP3    H225125   0.832   2.607  14.477 -1.3715 -1.7606  0.2045
 1212TIP3   OH225126   6.210   5.737   4.915 -0.5927  0.3071 -0.3701
 1212TIP3    H125127   6.228   5.726   5.009 -0.6696 -0.2591 -0.4186
 1212TIP3    H225128   6.262   5.668   4.873 -2.6314 -1.2158 -0.5409
 1213TIP3   OH225129   4.959   3.109   0.877  0.0066  0.0684 -0.3848
 1213TIP3    H125130   4.931   3.194   0.910  2.6145  0.5421  0.9190
 1213TIP3    H225131   4.966   3.053   0.955  3.2426  0.2802 -0.3572
 1214TIP3   OH225132   1.166   2.451  16.662  0.2703  0.3362  0.6940
 1214TIP3    H125133   1.088   2.483  16.709 -1.7274 -1.0547 -1.4456
 1214TIP3    H225134   1.145   2.466  16.569  1.5212 -2.1706 -0.0767
 1215TIP3   OH225135   0.561   5.692   5.683  0.9706  0.3169 -0.0478
 1215TIP3    H125136   0.657   5.696   5.683  1.1980 -2.7067 -0.6400
 1215TIP3    H225137   0.539   5.657   5.769  0.4388  0.3465 -0.1729
 1216TIP3   OH225138   1.174   6.623  12.335  0.7948  0.4055 -0.5237
 1216TIP3    H125139   1.201   6.633  12.426 -0.8818 -3.1344  0.5867
 1216TIP3    H225140   1.208   6.537  12.310 -4.0967 -1.8008 -0.8290
 1217TIP3   OH225141   3.713   2.305   0.839  0.3095 -0.3478  0.1240
 1217TIP3    H125142   3.652   2.367   0.880  0.5185 -1.2958  1.9695
 1217TIP3    H225143   3.770   2.360   0.786 -0.6070  0.8404  0.3150
 1218TIP3   OH225144   5.998   1.254   1.213 -0.2427 -0.3449 -0.2435
 1218TIP3    H125145   5.935   1.195   1.255 -0.5577  1.9200  2.8333
 1218TIP3    H225146   5.945   1.329   1.186  0.8773  1.3421  1.8795
 1219TIP3   OH225147   5.889   3.304  11.536  0.2418 -0.6163  0.0161
 1219TIP3    H125148   5.872   3.366  11.607 -0.5618 -0.0423 -0.6411
 1219TIP3    H225149   5.897   3.359  11.458  0.6252 -1.2664 -0.4165
 1220TIP3   OH225150   2.793   1.103   3.920 -0.2818  0.3580  0.1921
 1220TIP3    H125151   2.703   1.069   3.920  0.3558 -1.5483  2.1636
 1220TIP3    H225152   2.831   1.071   4.001  3.5174 -2.5262 -2.3667
 1221TIP3   OH225153   5.531   1.676   1.940 -0.2104  0.1184 -0.3869
 1221TIP3    H125154   5.545   1.768   1.919 -1.6693  0.8643  1.6327
 1221TIP3    H225155   5.575   1.663   2.024 -1.3439 -0.5840  0.1257
 1222TIP3   OH225156   0.777   0.061   5.541 -0.2662 -0.8843  0.1794
 1222TIP3    H125157   0.791   0.104   5.625 -1.6021 -2.6075  1.3661
 1222TIP3    H225158   0.682   0.048   5.536 -0.3757  0.3101 -2.2242
 1223TIP3   OH225159   6.081   1.187  13.113 -0.1390 -0.1252 -0.1903
 1223TIP3    H125160   5.990   1.190  13.143  0.1233  0.3330  0.5939
 1223TIP3    H225161   6.089   1.102  13.071 -1.3643  0.4604 -1.7278
 1224TIP3   OH225162   2.731   2.139   0.316 -0.3669  0.4963  0.2587
 1224TIP3    H125163   2.668   2.087   0.265  0.3159 -0.7000  0.5758
 1224TIP3    H225164   2.764   2.077   0.382  0.3582  1.4004  0.7609
 1225TIP3   OH225165   5.480   6.432   0.763  0.7618 -0.3274 -0.2720
 1225TIP3    H125166   5.409   6.430   0.698 -0.1551 -1.4612  0.7096
 1225TIP3    H225167   5.455   6.502   0.823  1.3960  0.4432 -0.8905
 1226TIP3   OH225168   3.468   4.200  16.564  0.1013 -0.2463 -0.2454
 1226TIP3    H125169   3.535   4.163  16.621  0.3890 -0.3470 -0.6424
 1226TIP3    H225170   3.439   4.280  16.608  0.4872 -0.2014 -0.0771
 1227TIP3   OH225171   5.949   5.918   5.434 -0.0493 -0.6655  0.8365
 1227TIP3    H125172   6.019   5.874   5.385 -0.2732  1.7019 -1.9270
 1227TIP3    H225173   5.994   5.981   5.490  0.1339  0.3303 -0.3822
 1228TIP3   OH225174   5.879   0.051   3.237  0.1664 -0.5043  0.2945
 1228TIP3    H125175   5.794   0.007   3.246 -0.1712  0.3667  1.5492
 1228TIP3    H225176   5.866   0.115   3.167  0.2398 -1.3741 -0.5368
 1229TIP3   OH225177   6.679   3.717  13.228  0.4344  0.0585 -0.0096
 1229TIP3    H125178   6.768   3.745  13.250  0.3989 -0.2679  0.5911
 1229TIP3    H225179   6.678   3.710  13.133  0.7503  1.0526 -0.0971
 1230TIP3   OH225180   1.511   0.420  12.773 -0.0123 -0.6574  0.1156
 1230TIP3    H125181   1.423   0.384  12.775  0.7861 -2.7439  0.2050
 1230TIP3    H225182   1.558   0.366  12.710  1.0389  0.8644 -0.4744
 1231TIP3   OH225183   6.076   4.357   6.043  0.3004  0.1738 -0.2158
 1231TIP3    H125184   6.143   4.368   6.111  1.0618  0.2655 -0.9579
 1231TIP3    H225185   6.104   4.415   5.973 -1.8144  1.9840  0.3280
 1232TIP3   OH225186   1.318   2.911  15.246  0.0148 -0.2837 -0.3045
 1232TIP3    H125187   1.344   2.872  15.329 -0.0114  1.1551  0.4023
 1232TIP3    H225188   1.387   2.884  15.184  0.3473 -0.8720  0.3122
 1233TIP3   OH225189   2.307   0.949  15.851  0.2841 -0.5898  0.1368
 1233TIP3    H125190   2.242   0.930  15.782  0.6286  1.6256 -0.8882
 1233TIP3    H225191   2.373   0.881  15.841  0.6666  0.0418 -2.2489
 1234TIP3   OH225192   5.103   2.802   4.732 -0.3703 -0.0803 -0.2676
 1234TIP3    H125193   5.184   2.750   4.735 -0.3452 -0.0420 -0.2746
 1234TIP3    H225194   5.129   2.882   4.687 -0.0251  0.6132  1.1020
 1235TIP3   OH225195   4.121   3.151   4.301  0.2971 -0.1738  0.5445
 1235TIP3    H125196   4.189   3.084   4.314  2.0079  1.1946 -0.7795
 1235TIP3    H225197   4.128   3.208   4.377 -1.5897 -1.7429  1.9939
 1236TIP3   OH225198   0.999   1.150   5.048 -0.1182 -0.2229 -0.6722
 1236TIP3    H125199   1.075   1.114   5.094 -0.8594  1.4609  2.1493
 1236TIP3    H225200   0.926   1.094   5.076 -0.5755  0.8063  0.2915
 1237TIP3   OH225201   6.370   3.368   0.990  0.4791  0.0523 -0.7376
 1237TIP3    H125202   6.301   3.428   0.963  1.6052  0.2753 -3.5264
 1237TIP3    H225203   6.386   3.388   1.082 -2.5059  0.5960 -0.2640
 1238TIP3   OH225204   5.211   4.413  13.422  1.0405 -0.7848 -0.4480
 1238TIP3    H125205   5.239   4.393  13.333 -0.0005 -2.5045 -0.4470
 1238TIP3    H225206   5.282   4.465  13.459  0.6222  1.6448 -2.8499
 1239TIP3   OH225207   2.779   4.849  15.288  0.6083 -0.0191 -0.7336
 1239TIP3    H125208   2.859   4.900  15.275  0.1833  0.8328 -0.0920
 1239TIP3    H225209   2.724   4.904  15.344 -0.1589 -0.8799 -0.6185
 1240TIP3   OH225210   0.724   5.885   1.483 -0.5703  0.5192 -0.5776
 1240TIP3    H125211   0.637   5.925   1.476 -0.7938  0.4396  1.3503
 1240TIP3    H225212   0.708   5.800   1.525  0.6195  1.4843  2.0396
 1241TIP3   OH225213   6.119   3.463   0.380 -0.5200  0.0147  0.3186
 1241TIP3    H125214   6.061   3.416   0.440  0.4379  0.0787  1.3512
 1241TIP3    H225215   6.155   3.535   0.434  0.3200  0.1104 -0.3434
 1242TIP3   OH225216   1.890   0.085   1.596 -0.4207  0.1607  0.0621
 1242TIP3    H125217   1.811   0.067   1.646 -0.5153  0.5832  0.0748
 1242TIP3    H225218   1.908   0.004   1.549 -0.7871  0.0196  0.1602
 1243TIP3   OH225219   6.543   1.834   0.493  0.3695  0.0141 -0.4700
 1243TIP3    H125220   6.567   1.748   0.457  2.2482 -0.1389  0.9174
 1243TIP3    H225221   6.448   1.834   0.495  0.3054 -2.3374  0.0541
 1244TIP3   OH225222   2.841   5.438  13.781  0.0758  0.1786  0.0083
 1244TIP3    H125223   2.903   5.470  13.846  1.1154  0.3726 -1.0695
 1244TIP3    H225224   2.866   5.347  13.767 -0.5686 -0.0616  0.3463
 1245TIP3   OH225225   0.835   3.452  15.040  0.0099  0.1581 -0.2569
 1245TIP3    H125226   0.741   3.467  15.048  0.1740  0.4718  1.3208
 1245TIP3    H225227   0.862   3.510  14.969 -0.5947  1.9727  0.9298
 1246TIP3   OH225228   6.564   1.548  10.892 -0.1869  0.2595  0.2975
 1246TIP3    H125229   6.522   1.514  10.812 -0.8337  2.7799 -0.5553
 1246TIP3    H225230   6.654   1.568  10.865 -0.3475  0.9248  0.2417
 1247TIP3   OH225231   4.540   5.977   3.168  0.0372  0.3005  0.1060
 1247TIP3    H125232   4.520   6.032   3.092 -0.4098 -0.6463 -0.4822
 1247TIP3    H225233   4.492   6.018   3.240  0.4855  1.2231 -0.1088
 1248TIP3   OH225234   4.407   6.195   2.609 -0.2354 -0.3757 -0.1177
 1248TIP3    H125235   4.334   6.136   2.629 -1.6024  0.6378 -1.8764
 1248TIP3    H225236   4.370   6.261   2.552  1.7211  1.1083  0.2178
 1249TIP3   OH225237   4.908   3.434   4.452  0.1623  0.2164  0.0377
 1249TIP3    H125238   4.855   3.457   4.376 -0.9843  1.0567  1.0608
 1249TIP3    H225239   4.972   3.505   4.459 -2.3427  2.4603  2.2259
 1250TIP3   OH225240   3.273   5.316   2.781  0.2913 -0.1475 -0.7171
 1250TIP3    H125241   3.367   5.329   2.787  0.1960 -0.0177  0.9484
 1250TIP3    H225242   3.254   5.247   2.845 -1.0040  1.3603  0.6106
 1251TIP3   OH225243   5.636   0.793  14.159 -1.3069  0.2315 -0.0439
 1251TIP3    H125244   5.721   0.780  14.118 -0.7180  1.1969  0.8322
 1251TIP3    H225245   5.655   0.801  14.252 -2.4695 -0.4784  0.2829
 1252TIP3   OH225246   5.619   6.670  13.502  0.1791  0.4720 -0.0121
 1252TIP3    H125247   5.550   6.618  13.460  0.5820 -0.1982  0.1547
 1252TIP3    H225248   5.599   6.760  13.476 -1.0120  0.3468  0.3722
 1253TIP3   OH225249   6.032   0.826   4.163  0.4774 -0.2284  0.6518
 1253TIP3    H125250   5.967   0.772   4.116  1.2596 -0.3045 -0.3699
 1253TIP3    H225251   5.981   0.871   4.230 -0.5884 -0.5318  0.0719
 1254TIP3   OH225252   3.001   6.099  15.638  0.4864  0.1168 -0.0196
 1254TIP3    H125253   3.059   6.174  15.628 -0.5131  0.8257 -0.7523
 1254TIP3    H225254   2.934   6.128  15.700 -1.8482  1.1372 -2.7941
 1255TIP3   OH225255   4.459   5.231  15.489 -0.3869 -0.1323  0.5004
 1255TIP3    H125256   4.554   5.223  15.497 -0.4329 -1.4646 -0.0823
 1255TIP3    H225257   4.424   5.194  15.571 -0.4462 -1.5820 -0.1509
 1256TIP3   OH225258   2.798   0.763  12.993 -0.5185 -0.1926 -0.1181
 1256TIP3    H125259   2.819   0.854  12.974  0.9626 -0.5669 -0.4442
 1256TIP3    H225260   2.741   0.735  12.921 -1.4199  0.6179  0.2761
 1257TIP3   OH225261   2.767   3.992   6.292 -0.2919 -0.0971  0.1662
 1257TIP3    H125262   2.700   4.020   6.230  0.3776  0.7344 -0.2107
 1257TIP3    H225263   2.763   4.058   6.362  1.1190  0.8485 -0.5964
 1258TIP3   OH225264   3.850   5.276   5.390  0.4965  0.4972  0.1108
 1258TIP3    H125265   3.793   5.352   5.393 -0.1488  0.0264 -0.0798
 1258TIP3    H225266   3.811   5.214   5.450  0.5148 -0.0257 -0.4033
 1259TIP3   OH225267   0.800   4.922   4.820  0.0914 -0.4102  0.3751
 1259TIP3    H125268   0.807   4.990   4.754 -1.5101  1.4520  1.9977
 1259TIP3    H225269   0.873   4.937   4.880  0.9746 -1.4910 -0.3902
 1260TIP3   OH225270   5.237   3.706   1.283 -0.2236  0.0780 -0.5537
 1260TIP3    H125271   5.184   3.770   1.329  0.4621 -0.4650  1.0847
 1260TIP3    H225272   5.183   3.627   1.280  0.3740 -0.4389  1.0096
 1261TIP3   OH225273   0.927   2.033   4.701  0.3402  0.0106  0.0016
 1261TIP3    H125274   0.971   1.955   4.669 -1.5134 -0.8861 -0.4907
 1261TIP3    H225275   0.879   2.004   4.778 -0.8135  0.5001 -0.5100
 1262TIP3   OH225276   6.568   4.711   2.281  0.1157 -0.6467  0.2323
 1262TIP3    H125277   6.502   4.722   2.349 -0.1182  1.2728 -0.2397
 1262TIP3    H225278   6.527   4.745   2.202  0.9221 -1.4424 -0.5574
 1263TIP3   OH225279   5.892   5.463   2.588 -0.0065  0.7887 -0.0092
 1263TIP3    H125280   5.908   5.370   2.601  1.6847  0.9704 -0.5748
 1263TIP3    H225281   5.820   5.466   2.525  0.9549 -0.1640 -1.1991
 1264TIP3   OH225282   5.887   5.333  11.394  0.1907 -0.1406 -0.6064
 1264TIP3    H125283   5.961   5.384  11.426  1.0187 -1.9668  0.5348
 1264TIP3    H225284   5.815   5.356  11.452  0.4598  0.0094 -0.3291
 1265TIP3   OH225285   5.001   4.675   2.566  0.0009  0.0898  0.3837
 1265TIP3    H125286   4.909   4.694   2.583  0.3095  0.9541  1.1768
 1265TIP3    H225287   5.044   4.688   2.650  1.1202  1.4646 -0.3559
 1266TIP3   OH225288   1.741   1.892  11.692 -0.1896  0.2764 -0.1104
 1266TIP3    H125289   1.656   1.935  11.682 -0.8250 -1.0594 -0.6437
 1266TIP3    H225290   1.805   1.958  11.664 -1.0650  1.1534 -0.0967
 1267TIP3   OH225291   4.476   6.416   5.101 -0.0973 -0.1381 -0.2707
 1267TIP3    H125292   4.481   6.357   5.175 -0.1296 -0.3155 -0.4098
 1267TIP3    H225293   4.562   6.458   5.097 -0.1585  0.0130 -0.0183
 1268TIP3   OH225294   5.794   1.357   0.275  0.0611  0.6887 -0.2046
 1268TIP3    H125295   5.872   1.355   0.219 -0.2667 -0.0280 -0.6449
 1268TIP3    H225296   5.730   1.303   0.229  0.0001 -0.4893  1.1957
 1269TIP3   OH225297   5.864   2.250   3.695  0.1611  0.4367 -0.2760
 1269TIP3    H125298   5.878   2.344   3.707  0.9753  0.0596  2.2734
 1269TIP3    H225299   5.866   2.214   3.783 -3.3580 -1.5989 -0.8561
 1270TIP3   OH225300   3.405   1.899  14.619 -0.0315 -0.1289 -0.1559
 1270TIP3    H125301   3.457   1.956  14.563 -0.6492  1.1462  0.5243
 1270TIP3    H225302   3.318   1.938  14.618 -0.2601 -0.5753  0.9942
 1271TIP3   OH225303   1.183   2.582   1.642 -0.2903 -0.0524  0.4517
 1271TIP3    H125304   1.149   2.636   1.571 -0.2179  2.1128  1.9494
 1271TIP3    H225305   1.105   2.558   1.693 -0.1198  0.2589  0.8573
 1272TIP3   OH225306   1.908   4.844  14.438  0.0639  0.2696 -0.2227
 1272TIP3    H125307   1.971   4.914  14.423 -0.4081  0.4472 -1.5761
 1272TIP3    H225308   1.837   4.862  14.376  0.2311 -1.7402 -1.0900
 1273TIP3   OH225309   1.751   2.142   2.524 -0.1629  0.2537 -0.1327
 1273TIP3    H125310   1.799   2.064   2.552 -1.5029 -0.7591 -0.5139
 1273TIP3    H225311   1.756   2.202   2.599  0.8956 -0.1899  0.1581
 1274TIP3   OH225312   2.314   5.566  11.111  0.5657  0.0589 -0.6009
 1274TIP3    H125313   2.322   5.474  11.138 -0.1193  0.0583 -0.3863
 1274TIP3    H225314   2.239   5.567  11.051 -0.8211  0.8195  1.0647
 1275TIP3   OH225315   1.350   1.022  16.348  0.4414 -0.4938  0.0147
 1275TIP3    H125316   1.255   1.012  16.342  0.4547 -0.5519 -0.1003
 1275TIP3    H225317   1.378   0.951  16.405  0.1935  0.6903  1.6812
 1276TIP3   OH225318   3.911   6.560   0.725  0.2405  0.1232 -0.1402
 1276TIP3    H125319   3.881   6.623   0.660 -0.2981 -0.6669 -0.6658
 1276TIP3    H225320   3.836   6.549   0.784 -0.7239 -2.1578 -1.6852
 1277TIP3   OH225321   3.940   6.038   1.430 -0.3034 -0.0850  0.5541
 1277TIP3    H125322   3.866   6.012   1.484 -1.1564  0.7212 -0.1986
 1277TIP3    H225323   3.917   6.008   1.342  0.8739 -1.0029  0.5254
 1278TIP3   OH225324   4.439   0.384   6.177 -0.1162 -1.0613  0.2974
 1278TIP3    H125325   4.433   0.470   6.220  0.1465 -0.9535  0.1211
 1278TIP3    H225326   4.497   0.399   6.102 -0.1068 -1.3840  0.2403
 1279TIP3   OH225327   3.738   2.212  16.233  0.1877 -0.2771  0.0897
 1279TIP3    H125328   3.753   2.195  16.140 -2.1675  1.1104 -0.6360
 1279TIP3    H225329   3.767   2.302  16.247 -0.4915 -0.0972  0.4030
 1280TIP3   OH225330   2.256   2.417  15.618 -0.0936  0.6118  0.3206
 1280TIP3    H125331   2.237   2.349  15.682 -0.3586 -0.7070 -1.0959
 1280TIP3    H225332   2.231   2.498  15.661 -4.7063 -0.5251  0.3523
 1281TIP3   OH225333   0.738   4.228   3.611 -0.1256 -0.3122  1.0256
 1281TIP3    H125334   0.673   4.267   3.553  1.0564 -1.2459 -1.0253
 1281TIP3    H225335   0.818   4.225   3.559  0.8771 -1.6476  2.5439
 1282TIP3   OH225336   6.424   4.127   4.900  0.2966  0.0703  0.3351
 1282TIP3    H125337   6.369   4.187   4.849 -1.1670 -1.6941 -0.2650
 1282TIP3    H225338   6.493   4.101   4.839  2.5711  3.0165  1.3638
 1283TIP3   OH225339   2.041   4.298   2.433 -0.0852 -0.1303 -0.4770
 1283TIP3    H125340   2.110   4.281   2.369  1.1070 -0.6388  0.8930
 1283TIP3    H225341   2.023   4.213   2.472 -1.0518  0.1113 -0.3722
 1284TIP3   OH225342   4.424   3.402   5.387 -0.5037 -0.0693 -0.0538
 1284TIP3    H125343   4.473   3.349   5.449 -1.5941  0.9901  1.8091
 1284TIP3    H225344   4.416   3.348   5.308  1.4219 -1.2227  0.4959
 1285TIP3   OH225345   0.763   4.078   6.188  0.7029 -0.1957  0.7293
 1285TIP3    H125346   0.819   4.153   6.207  1.3920 -1.0317  2.1896
 1285TIP3    H225347   0.762   4.027   6.270  0.0677 -1.6471 -0.1334
 1286TIP3   OH225348   3.036   4.287  15.432 -0.2592  0.7093 -0.1576
 1286TIP3    H125349   3.044   4.207  15.381  1.6452  1.1894 -0.6751
 1286TIP3    H225350   2.942   4.308  15.429 -1.0894 -2.2466  1.2400
 1287TIP3   OH225351   1.888   2.935  14.997 -0.8563 -0.4140 -0.1791
 1287TIP3    H125352   1.862   2.843  15.004 -0.2016 -0.5603  0.3105
 1287TIP3    H225353   1.898   2.950  14.903 -1.3037 -0.7451 -0.2819
 1288TIP3   OH225354   4.383   5.460   1.053 -0.3557  0.8151 -0.1947
 1288TIP3    H125355   4.379   5.545   1.011 -1.2112 -0.0715 -2.0400
 1288TIP3    H225356   4.469   5.426   1.031 -1.0442  0.0746 -1.9151
 1289TIP3   OH225357   4.024   3.528   3.401 -0.0347 -0.4113 -0.8084
 1289TIP3    H125358   4.057   3.439   3.412 -0.0338 -0.1237  2.6873
 1289TIP3    H225359   4.081   3.566   3.334  0.7397 -2.6378 -1.5169
 1290TIP3   OH225360   0.660   3.762   0.345 -0.3900  0.8989  0.2098
 1290TIP3    H125361   0.690   3.774   0.255 -0.7444  3.1756  0.3280
 1290TIP3    H225362   0.736   3.729   0.392 -0.3950 -1.0238 -1.0271
 1291TIP3   OH225363   6.772   1.403  11.814 -0.2482  0.0871  0.3276
 1291TIP3    H125364   6.793   1.443  11.899  1.7537  1.1129 -0.5682
 1291TIP3    H225365   6.833   1.330  11.807 -0.8948 -0.4286  0.0702
 1292TIP3   OH225366   1.562   4.292   5.415  0.0871 -0.2428  0.4266
 1292TIP3    H125367   1.503   4.324   5.484 -1.7326 -0.5932 -0.8832
 1292TIP3    H225368   1.622   4.364   5.399 -1.4245  1.0470  0.2613
 1293TIP3   OH225369   0.606   0.314   2.547  0.2680 -0.2140  0.0954
 1293TIP3    H125370   0.673   0.300   2.614  2.4144 -0.5721 -1.9933
 1293TIP3    H225371   0.649   0.291   2.464 -2.3917 -0.2556 -1.3978
 1294TIP3   OH225372   3.761   6.280   0.391 -0.4018 -0.0345  0.1974
 1294TIP3    H125373   3.751   6.360   0.340  1.7510 -0.6586 -1.3871
 1294TIP3    H225374   3.825   6.303   0.458 -0.9119 -0.0314  0.6830
 1295TIP3   OH225375   0.309   4.970   0.551 -0.7620 -0.1653  0.4023
 1295TIP3    H125376   0.328   5.062   0.534 -1.4820  0.0662  0.8360
 1295TIP3    H225377   0.346   4.953   0.638 -1.1883 -0.1138  0.5958
 1296TIP3   OH225378   4.825   5.986  12.139 -0.4769  0.1106  0.4953
 1296TIP3    H125379   4.825   5.989  12.235  1.6657  0.8262  0.5245
 1296TIP3    H225380   4.916   5.965  12.116 -1.2800 -1.7094 -1.3722
 1297TIP3   OH225381   3.166   2.484   2.426 -0.0668  0.0925 -0.0401
 1297TIP3    H125382   3.244   2.430   2.423  0.3652  0.7020  0.0040
 1297TIP3    H225383   3.143   2.499   2.334 -0.5812 -0.7070 -0.0540
 1298TIP3   OH225384   3.644   2.313   6.472  0.4394 -0.2005  0.2775
 1298TIP3    H125385   3.642   2.401   6.435 -0.6394 -1.2326 -2.3601
 1298TIP3    H225386   3.559   2.275   6.452  0.9193 -1.9238  1.2073
 1299TIP3   OH225387   1.027   3.106  13.295  0.0912 -0.3184 -0.2278
 1299TIP3    H125388   0.947   3.125  13.246  0.3757  1.0852 -0.1765
 1299TIP3    H225389   1.098   3.126  13.235  0.4236 -0.4748  0.1082
 1300TIP3   OH225390   3.613   4.062  14.375  0.4901 -0.3161 -0.0332
 1300TIP3    H125391   3.572   3.995  14.430  3.1990 -1.1206  1.2148
 1300TIP3    H225392   3.591   4.145  14.418  1.2186 -0.8178  1.3866
 1301TIP3   OH225393   0.520   4.292   5.193  0.7175 -0.1048  0.0977
 1301TIP3    H125394   0.500   4.309   5.285 -0.3291  1.0790 -0.3279
 1301TIP3    H225395   0.544   4.377   5.157  0.1739 -0.3713 -0.9407
 1302TIP3   OH225396   1.434   1.897  12.201  0.1181 -0.5948  0.1402
 1302TIP3    H125397   1.469   1.827  12.145 -3.5188 -1.5707 -1.2334
 1302TIP3    H225398   1.415   1.968  12.140  1.7366  0.7936  1.1933
 1303TIP3   OH225399   4.000   3.703  17.112 -0.0785 -0.6113 -0.2753
 1303TIP3    H125400   4.070   3.640  17.098 -0.0173 -0.9959  1.4861
 1303TIP3    H225401   3.982   3.698  17.206  0.6011  2.6871  0.1506
 1304TIP3   OH225402   6.669   0.388   0.823 -0.4542  0.2206  0.3019
 1304TIP3    H125403   6.692   0.295   0.821  0.2780  0.4109 -1.7258
 1304TIP3    H225404   6.577   0.391   0.799 -0.3061  0.0549 -0.2960
 1305TIP3   OH225405   3.109   2.838   1.912 -0.5917  0.1981  0.5251
 1305TIP3    H125406   3.178   2.786   1.871 -1.8950 -2.5030  1.5310
 1305TIP3    H225407   3.039   2.841   1.847 -1.2808 -1.0915  1.1549
 1306TIP3   OH225408   4.021   3.380  13.787 -0.1145 -0.2162 -0.4520
 1306TIP3    H125409   4.080   3.307  13.804  1.8407  1.4285  0.1953
 1306TIP3    H225410   4.068   3.435  13.725 -0.9427  1.1772  0.1103
 1307TIP3   OH225411   4.334   2.085  14.613 -0.0187 -0.1756 -0.2080
 1307TIP3    H125412   4.245   2.076  14.580 -1.2209  1.0644  2.3407
 1307TIP3    H225413   4.324   2.090  14.708  2.6477  1.2877  0.1196
 1308TIP3   OH225414   6.683   5.562  11.434  0.0438  0.1836 -0.0320
 1308TIP3    H125415   6.597   5.574  11.474  0.0781  0.2837  0.0142
 1308TIP3    H225416   6.675   5.484  11.381  0.2991 -0.5921  1.0287
 1309TIP3   OH225417   1.622   2.613  14.775  0.1253 -0.2199  0.0313
 1309TIP3    H125418   1.578   2.532  14.799 -1.1277  0.8330  1.4350
 1309TIP3    H225419   1.561   2.657  14.716  0.4206  0.0994 -0.0422
 1310TIP3   OH225420   6.683   0.958   0.030  0.4549  0.3252 -0.2544
 1310TIP3    H125421   6.722   1.008   0.102  0.2097 -0.0139  0.1125
 1310TIP3    H225422   6.716   0.869   0.042 -0.7138 -0.0572  0.2790
 1311TIP3   OH225423   1.972   1.206   2.108  0.4215  0.1610  0.0529
 1311TIP3    H125424   1.982   1.188   2.015  1.7169  2.8110 -0.4030
 1311TIP3    H225425   2.060   1.194   2.144 -0.0613 -0.7984  0.9765
 1312TIP3   OH225426   2.097   1.513   0.323 -0.0656  0.2947 -0.4585
 1312TIP3    H125427   2.101   1.608   0.312  1.5040  0.1743 -1.2623
 1312TIP3    H225428   2.128   1.478   0.239  2.6087 -0.8419  0.8650
 1313TIP3   OH225429   2.872   0.546   6.088 -0.4716  0.1510  0.5956
 1313TIP3    H125430   2.836   0.634   6.080 -1.0989 -0.0876  0.7490
 1313TIP3    H225431   2.796   0.488   6.083  0.1008 -0.4908 -1.2721
 1314TIP3   OH225432   5.776   3.579   5.168 -0.2895 -0.1881 -0.6628
 1314TIP3    H125433   5.680   3.581   5.163 -0.3895  0.6374  0.8963
 1314TIP3    H225434   5.805   3.647   5.108 -0.5519 -1.7509 -2.6569
 1315TIP3   OH225435   1.049   3.825  13.013 -0.6265  0.7358  0.1487
 1315TIP3    H125436   1.124   3.802  12.958 -1.8230  0.1858 -1.3286
 1315TIP3    H225437   0.979   3.765  12.986 -1.1736  0.1221  2.6133
 1316TIP3   OH225438   3.864   4.773   3.851  0.4805 -0.3742  0.2427
 1316TIP3    H125439   3.791   4.834   3.841 -1.3315 -2.3966  0.4450
 1316TIP3    H225440   3.906   4.799   3.933 -1.0377 -0.1686  0.9898
 1317TIP3   OH225441   6.810   5.254  14.317 -0.3567 -0.2330  0.2568
 1317TIP3    H125442   6.724   5.284  14.289 -0.4483 -0.5055  0.2422
 1317TIP3    H225443   6.857   5.236  14.235  0.1150  1.0156  0.2390
 1318TIP3   OH225444   4.399   2.314   6.761  0.2355  0.5130 -0.5143
 1318TIP3    H125445   4.434   2.302   6.673 -0.6711  0.7174 -0.9102
 1318TIP3    H225446   4.326   2.252   6.766  1.1472 -0.5341  0.6046
 1319TIP3   OH225447   0.253   5.698  14.103 -0.8988 -0.5060 -0.2926
 1319TIP3    H125448   0.346   5.719  14.103 -0.6019 -1.7551 -0.7811
 1319TIP3    H225449   0.212   5.772  14.058 -0.2850  0.5428  0.8097
 1320TIP3   OH225450   2.176   4.995   4.442  0.0499  0.2486  0.4101
 1320TIP3    H125451   2.114   5.039   4.500  1.5600  2.4232  0.5028
 1320TIP3    H225452   2.256   4.989   4.494  0.6785 -0.1181 -0.5750
 1321TIP3   OH225453   1.969   0.352  17.221  0.2924 -0.5100 -0.4257
 1321TIP3    H125454   1.946   0.259  17.228 -0.4729 -0.3116 -0.2936
 1321TIP3    H225455   1.918   0.396  17.288 -0.2372  0.1653 -1.2427
 1322TIP3   OH225456   1.910   5.094   5.289  0.6176 -0.5453  0.5015
 1322TIP3    H125457   1.912   5.141   5.372  1.2932 -1.5224  1.0560
 1322TIP3    H225458   1.817   5.080   5.272  0.3691  1.2741  0.1315
 1323TIP3   OH225459   0.884   2.209  14.564 -0.0479  0.0909  0.0228
 1323TIP3    H125460   0.814   2.201  14.499 -2.4796 -1.5620  2.6441
 1323TIP3    H225461   0.946   2.140  14.542 -0.2604  0.2622 -1.1575
 1324TIP3   OH225462   3.569   6.280   6.363 -0.4760 -0.1026 -0.1853
 1324TIP3    H125463   3.524   6.256   6.444  0.5938 -1.5241  0.0232
 1324TIP3    H225464   3.570   6.376   6.365 -2.1285 -0.0454  0.5244
 1325TIP3   OH225465   5.024   5.231   2.150  0.4317 -0.0883 -0.2465
 1325TIP3    H125466   5.119   5.235   2.159  0.8700 -3.5077 -1.8439
 1325TIP3    H225467   5.006   5.276   2.068  1.3444 -3.0783 -2.2439
 1326TIP3   OH225468   6.785   4.171   2.237  0.4851 -0.2917 -0.4218
 1326TIP3    H125469   6.879   4.155   2.234  0.6773  0.8829 -1.4135
 1326TIP3    H225470   6.759   4.175   2.144 -0.1276  1.5940 -0.2117
 1327TIP3   OH225471   6.790   0.936   1.178  0.6919  0.3970  0.2027
 1327TIP3    H125472   6.717   0.989   1.148 -0.4961 -1.2536  0.0236
 1327TIP3    H225473   6.811   0.880   1.103 -0.0365 -1.3871  1.2766
 1328TIP3   OH225474   4.903   2.772   5.749  0.0900  0.2900 -0.3671
 1328TIP3    H125475   4.960   2.700   5.775  1.0843  1.3434  0.4361
 1328TIP3    H225476   4.938   2.849   5.794 -0.3160  1.4969 -2.0097
 1329TIP3   OH225477   1.495   4.449   5.050  0.1634  0.1548 -0.4789
 1329TIP3    H125478   1.505   4.530   5.100  1.5473 -1.0412  1.3565
 1329TIP3    H225479   1.560   4.456   4.981  0.3959  0.5504 -0.2263
 1330TIP3   OH225480   3.620   1.364   5.543 -0.8320 -0.3855 -0.3168
 1330TIP3    H125481   3.559   1.429   5.508 -0.6335 -0.2855 -0.4815
 1330TIP3    H225482   3.692   1.363   5.480 -0.0588  0.4151  0.5164
 1331TIP3   OH225483   5.968   5.787  15.024 -0.6451  0.2069 -0.3013
 1331TIP3    H125484   6.033   5.717  15.036 -0.6334  0.3261  0.3250
 1331TIP3    H225485   5.955   5.824  15.111 -1.3120  0.4046 -0.4784
 1332TIP3   OH225486   3.518   5.617   3.681  0.6781 -0.1494  0.3135
 1332TIP3    H125487   3.446   5.557   3.698  0.3559 -0.1819 -1.0804
 1332TIP3    H225488   3.560   5.583   3.602  0.4236  1.4853 -0.5655
 1333TIP3   OH225489   5.109   0.431   4.075  0.0315 -0.0262 -0.7483
 1333TIP3    H125490   5.135   0.377   4.001 -1.6103 -0.4426 -1.0699
 1333TIP3    H225491   5.026   0.471   4.048 -0.2544  0.3646  0.5955
 1334TIP3   OH225492   2.453   3.231   0.335 -0.5589 -0.1263  0.1883
 1334TIP3    H125493   2.505   3.270   0.405 -0.6995 -1.8455  1.3031
 1334TIP3    H225494   2.363   3.254   0.356 -0.8849 -2.6994  2.0866
 1335TIP3   OH225495   1.382   1.201  15.350 -0.5999  0.2288 -0.1416
 1335TIP3    H125496   1.355   1.242  15.268 -0.1513 -0.0645 -0.4391
 1335TIP3    H225497   1.395   1.273  15.411  0.9820  0.6083 -0.8846
 1336TIP3   OH225498   3.782   5.392  16.234 -0.3951  0.3403  0.1647
 1336TIP3    H125499   3.815   5.366  16.147  0.1384 -0.7823  0.6730
 1336TIP3    H225500   3.841   5.348  16.295 -0.7657  1.1210  1.1046
 1337TIP3   OH225501   5.270   6.660  15.064 -0.1998  0.3741  0.8025
 1337TIP3    H125502   5.362   6.655  15.093 -0.0733  0.4092  0.4107
 1337TIP3    H225503   5.223   6.604  15.125 -0.1871  1.6969  2.0712
 1338TIP3   OH225504   6.260   0.112  14.402  0.7645  0.4435 -0.3957
 1338TIP3    H125505   6.268   0.061  14.322  1.0553  0.6300 -0.4863
 1338TIP3    H225506   6.325   0.181  14.394  0.5409  0.6864 -0.1662
 1339TIP3   OH225507   1.767   1.334   3.241  0.2320  0.4124 -0.0780
 1339TIP3    H125508   1.715   1.313   3.164 -0.8958 -1.3690  1.0784
 1339TIP3    H225509   1.732   1.418   3.271 -0.8513  0.0571 -0.2838
 1340TIP3   OH225510   6.783   5.463   5.702 -0.2237 -0.4889 -0.2421
 1340TIP3    H125511   6.778   5.458   5.606 -0.4744  3.3028 -0.6013
 1340TIP3    H225512   6.875   5.453   5.722  0.0043 -0.1512 -1.0584
 1341TIP3   OH225513   2.403   6.654  15.012  0.7742  0.4959  0.2395
 1341TIP3    H125514   2.364   6.667  15.098 -0.8340  1.2373 -0.5565
 1341TIP3    H225515   2.366   6.723  14.958 -0.0488 -1.2903 -1.6049
 1342TIP3   OH225516   0.067   2.437  12.744  0.0593  0.4684 -0.5786
 1342TIP3    H125517   0.162   2.445  12.741  0.1897  0.0706  1.3062
 1342TIP3    H225518   0.046   2.436  12.838 -1.7327 -0.1898 -0.9489
 1343TIP3   OH225519   3.482   0.746  10.704  0.3265  0.8855  0.4410
 1343TIP3    H125520   3.541   0.793  10.645  1.1403 -0.6269 -0.0080
 1343TIP3    H225521   3.413   0.713  10.647 -0.1169  1.3194  0.7180
 1344TIP3   OH225522   0.711   5.310  14.553  0.0577  0.7582  0.0194
 1344TIP3    H125523   0.706   5.220  14.584  0.4876  0.8925  0.4923
 1344TIP3    H225524   0.740   5.302  14.462  2.1111  0.4785  0.6478
 1345TIP3   OH225525   6.770   1.309  10.542  0.1875  0.2128  0.1601
 1345TIP3    H125526   6.786   1.399  10.569 -1.5960  0.2598  1.2380
 1345TIP3    H225527   6.677   1.295  10.560  0.3205 -1.7084 -0.4061
 1346TIP3   OH225528   4.990   4.160  14.715  0.0361 -0.0522  0.2113
 1346TIP3    H125529   4.917   4.183  14.657 -1.9790 -0.8723  2.2492
 1346TIP3    H225530   4.947   4.127  14.795  2.6702 -1.7215  1.0499
 1347TIP3   OH225531   4.119   1.063   6.335  0.1390  0.7753  0.0277
 1347TIP3    H125532   4.068   0.985   6.315  0.3508 -0.2993  3.1792
 1347TIP3    H225533   4.054   1.130   6.356 -0.0033  0.7908 -0.4478
 1348TIP3   OH225534   2.498   2.706   3.414  0.0357  0.2898 -0.2846
 1348TIP3    H125535   2.425   2.659   3.453  2.4906 -3.2376  0.5028
 1348TIP3    H225536   2.484   2.698   3.320 -0.1046 -1.3107 -0.1546
 1349TIP3   OH225537   5.473   0.164  17.018  0.0279 -0.2476 -0.1718
 1349TIP3    H125538   5.538   0.137  16.954 -1.4917 -0.5177 -1.6725
 1349TIP3    H225539   5.389   0.135  16.982 -0.8858 -0.6382  2.0752
 1350TIP3   OH225540   4.262   6.611   0.181  0.3643  0.5454 -0.2905
 1350TIP3    H125541   4.172   6.642   0.170  0.5207  1.1742  0.1887
 1350TIP3    H225542   4.316   6.685   0.156  0.7619  0.0693 -0.8716
 1351TIP3   OH225543   1.845   0.527   1.258  0.5615 -0.0203 -0.3845
 1351TIP3    H125544   1.758   0.519   1.221  0.9651 -0.1718 -1.3308
 1351TIP3    H225545   1.858   0.445   1.307  0.1900 -0.0112 -0.2735
 1352TIP3   OH225546   6.538   0.238  14.861 -0.3585  0.2898  0.2808
 1352TIP3    H125547   6.488   0.158  14.844 -1.4636  0.8778  0.6581
 1352TIP3    H225548   6.510   0.299  14.792  0.6676  0.2877 -0.1612
 1353TIP3   OH225549   4.097   0.211   5.110 -0.2384  1.0155 -0.4314
 1353TIP3    H125550   4.041   0.188   5.036  0.0372  0.6590 -0.5305
 1353TIP3    H225551   4.174   0.155   5.100 -1.1986 -0.7634  1.4398
 1354TIP3   OH225552   6.561   0.464   4.983 -0.2393  0.4275 -0.2668
 1354TIP3    H125553   6.635   0.423   5.029 -1.3241 -0.9589  0.3228
 1354TIP3    H225554   6.484   0.436   5.032 -1.2198  1.3759 -1.2046
 1355TIP3   OH225555   4.582   4.868   4.368 -0.1974  0.1647 -0.0260
 1355TIP3    H125556   4.533   4.928   4.312 -0.3520  0.4160  0.3758
 1355TIP3    H225557   4.669   4.908   4.375  0.4262 -0.8050 -1.5888
 1356TIP3   OH225558   5.842   3.877   4.677  0.0682  0.3685 -0.2962
 1356TIP3    H125559   5.805   3.809   4.622  0.8242 -1.4954  1.3657
 1356TIP3    H225560   5.858   3.951   4.617  0.1889 -1.2636 -2.3823
 1357TIP3   OH225561   5.206   4.726  13.207  0.0679  0.1826 -0.7750
 1357TIP3    H125562   5.221   4.806  13.156 -1.0186  0.1254 -1.2216
 1357TIP3    H225563   5.167   4.757  13.289  0.2428  0.1575 -0.6831
 1358TIP3   OH225564   2.876   5.171  13.736  0.2139  0.0382  0.5900
 1358TIP3    H125565   2.822   5.093  13.744 -0.6689  0.4363 -0.9311
 1358TIP3    H225566   2.964   5.138  13.718 -0.0493 -0.6130  0.4725
 1359TIP3   OH225567   2.577   3.073   1.971 -0.1074 -0.2128 -0.4035
 1359TIP3    H125568   2.531   3.151   2.005 -0.3483 -0.6553  0.3118
 1359TIP3    H225569   2.580   3.086   1.876 -1.4263 -0.0028 -0.4332
 1360TIP3   OH225570   4.563   3.619   3.843 -0.5423 -0.5333 -0.6877
 1360TIP3    H125571   4.531   3.680   3.777 -1.1088 -0.0398  0.0271
 1360TIP3    H225572   4.599   3.546   3.793  0.6406  0.6180 -1.5742
 1361TIP3   OH225573   4.279   1.694  15.827  0.4754  0.2561  0.3221
 1361TIP3    H125574   4.228   1.771  15.805  0.9152  0.7579  0.9938
 1361TIP3    H225575   4.331   1.721  15.903  0.9923 -0.5493  0.2684
 1362TIP3   OH225576   1.284   6.305  10.498 -0.0787  0.3069 -0.1485
 1362TIP3    H125577   1.259   6.393  10.526  0.6499  1.0001 -1.5089
 1362TIP3    H225578   1.334   6.320  10.417 -0.8771 -1.4333 -1.0204
 1363TIP3   OH225579   0.563   2.578  16.239  0.0839 -0.1496  0.6121
 1363TIP3    H125580   0.618   2.500  16.241  0.8502  0.3441 -0.2822
 1363TIP3    H225581   0.502   2.562  16.167 -0.9313 -0.6735  1.5731
 1364TIP3   OH225582   4.626   2.581   4.243  0.7172  0.3922  0.0214
 1364TIP3    H125583   4.571   2.659   4.230  1.3574  0.8000 -0.3270
 1364TIP3    H225584   4.672   2.598   4.325  1.0453  0.5037 -0.1828
 1365TIP3   OH225585   0.884   1.931   2.956 -0.0643  0.4954  0.0068
 1365TIP3    H125586   0.947   1.919   2.885  2.2391  0.3677  1.9652
 1365TIP3    H225587   0.890   1.851   3.008 -1.8165  0.5094  0.3032
 1366TIP3   OH225588   4.349   2.663  13.055  0.4202 -0.1002  0.1323
 1366TIP3    H125589   4.356   2.581  13.006 -0.1863  0.1495 -0.3811
 1366TIP3    H225590   4.289   2.717  13.004  0.4184  0.4768  0.7273
 1367TIP3   OH225591   5.773   3.745  15.475  0.0554 -0.6264 -0.2573
 1367TIP3    H125592   5.761   3.831  15.435 -0.3258  0.3087  1.7352
 1367TIP3    H225593   5.836   3.700  15.419 -1.5832 -0.0058 -2.7192
 1368TIP3   OH225594   6.642   5.246   5.440 -0.1975  0.0758 -0.4459
 1368TIP3    H125595   6.699   5.259   5.365  1.1542  1.6353  0.7681
 1368TIP3    H225596   6.697   5.265   5.516 -1.1312 -2.6559  1.0767
 1369TIP3   OH225597   3.175   3.302  13.027 -0.4164  0.4122 -0.1116
 1369TIP3    H125598   3.082   3.323  13.039 -0.4918  0.1749 -0.2755
 1369TIP3    H225599   3.220   3.352  13.095 -0.5818  1.2348 -0.5976
 1370TIP3   OH225600   2.352   5.579   1.755  0.0782 -0.0353 -0.9676
 1370TIP3    H125601   2.398   5.499   1.730  1.0261  0.1098  0.2581
 1370TIP3    H225602   2.278   5.549   1.808  0.1343 -0.1162 -0.9368
 1371TIP3   OH225603   3.893   0.065   5.634  0.1187  0.3863  0.0485
 1371TIP3    H125604   3.940   0.028   5.709 -1.6615 -0.6706  0.7040
 1371TIP3    H225605   3.866  -0.011   5.582  2.0090  1.1207 -2.1771
 1372TIP3   OH225606   4.263   4.556  13.314  0.2865 -0.6299 -0.7900
 1372TIP3    H125607   4.191   4.577  13.373  1.0823 -0.3435  0.1187
 1372TIP3    H225608   4.340   4.555  13.371  1.7947  3.6114 -2.3262
 1373TIP3   OH225609   5.588   4.864  12.816 -0.0493 -0.0318 -0.5293
 1373TIP3    H125610   5.507   4.861  12.766 -0.0197  2.2887 -0.8262
 1373TIP3    H225611   5.655   4.835  12.754 -0.4126 -0.1921 -0.8490
 1374TIP3   OH225612   4.254   2.737   3.416 -0.1514  0.3661 -0.6752
 1374TIP3    H125613   4.289   2.738   3.327 -0.2704 -0.4386 -0.7348
 1374TIP3    H225614   4.162   2.763   3.405 -0.1673  0.2625 -0.7836
 1375TIP3   OH225615   4.204   6.553  16.980 -0.1241 -0.0586  0.3131
 1375TIP3    H125616   4.135   6.597  17.030  0.6041 -0.1820  1.4392
 1375TIP3    H225617   4.157   6.492  16.923 -0.9625  0.0031  0.9180
 1376TIP3   OH225618   5.356   3.738   3.471  0.7736 -0.4189  0.5513
 1376TIP3    H125619   5.338   3.744   3.565 -0.0753  0.8046  0.3314
 1376TIP3    H225620   5.359   3.644   3.453  1.3258 -0.6693  1.8636
 1377TIP3   OH225621   5.936   0.486  11.044 -0.0013 -0.2329 -0.0304
 1377TIP3    H125622   5.967   0.453  10.960  0.6254 -0.8102  0.4184
 1377TIP3    H225623   5.843   0.461  11.048  0.2617 -1.2370 -0.0470
 1378TIP3   OH225624   5.040   3.411   5.228  0.0934 -0.6129  0.3249
 1378TIP3    H125625   5.030   3.318   5.205 -2.5920  0.1272 -2.1621
 1378TIP3    H225626   5.134   3.427   5.218  0.3437 -2.5880 -1.5007
 1379TIP3   OH225627   3.145   5.418  11.635  0.2277 -0.0873  0.9959
 1379TIP3    H125628   3.134   5.475  11.711  0.0322 -0.0021  0.9056
 1379TIP3    H225629   3.117   5.472  11.561 -1.5765 -0.8083  1.0864
 1380TIP3   OH225630   5.163   6.006  13.590 -0.2146 -0.5877 -0.1045
 1380TIP3    H125631   5.068   6.010  13.587 -0.3709  1.2020  2.9548
 1380TIP3    H225632   5.192   6.090  13.554  0.0332 -0.1978  0.9402
 1381TIP3   OH225633   5.822   2.272  15.850  0.0049  0.4593 -0.3196
 1381TIP3    H125634   5.791   2.197  15.900 -2.3053  0.8662 -1.0404
 1381TIP3    H225635   5.902   2.240  15.807  1.0341 -0.4633  2.0560
 1382TIP3   OH225636   4.260   3.793  12.764 -0.4703 -0.1330  0.4696
 1382TIP3    H125637   4.251   3.852  12.689  0.6687 -0.1605  0.3071
 1382TIP3    H225638   4.286   3.710  12.726  1.4019  0.1800  0.9667
 1383TIP3   OH225639   2.286   5.346   3.298 -0.3148  0.2083  0.4287
 1383TIP3    H125640   2.327   5.345   3.212 -0.1063 -0.9630  0.5189
 1383TIP3    H225641   2.295   5.436   3.328  2.3107 -0.0069  0.4937
 1384TIP3   OH225642   6.382   1.017  16.957 -0.5684  0.6106 -0.4183
 1384TIP3    H125643   6.466   1.030  17.000 -0.5440 -0.4892 -0.1125
 1384TIP3    H225644   6.403   1.010  16.864 -0.4242  1.1729 -0.4326
 1385TIP3   OH225645   5.196   0.283  13.712  0.1470 -0.4538  0.3099
 1385TIP3    H125646   5.188   0.378  13.717  0.6530 -0.3119 -1.1050
 1385TIP3    H225647   5.283   0.264  13.747 -0.1341 -0.4563  1.0267
 1386TIP3   OH225648   1.212   3.397  12.880 -0.2450  0.0570  0.4754
 1386TIP3    H125649   1.283   3.431  12.825 -0.7932  0.2735 -0.1104
 1386TIP3    H225650   1.248   3.317  12.918  0.6972  0.7251  1.0397
 1387TIP3   OH225651   5.141   4.587  12.695  0.4840 -0.5302  0.4298
 1387TIP3    H125652   5.169   4.618  12.609  1.1528 -0.4342  0.6792
 1387TIP3    H225653   5.217   4.597  12.751 -0.2085  0.2486  1.2644
 1388TIP3   OH225654   0.920   4.883   4.314  0.1002 -0.2875  0.1895
 1388TIP3    H125655   0.917   4.809   4.374 -1.8250 -2.0580 -1.9126
 1388TIP3    H225656   0.898   4.846   4.228  3.6893  1.8827 -1.9518
 1389TIP3   OH225657   0.783   6.640  11.926 -0.4830 -0.0894 -0.3998
 1389TIP3    H125658   0.723   6.646  12.000 -1.0416 -1.6935 -0.6954
 1389TIP3    H225659   0.868   6.622  11.965 -0.6950 -0.4824 -0.1177
 1390TIP3   OH225660   6.756   1.833  14.009 -0.3591 -0.4927  0.0281
 1390TIP3    H125661   6.694   1.768  13.974 -0.8785  0.1727 -0.3121
 1390TIP3    H225662   6.751   1.906  13.947  1.9608 -1.0487 -0.8976
 1391TIP3   OH225663   2.794   1.271  15.637 -0.0911 -0.3711  0.2579
 1391TIP3    H125664   2.780   1.177  15.643 -0.9812 -0.2111  1.0128
 1391TIP3    H225665   2.878   1.286  15.679  0.8962 -1.0011 -1.4038
 1392TIP3   OH225666   2.969   0.537   2.368 -0.3982 -0.7081  0.1178
 1392TIP3    H125667   2.987   0.449   2.337 -0.9842 -0.9009  0.3101
 1392TIP3    H225668   2.921   0.525   2.450 -1.1463 -0.2222 -0.2323
 1393TIP3   OH225669   1.523   4.283   1.489 -0.2192  0.0520  0.2996
 1393TIP3    H125670   1.541   4.336   1.412 -0.7676 -1.8881 -1.2428
 1393TIP3    H225671   1.433   4.305   1.513 -1.2848 -1.7218 -1.7417
 1394TIP3   OH225672   1.328   3.674  13.781  0.1528  0.0039 -0.0237
 1394TIP3    H125673   1.371   3.607  13.835  1.4751  0.2068 -0.7884
 1394TIP3    H225674   1.244   3.635  13.758  0.4558 -0.9621  0.4365
 1395TIP3   OH225675   3.582   0.390  16.695 -0.1696 -0.5412 -0.2745
 1395TIP3    H125676   3.601   0.368  16.604  2.7999  0.4265 -0.0072
 1395TIP3    H225677   3.489   0.369  16.706 -0.9252  0.2626 -3.7821
 1396TIP3   OH225678   3.760   6.203  15.210  0.2832  0.6654  0.0505
 1396TIP3    H125679   3.845   6.164  15.233  1.7183  2.1542 -2.2654
 1396TIP3    H225680   3.722   6.141  15.147  1.5918  1.8575 -2.0107
 1397TIP3   OH225681   2.129   0.028   5.643  0.1280 -0.2056  0.1695
 1397TIP3    H125682   2.111   0.108   5.692 -1.2028 -1.4859  1.9025
 1397TIP3    H225683   2.045   0.003   5.606  0.5015 -0.8465 -0.2686
 1398TIP3   OH225684   6.223   1.158  11.378  0.1095  0.1520 -0.0603
 1398TIP3    H125685   6.175   1.205  11.310 -0.3631 -1.4464 -0.8803
 1398TIP3    H225686   6.308   1.202  11.382 -0.5545  1.5008 -0.2779
 1399TIP3   OH225687   5.227   2.076   2.981 -0.0149 -0.1727  0.1142
 1399TIP3    H125688   5.244   2.159   2.938 -0.0211 -0.6621 -0.8775
 1399TIP3    H225689   5.219   2.013   2.909 -1.6962 -0.7399  0.7242
 1400TIP3   OH225690   2.719   3.026   6.050  0.5553 -0.1765  0.6832
 1400TIP3    H125691   2.649   3.001   5.990  0.5532 -0.8339  0.9493
 1400TIP3    H225692   2.798   3.028   5.996  0.7371 -1.7869  0.8316
 1401TIP3   OH225693   5.251   4.386   2.045 -0.1426  0.0929  0.7504
 1401TIP3    H125694   5.196   4.382   1.967  0.2900  0.1428  0.4434
 1401TIP3    H225695   5.192   4.417   2.114 -0.2116  1.2837  0.1672
 1402TIP3   OH225696   1.487   2.699   0.371 -0.5727 -0.3639  0.0373
 1402TIP3    H125697   1.520   2.717   0.283  0.2167 -2.5280 -0.1590
 1402TIP3    H225698   1.404   2.745   0.375 -0.2317  0.4576 -1.5416
 1403TIP3   OH225699   5.781   0.348  16.901  0.0155 -0.3138  0.2313
 1403TIP3    H125700   5.821   0.435  16.905  1.2743 -0.8644 -0.0488
 1403TIP3    H225701   5.780   0.318  16.992  1.3418 -0.7728  0.1047
 1404TIP3   OH225702   2.123   2.620   2.675 -0.7111 -0.4103  0.4041
 1404TIP3    H125703   2.150   2.541   2.721 -0.9802 -0.3769  0.6241
 1404TIP3    H225704   2.055   2.658   2.731 -0.8718 -0.2422  0.0978
 1405TIP3   OH225705   1.944   1.320  11.159  0.4640 -0.0658 -0.0618
 1405TIP3    H125706   1.906   1.271  11.085  0.7783 -1.9831  0.9754
 1405TIP3    H225707   2.032   1.342  11.129  1.9272 -3.8812  0.8375
 1406TIP3   OH225708   0.260   0.132   0.704  0.3830 -0.1059  0.4737
 1406TIP3    H125709   0.214   0.111   0.785  0.4416 -0.8520  0.3211
 1406TIP3    H225710   0.216   0.079   0.637 -1.1361  2.1375 -0.4189
 1407TIP3   OH225711   2.343   3.519  14.037 -0.4060  0.3967 -0.5136
 1407TIP3    H125712   2.282   3.479  13.974  0.6547 -0.0766 -1.2728
 1407TIP3    H225713   2.429   3.490  14.007  0.4599  3.3950 -1.2262
 1408TIP3   OH225714   5.412   5.302  11.605  0.5311  0.1156  1.0098
 1408TIP3    H125715   5.469   5.249  11.549 -1.5330 -1.7315  0.5202
 1408TIP3    H225716   5.336   5.323  11.550 -0.5354  0.1462  2.4244
 1409TIP3   OH225717   4.561   0.224   4.029  0.0680  0.4100 -0.3150
 1409TIP3    H125718   4.625   0.158   4.056  0.3927  0.6990 -0.3638
 1409TIP3    H225719   4.546   0.206   3.936 -2.1954 -1.5445  0.3214
 1410TIP3   OH225720   3.357   4.562   4.509 -0.2024  0.0583  0.8199
 1410TIP3    H125721   3.289   4.601   4.564 -1.5806 -0.4248 -0.4758
 1410TIP3    H225722   3.338   4.594   4.420  1.6425  0.4010  0.4971
 1411TIP3   OH225723   6.365   6.793   3.343  0.6977  0.0927 -0.5506
 1411TIP3    H125724   6.274   6.764   3.350  0.6988 -0.2169 -1.6843
 1411TIP3    H225725   6.416   6.712   3.342  0.9273  0.2387 -0.7399
 1412TIP3   OH225726   5.176   2.930  15.991  0.1716  0.6707  0.0502
 1412TIP3    H125727   5.169   2.893  15.903 -3.2307  3.3735 -1.0257
 1412TIP3    H225728   5.104   2.889  16.040  0.0730  1.4771  0.5985
 1413TIP3   OH225729   3.041   6.753   5.888  0.1230 -0.8790  0.4450
 1413TIP3    H125730   3.085   6.819   5.942 -1.1165  1.8102 -1.6190
 1413TIP3    H225731   2.959   6.737   5.934 -1.2952  1.9989 -0.8557
 1414TIP3   OH225732   4.075   4.211  15.319  0.3012  0.4482  0.5025
 1414TIP3    H125733   4.004   4.152  15.293 -0.6360  0.4904  2.7568
 1414TIP3    H225734   4.127   4.161  15.382  0.3508  1.4906  1.3268
 1415TIP3   OH225735   1.598   1.248  12.370  0.0641  0.1626 -0.5900
 1415TIP3    H125736   1.611   1.284  12.458 -0.1397 -0.0575 -0.4669
 1415TIP3    H225737   1.686   1.246  12.332  0.0442  1.0039 -0.6890
 1416TIP3   OH225738   1.410   1.320   3.578 -0.3113 -0.2785 -0.3581
 1416TIP3    H125739   1.414   1.332   3.483  1.5394 -0.0735 -0.2993
 1416TIP3    H225740   1.502   1.322   3.606 -0.8669  0.7127  1.5630
 1417TIP3   OH225741   6.138   2.802   0.420 -0.3205  0.3394 -0.5500
 1417TIP3    H125742   6.138   2.803   0.324  0.3527 -0.1003 -0.5705
 1417TIP3    H225743   6.216   2.750   0.442 -1.4127 -1.0614  0.2089
 1418TIP3   OH225744   6.607   5.853   2.564  0.2596  0.4566 -0.6765
 1418TIP3    H125745   6.604   5.895   2.650 -1.1732  0.1212 -0.5325
 1418TIP3    H225746   6.516   5.853   2.534  0.3227 -1.7129 -1.0720
 1419TIP3   OH225747   6.173   1.441   6.273  0.1630  0.2842  0.1123
 1419TIP3    H125748   6.093   1.494   6.279  0.5240  1.2576 -2.5658
 1419TIP3    H225749   6.149   1.365   6.220  1.5803  2.1167 -3.5003
 1420TIP3   OH225750   5.997   4.610  15.239  0.3074 -0.5559 -0.0540
 1420TIP3    H125751   5.980   4.613  15.145 -1.7299  1.0106  0.2967
 1420TIP3    H225752   6.092   4.599  15.245  0.3180 -2.5095 -2.2493
 1421TIP3   OH225753   6.355   4.976  11.112  0.2176 -0.1364  0.0593
 1421TIP3    H125754   6.365   5.048  11.050  0.5079  0.9420  1.3178
 1421TIP3    H225755   6.286   4.922  11.075  1.0802 -0.0930 -1.7106
 1422TIP3   OH225756   5.988   6.207  14.509  0.4506  0.0779  0.1385
 1422TIP3    H125757   5.983   6.258  14.590  1.7123 -0.4124  0.5609
 1422TIP3    H225758   6.055   6.251  14.457  1.8053 -1.2748  0.6509
 1423TIP3   OH225759   5.292   3.606  14.551  0.5695  1.1602  0.0425
 1423TIP3    H125760   5.224   3.542  14.573  0.8524  1.6310  2.5739
 1423TIP3    H225761   5.366   3.553  14.521 -0.0998  0.4857 -0.4410
 1424TIP3   OH225762   2.395   1.329  16.548 -0.3344 -0.2021 -0.3665
 1424TIP3    H125763   2.439   1.248  16.521 -0.7745 -0.0400 -1.6325
 1424TIP3    H225764   2.387   1.322  16.643  3.6088  0.3606  0.1529
 1425TIP3   OH225765   5.350   3.245   2.403  0.3194  0.2894  0.6388
 1425TIP3    H125766   5.420   3.276   2.345  0.1180 -1.2075 -0.4694
 1425TIP3    H225767   5.272   3.289   2.370  0.4186  0.4369  0.5979
 1426TIP3   OH225768   5.076   6.039  11.258 -0.0762 -0.6450  0.3174
 1426TIP3    H125769   5.165   6.065  11.281 -0.6315  0.5996  1.1995
 1426TIP3    H225770   5.060   6.081  11.174 -0.5441  0.9424  1.1642
 1427TIP3   OH225771   1.082   6.503   0.979 -0.6162 -0.0312  0.5168
 1427TIP3    H125772   1.000   6.551   0.972 -0.9077 -0.5123  0.6452
 1427TIP3    H225773   1.057   6.413   0.996 -0.1137 -0.4760 -0.9186
 1428TIP3   OH225774   1.982   5.404   5.285  0.3478 -0.2422  0.3215
 1428TIP3    H125775   1.999   5.313   5.262  1.3113 -0.1218  0.4786
 1428TIP3    H225776   2.042   5.455   5.230 -1.2181  0.4234 -0.8504
 1429TIP3   OH225777   0.435   6.037   5.102  0.3819 -0.1714 -0.0233
 1429TIP3    H125778   0.526   6.021   5.127  0.1602 -0.0257  0.9132
 1429TIP3    H225779   0.428   6.132   5.096  0.1470 -0.1539  0.4912
 1430TIP3   OH225780   0.009   0.482  11.259 -0.5261  0.0653  0.4773
 1430TIP3    H125781   0.089   0.529  11.285 -1.2350  1.2317  0.6287
 1430TIP3    H225782   0.041   0.406  11.211  0.6648  0.8950 -0.0949
 1431TIP3   OH225783   0.750   0.817   1.734  0.0923  0.1333  0.0982
 1431TIP3    H125784   0.679   0.768   1.692  0.9155 -2.6241  1.6159
 1431TIP3    H225785   0.817   0.750   1.752  1.9893  2.1608  0.9890
 1432TIP3   OH225786   3.852   4.321  13.202 -0.0833  0.2281 -0.1023
 1432TIP3    H125787   3.918   4.252  13.203 -1.6032 -1.3131  0.4972
 1432TIP3    H225788   3.864   4.366  13.119  1.9237  0.2492  0.1679
 1433TIP3   OH225789   4.621   1.558  12.721 -0.2602 -0.3517 -0.1603
 1433TIP3    H125790   4.653   1.495  12.785 -0.4125 -0.4271 -0.1587
 1433TIP3    H225791   4.685   1.555  12.650  0.6965  0.7547  0.6032
 1434TIP3   OH225792   6.143   4.760  13.901  0.1205  0.2422  0.4733
 1434TIP3    H125793   6.196   4.788  13.827 -1.8146  0.8473 -0.7617
 1434TIP3    H225794   6.120   4.670  13.881  0.7452 -0.0594  1.0690
 1435TIP3   OH225795   4.794   0.102   4.869  0.5715 -0.0067 -0.0580
 1435TIP3    H125796   4.868   0.066   4.819  1.3746 -0.0014  1.0883
 1435TIP3    H225797   4.802   0.196   4.858  1.3133  0.0501  0.8114
 1436TIP3   OH225798   5.983   4.190   2.503  0.3514  0.1894 -0.3781
 1436TIP3    H125799   6.077   4.194   2.523  0.3820 -0.3925 -0.3973
 1436TIP3    H225800   5.978   4.210   2.410  0.7061 -2.2256 -0.9699
 1437TIP3   OH225801   4.079   6.339  15.214  0.8508 -0.1766 -0.2356
 1437TIP3    H125802   4.111   6.388  15.139 -0.4174  0.7010 -0.2395
 1437TIP3    H225803   4.150   6.344  15.278  0.2834  2.9569  0.3147
 1438TIP3   OH225804   1.651   6.105  14.667  0.0859 -0.4044  0.1859
 1438TIP3    H125805   1.616   6.177  14.614  0.4577 -0.1089  0.3324
 1438TIP3    H225806   1.578   6.079  14.724  0.0942  0.2078  0.4928
 1439TIP3   OH225807   0.114   0.000  15.875  0.3252  0.7369 -0.0138
 1439TIP3    H125808   0.177   0.009  15.947  0.9256  1.5271 -0.6150
 1439TIP3    H225809   0.110   0.087  15.836  0.1260  0.2877 -1.0350
 1440TIP3   OH225810   2.135   4.196  15.797  0.1213  0.1945 -0.3058
 1440TIP3    H125811   2.203   4.263  15.810  0.1947  0.4221 -1.7218
 1440TIP3    H225812   2.053   4.244  15.805  0.0995 -0.0219  1.0835
 1441TIP3   OH225813   2.168   4.394   1.522 -0.3137 -0.1747  0.1617
 1441TIP3    H125814   2.162   4.411   1.428  1.9954 -0.9993 -0.1998
 1441TIP3    H225815   2.163   4.480   1.563 -1.7790  0.1598 -0.6579
 1442TIP3   OH225816   4.060   4.025  17.262 -0.5742 -0.4750 -0.1944
 1442TIP3    H125817   4.025   3.937  17.269 -0.2287 -0.5052  1.3368
 1442TIP3    H225818   4.110   4.039  17.342  0.6308  0.5731 -1.0705
 1443TIP3   OH225819   2.055   1.761   3.019  0.0325 -0.5825  0.3535
 1443TIP3    H125820   2.061   1.813   3.100 -1.2725 -1.7611  1.2506
 1443TIP3    H225821   1.997   1.812   2.962 -1.4288 -1.1205  1.3152
 1444TIP3   OH225822   0.586   4.478  12.307  0.0222 -0.2803 -0.2581
 1444TIP3    H125823   0.518   4.533  12.267 -0.4406 -0.5937  0.0866
 1444TIP3    H225824   0.668   4.508  12.267 -0.2888  0.2787 -0.4872
 1445TIP3   OH225825   5.752   1.954   0.985 -0.2329  0.1111  0.4605
 1445TIP3    H125826   5.815   1.892   0.948  1.6014  1.1214  1.7139
 1445TIP3    H225827   5.784   2.040   0.957 -0.9853  0.6539  1.2270
 1446TIP3   OH225828   0.750   3.194   1.245 -0.0422  0.8636  0.0485
 1446TIP3    H125829   0.682   3.133   1.216  0.1661  1.9178 -3.0263
 1446TIP3    H225830   0.813   3.139   1.292  1.1444 -1.9085 -4.2215
 1447TIP3   OH225831   6.674   4.864  16.486  0.8067 -0.1121  0.0237
 1447TIP3    H125832   6.620   4.921  16.431 -1.5839 -1.4149  0.8907
 1447TIP3    H225833   6.700   4.792  16.429  1.0676  0.1714 -0.2180
 1448TIP3   OH225834   0.000   4.656  11.167  0.0468  0.2601 -0.1660
 1448TIP3    H125835  -0.077   4.685  11.118  0.1387  0.3002 -0.2887
 1448TIP3    H225836  -0.019   4.564  11.188  0.5470 -0.1482 -1.3902
 1449TIP3   OH225837   4.187   6.219  11.824  0.1476  0.5169 -0.2860
 1449TIP3    H125838   4.103   6.265  11.824  0.1417  0.5061 -0.2292
 1449TIP3    H225839   4.213   6.216  11.732 -0.8229 -1.1528 -0.5535
 1450TIP3   OH225840   2.445   3.501  17.300  0.3426  0.3194 -0.4374
 1450TIP3    H125841   2.450   3.405  17.300 -0.7859  0.1748 -2.5015
 1450TIP3    H225842   2.410   3.524  17.386  1.2392 -1.0635  0.3255
 1451TIP3   OH225843   3.205   5.330   1.259 -0.2973  0.2812  0.3911
 1451TIP3    H125844   3.191   5.402   1.197  0.3842  0.1603  0.0931
 1451TIP3    H225845   3.275   5.362   1.316 -1.1042  0.5065  1.2886
 1452TIP3   OH225846   0.564   4.166  16.755  0.3848 -0.4736 -0.5120
 1452TIP3    H125847   0.581   4.254  16.789  0.1908  0.3194 -2.3468
 1452TIP3    H225848   0.651   4.126  16.747  0.5635 -0.0795 -0.5665
 1453TIP3   OH225849   6.287   1.668  10.770 -0.4888  0.0186 -0.2692
 1453TIP3    H125850   6.332   1.600  10.719 -1.3142 -0.9421  0.2470
 1453TIP3    H225851   6.195   1.642  10.768 -0.6304  0.3684  1.1047
 1454TIP3   OH225852   5.747   6.104  14.938  0.7042  0.0685  0.5785
 1454TIP3    H125853   5.841   6.099  14.924  1.0466 -0.5016  2.7329
 1454TIP3    H225854   5.713   6.148  14.860  2.4750 -1.4947 -1.1892
 1455TIP3   OH225855   0.124   1.497  15.607 -0.0660 -0.6651  0.5186
 1455TIP3    H125856   0.213   1.466  15.592  1.3983  3.2393  0.1382
 1455TIP3    H225857   0.108   1.560  15.537 -2.0357  0.7626  2.1205
 1456TIP3   OH225858   1.629   3.919   5.168 -0.1353  0.7385  0.0750
 1456TIP3    H125859   1.591   4.007   5.177 -0.8540  0.3022  1.6871
 1456TIP3    H225860   1.723   3.934   5.159 -0.2598  1.6658  0.2071
 1457TIP3   OH225861   6.716   1.744   6.365 -0.3857  0.7064 -0.7248
 1457TIP3    H125862   6.775   1.698   6.306  0.0700  0.1001  0.1822
 1457TIP3    H225863   6.767   1.817   6.400  0.2281 -0.4322  0.8771
 1458TIP3   OH225864   5.984   2.095  10.724  0.0852 -0.5500  0.9346
 1458TIP3    H125865   5.977   2.008  10.686  1.0650  0.0598 -0.7319
 1458TIP3    H225866   5.911   2.144  10.686  1.2876  0.1673 -0.5307
 1459TIP3   OH225867   5.152   2.732   5.293 -0.6106 -0.3595  0.3824
 1459TIP3    H125868   5.152   2.651   5.343  2.0340 -0.0796  0.9332
 1459TIP3    H225869   5.175   2.801   5.356  2.4463  0.0440 -1.0075
 1460TIP3   OH225870   5.632   0.230  11.552  0.1362  0.2413 -0.1325
 1460TIP3    H125871   5.645   0.180  11.632 -0.2966  2.1345  1.1752
 1460TIP3    H225872   5.612   0.319  11.581 -0.7575  0.8369 -2.3271
 1461TIP3   OH225873   2.441   5.175   5.581 -0.1189  1.1692 -0.1361
 1461TIP3    H125874   2.418   5.147   5.670  0.3532  0.6468 -0.1712
 1461TIP3    H225875   2.451   5.094   5.532 -1.5295  1.4865 -0.9769
 1462TIP3   OH225876   2.058   3.784  16.343  0.0993  0.0489  0.0683
 1462TIP3    H125877   2.019   3.715  16.289 -0.0717  0.0873  0.1432
 1462TIP3    H225878   1.984   3.828  16.384  0.2519 -0.2840  0.7039
 1463TIP3   OH225879   2.723   4.153   2.101  0.3793  0.3199 -0.5066
 1463TIP3    H125880   2.691   4.226   2.048 -0.1778 -0.1544 -0.8270
 1463TIP3    H225881   2.752   4.088   2.037 -1.6909 -0.8958 -0.3087
 1464TIP3   OH225882   1.210   2.891   1.141  0.6970 -0.4057 -0.2024
 1464TIP3    H125883   1.136   2.938   1.180 -0.3471 -1.4522 -0.8684
 1464TIP3    H225884   1.287   2.927   1.185 -0.3255 -0.6446  1.9026
 1465TIP3   OH225885   4.362   0.893   4.805 -0.2482  0.0028 -0.1908
 1465TIP3    H125886   4.434   0.870   4.863 -1.7554 -0.5821  1.5234
 1465TIP3    H225887   4.398   0.962   4.749  1.9877 -1.1138 -0.2291
 1466TIP3   OH225888   5.729   3.879  16.273  0.5196 -0.1617 -0.2092
 1466TIP3    H125889   5.719   3.954  16.333 -0.0634  0.5882 -1.2027
 1466TIP3    H225890   5.758   3.807  16.329 -0.5305  0.3620  1.0763
 1467TIP3   OH225891   0.404   0.585   3.684 -0.4487  0.3935 -0.4910
 1467TIP3    H125892   0.333   0.562   3.744  0.6131 -1.2629  0.1744
 1467TIP3    H225893   0.416   0.680   3.696 -1.0407  0.3043  1.0269
 1468TIP3   OH225894   1.124   6.235  11.308 -0.1923  0.3385 -0.1686
 1468TIP3    H125895   1.081   6.188  11.236  0.3120 -0.2080 -0.1153
 1468TIP3    H225896   1.064   6.226  11.382 -1.4207  2.1184 -0.8605
 1469TIP3   OH225897   2.561   5.829  12.685 -0.4582  0.2112 -0.4578
 1469TIP3    H125898   2.476   5.842  12.727 -0.8252 -1.0743 -0.7486
 1469TIP3    H225899   2.608   5.911  12.700 -0.2602 -0.3750  3.2084
 1470TIP3   OH225900   3.490   2.147  12.819  0.2926  0.7190  0.1470
 1470TIP3    H125901   3.575   2.174  12.787 -0.5108  1.8065 -1.1574
 1470TIP3    H225902   3.433   2.148  12.742 -0.9914  0.3890  1.0469
 1471TIP3   OH225903   5.210   0.068  11.478  0.9460 -0.0294  0.2045
 1471TIP3    H125904   5.243  -0.020  11.460  2.3857  0.5792 -0.2168
 1471TIP3    H225905   5.155   0.088  11.403 -1.0388 -1.2986  1.2114
 1472TIP3   OH225906   3.424   1.670   6.047 -0.2814  0.9936 -0.7481
 1472TIP3    H125907   3.465   1.699   6.129 -0.5129 -1.9359  0.5496
 1472TIP3    H225908   3.330   1.678   6.063 -0.4102 -1.4536  0.1784
 1473TIP3   OH225909   2.492   3.215   2.664 -0.2732  0.1945 -0.1062
 1473TIP3    H125910   2.481   3.308   2.644 -1.1424  0.2136  0.4066
 1473TIP3    H225911   2.546   3.214   2.743 -2.0580  0.3885  1.1932
 1474TIP3   OH225912   4.403   5.172   3.813 -0.7350 -0.2272 -0.4127
 1474TIP3    H125913   4.458   5.101   3.780  0.7373  0.6121  0.1013
 1474TIP3    H225914   4.461   5.221   3.873 -1.8186  1.1464 -0.4340
 1475TIP3   OH225915   0.950   0.531  11.686 -0.2279  0.6446 -0.4935
 1475TIP3    H125916   0.895   0.454  11.675 -1.3746  1.5757 -1.4801
 1475TIP3    H225917   1.032   0.508  11.640 -0.2492 -0.2666 -0.0977
 1476TIP3   OH225918   3.723   5.717   2.106  0.0358  0.0350  0.2437
 1476TIP3    H125919   3.747   5.638   2.155 -1.0595 -0.3702  0.1558
 1476TIP3    H225920   3.683   5.775   2.170 -2.4430 -0.9495 -0.2967
 1477TIP3   OH225921   3.898   2.143  13.591 -0.0066  0.1776 -0.2162
 1477TIP3    H125922   3.891   2.117  13.499  0.2950  0.4285 -0.3153
 1477TIP3    H225923   3.937   2.230  13.588 -0.1320  0.2478  0.1454
 1478TIP3   OH225924   2.049   2.107  16.337 -0.2231  0.1671 -0.4377
 1478TIP3    H125925   2.102   2.187  16.335  1.9612 -1.1691  0.3352
 1478TIP3    H225926   2.112   2.037  16.357 -1.6983 -2.0440 -2.8882
 1479TIP3   OH225927   4.754   1.268   6.400  0.0512  0.5172  0.7072
 1479TIP3    H125928   4.776   1.255   6.308 -0.4498 -0.1748  0.6781
 1479TIP3    H225929   4.790   1.192   6.445  0.3949  0.9093  1.1030
 1480TIP3   OH225930   4.913   4.722   2.278  0.1659 -0.6946  0.4445
 1480TIP3    H125931   4.944   4.759   2.195 -0.7118 -0.5242  0.1759
 1480TIP3    H225932   4.987   4.731   2.338 -0.2313  2.2964  0.6410
 1481TIP3   OH225933   5.070   0.995   0.478  0.5116  0.1878  0.5592
 1481TIP3    H125934   5.057   0.900   0.475 -0.9536  0.3891 -0.6690
 1481TIP3    H225935   4.982   1.031   0.471  1.2059  1.6348 -2.2057
 1482TIP3   OH225936   5.852   1.903  12.871 -0.2967 -0.5059  0.1414
 1482TIP3    H125937   5.838   1.995  12.847 -1.1672 -0.4113  0.9640
 1482TIP3    H225938   5.792   1.855  12.814 -2.3214 -0.2848  1.9539
 1483TIP3   OH225939   2.273   2.848   5.973  0.9781  0.4021  0.0076
 1483TIP3    H125940   2.359   2.862   5.935  1.0921  0.2070  0.1928
 1483TIP3    H225941   2.272   2.755   5.997  0.6938  0.3878 -0.0538
 1484TIP3   OH225942   0.588   1.063  14.436  0.3281  0.0515 -0.1176
 1484TIP3    H125943   0.526   0.996  14.410  0.3515 -0.4218  0.9745
 1484TIP3    H225944   0.673   1.019  14.437  0.3006 -0.0178  0.9158
 1485TIP3   OH225945   0.340   4.901   5.720  0.1624  0.2762 -0.0070
 1485TIP3    H125946   0.393   4.954   5.779  0.7907  0.8493 -1.0476
 1485TIP3    H225947   0.326   4.958   5.644 -3.5858  0.8892  0.9751
 1486TIP3   OH225948   4.930   5.257   5.015  0.1591 -0.3636  0.0442
 1486TIP3    H125949   4.995   5.224   4.953 -2.1846 -3.2983 -1.1551
 1486TIP3    H225950   4.888   5.329   4.969 -1.0457 -2.0311 -1.6416
 1487TIP3   OH225951   5.646   0.487   2.669 -0.2300 -0.0878 -0.7133
 1487TIP3    H125952   5.718   0.440   2.627  0.9654  2.4849 -1.7813
 1487TIP3    H225953   5.568   0.460   2.620  0.4346 -0.7537 -1.4243
 1488TIP3   OH225954   4.685   4.317  15.427 -0.3422 -0.0925  0.0266
 1488TIP3    H125955   4.723   4.251  15.368 -0.5998 -0.1075 -0.1218
 1488TIP3    H225956   4.759   4.343  15.482 -0.9654 -3.1023  2.5607
 1489TIP3   OH225957   0.914   4.606  16.396 -0.7335 -0.1425  0.3164
 1489TIP3    H125958   0.918   4.585  16.303  2.0467  2.7842 -0.4063
 1489TIP3    H225959   0.849   4.676  16.402  0.5831  1.1540  0.1165
 1490TIP3   OH225960   0.979   3.812  12.658  0.3599  0.5085 -0.0710
 1490TIP3    H125961   1.064   3.774  12.682 -0.4107 -0.5122  1.1639
 1490TIP3    H225962   1.001   3.900  12.627  1.9757 -0.1496 -0.9259
 1491TIP3   OH225963   2.607   5.984  16.259 -0.0146  0.0120 -0.3509
 1491TIP3    H125964   2.578   5.910  16.205  1.6922 -0.2809 -0.9517
 1491TIP3    H225965   2.653   5.943  16.332 -2.0060  0.4250  1.1994
 1492TIP3   OH225966   1.267   0.539  12.414 -0.2053  0.5786  0.0693
 1492TIP3    H125967   1.289   0.471  12.350  0.1702  1.0911 -0.3455
 1492TIP3    H225968   1.341   0.540  12.474 -0.8204 -0.3119  0.8726
 1493TIP3   OH225969   6.729   3.322   5.219 -0.0269 -0.2905 -0.0834
 1493TIP3    H125970   6.707   3.234   5.248  3.1970 -0.1137  3.8694
 1493TIP3    H225971   6.788   3.309   5.144 -1.2877 -1.2916 -0.9416
 1494TIP3   OH225972   3.177   2.407  16.990  0.6658  0.7345  0.0489
 1494TIP3    H125973   3.086   2.434  17.004  0.3395 -0.2114 -0.1659
 1494TIP3    H225974   3.226   2.489  16.988  0.3187  1.1806  3.4647
 1495TIP3   OH225975   0.249   1.801  13.009 -0.2519  0.2286  0.1787
 1495TIP3    H125976   0.246   1.873  13.072 -3.1930  0.6362 -0.3115
 1495TIP3    H225977   0.273   1.842  12.926  0.7393  0.1642  0.4219
 1496TIP3   OH225978   0.550   3.258  11.625 -0.2638 -0.7334  0.4507
 1496TIP3    H125979   0.564   3.192  11.694  0.0302 -2.0713 -0.8439
 1496TIP3    H225980   0.602   3.333  11.654  3.7365 -2.8807 -0.4692
 1497TIP3   OH225981   2.187   1.807  12.976  0.0322  0.0334  0.2154
 1497TIP3    H125982   2.206   1.722  13.015 -1.5357 -0.6607 -0.4749
 1497TIP3    H225983   2.144   1.787  12.893  1.8173  1.4860 -1.1604
 1498TIP3   OH225984   1.349   3.161   2.949  0.6788 -0.1175  0.5331
 1498TIP3    H125985   1.289   3.164   3.024 -0.4641  1.6236 -0.3907
 1498TIP3    H225986   1.324   3.081   2.902 -0.5846  0.2907  0.4613
 1499TIP3   OH225987   3.224   1.835  14.316  0.2848 -0.1918 -0.0978
 1499TIP3    H125988   3.207   1.893  14.391 -0.0948  0.2272 -0.4993
 1499TIP3    H225989   3.291   1.775  14.347 -0.1668 -0.2882  0.7194
 1500TIP3   OH225990   5.314   5.092  14.102  0.0246 -0.2445  0.5095
 1500TIP3    H125991   5.219   5.092  14.115 -0.1091 -0.1151 -0.3610
 1500TIP3    H225992   5.350   5.127  14.183 -0.6091 -1.2410  1.2501
 1501TIP3   OH225993   0.146   0.141   0.429  0.1954  0.3460  0.0756
 1501TIP3    H125994   0.053   0.152   0.451  0.4834  1.8037  0.6633
 1501TIP3    H225995   0.145   0.105   0.340 -0.9449  2.2685 -0.7513
 1502TIP3   OH225996   3.058   2.883  14.420  0.4634 -0.0485 -0.4906
 1502TIP3    H125997   3.127   2.893  14.486  0.5875 -3.7213  0.1939
 1502TIP3    H225998   2.978   2.868  14.471 -0.1726  0.6715 -1.2467
 1503TIP3   OH225999   5.332   1.286  16.415 -0.1739  0.3287  0.2271
 1503TIP3    H126000   5.333   1.356  16.349  0.3473  1.2736  1.2127
 1503TIP3    H226001   5.361   1.329  16.496 -2.0407 -0.4898  1.4046
 1504TIP3   OH226002   3.031   5.635   1.990 -0.1017 -0.2760 -0.3646
 1504TIP3    H126003   3.125   5.654   1.999 -0.1436  0.2864 -0.9977
 1504TIP3    H226004   3.029   5.552   1.942  0.0710 -1.1477  1.0764
 1505TIP3   OH226005   6.090   0.581   5.347 -0.0598 -0.2774  0.1528
 1505TIP3    H126006   6.173   0.534   5.343  1.2187  1.9010 -1.5009
 1505TIP3    H226007   6.048   0.562   5.263 -0.6747 -0.3712  0.4718
 1506TIP3   OH226008   2.461   2.625   4.849 -0.1482  0.3450 -0.2037
 1506TIP3    H126009   2.543   2.601   4.806  0.2146  0.1573  0.5890
 1506TIP3    H226010   2.400   2.639   4.776  0.0033 -1.5276 -0.7526
 1507TIP3   OH226011   2.166   5.059  13.100  0.0556  0.1195 -0.1060
 1507TIP3    H126012   2.259   5.072  13.083  0.4887 -0.0948  1.8681
 1507TIP3    H226013   2.153   4.964  13.094  0.3116 -0.0049  1.1127
 1508TIP3   OH226014   5.554   3.497  15.236  0.0540  0.0952  0.2016
 1508TIP3    H126015   5.517   3.567  15.182  0.8339  1.1813  1.0303
 1508TIP3    H226016   5.503   3.501  15.318 -0.6586 -1.0841 -0.1572
 1509TIP3   OH226017   3.879   3.636  12.574 -0.2570  0.0028  0.0980
 1509TIP3    H126018   3.918   3.723  12.570  1.0291 -0.5454  0.2721
 1509TIP3    H226019   3.801   3.647  12.628 -1.0519  1.3773 -1.2478
 1510TIP3   OH226020   5.446   1.425  15.320  0.3659 -0.3860 -0.4368
 1510TIP3    H126021   5.396   1.500  15.286 -0.7282  0.2311  2.2840
 1510TIP3    H226022   5.537   1.451  15.309  0.0179  0.9145 -0.4875
 1511TIP3   OH226023   1.956   2.092  12.550 -0.4774  0.0468 -0.4195
 1511TIP3    H126024   1.920   2.003  12.550  2.1229 -1.1061  0.2962
 1511TIP3    H226025   1.974   2.110  12.642  0.9978  0.4243 -0.7591
 1512TIP3   OH226026   6.287   4.524   3.907 -0.4627  0.2613  0.5122
 1512TIP3    H126027   6.260   4.584   3.837 -1.8056 -0.9855 -0.0830
 1512TIP3    H226028   6.353   4.573   3.956 -0.2831  1.5821 -0.9687
 1513TIP3   OH226029   3.554   6.291  16.754  0.0905  0.0205  0.0598
 1513TIP3    H126030   3.466   6.309  16.722  1.2592  2.5820 -2.0526
 1513TIP3    H226031   3.601   6.256  16.678  1.2807  0.0796  0.7405
 1514TIP3   OH226032   0.768   3.662   1.358  0.1744  0.2688 -0.2516
 1514TIP3    H126033   0.808   3.580   1.386  0.0147  0.2292 -0.1359
 1514TIP3    H226034   0.676   3.654   1.384 -0.1958 -0.1602 -1.6164
 1515TIP3   OH226035   4.298   1.742   1.980  0.1980 -0.3224  0.5518
 1515TIP3    H126036   4.253   1.658   1.971 -0.5654  0.1966 -0.7245
 1515TIP3    H226037   4.240   1.795   2.035  0.0299 -0.1833  0.2396
 1516TIP3   OH226038   1.531   5.730   2.609 -0.1933 -0.0912 -0.4764
 1516TIP3    H126039   1.606   5.748   2.665 -0.9557 -0.4891  0.7251
 1516TIP3    H226040   1.503   5.642   2.634 -1.5424  0.3641 -0.3065
 1517TIP3   OH226041   5.581   1.181   2.606  0.5541  0.2419 -0.8515
 1517TIP3    H126042   5.672   1.206   2.589  0.8594 -0.5955 -0.4724
 1517TIP3    H226043   5.539   1.263   2.633  1.9740  0.0735  2.2314
 1518TIP3   OH226044   3.206   6.188   2.429  0.1461  0.4929  0.4167
 1518TIP3    H126045   3.240   6.191   2.339 -0.7162  1.6558  0.1070
 1518TIP3    H226046   3.248   6.261   2.473  0.1816  0.2259  0.8288
 1519TIP3   OH226047   0.916   3.117  12.664  0.8092  0.2935  0.1385
 1519TIP3    H126048   0.852   3.165  12.716  0.2778 -1.0297  0.7492
 1519TIP3    H226049   0.865   3.053  12.615  1.5886 -0.3181  0.1033
 1520TIP3   OH226050   1.524   2.456   4.372  0.1859 -0.1464 -0.2239
 1520TIP3    H126051   1.450   2.504   4.409 -0.0985  0.3949 -1.4688
 1520TIP3    H226052   1.546   2.392   4.440 -0.5635  0.5566  0.7165
 1521TIP3   OH226053   0.681   3.738  12.056 -0.3872 -0.2095  0.1119
 1521TIP3    H126054   0.713   3.758  12.144  2.8975 -0.7745 -0.8265
 1521TIP3    H226055   0.689   3.821  12.008 -2.1298  0.0865  0.2679
 1522TIP3   OH226056   5.724   5.495  15.261  0.3551 -0.3076  0.2719
 1522TIP3    H126057   5.766   5.412  15.287  0.7279  0.4794  2.4147
 1522TIP3    H226058   5.759   5.513  15.174 -2.0236 -3.8638 -1.6580
 1523TIP3   OH226059   4.105   1.496  10.903  0.1320  0.7074 -0.2291
 1523TIP3    H126060   4.033   1.552  10.875  0.6708  0.4945 -2.1403
 1523TIP3    H226061   4.097   1.417  10.849  1.7715  0.6689 -0.4535
 1524TIP3   OH226062   6.281   5.195   6.096 -0.0273  0.4095 -0.7089
 1524TIP3    H126063   6.303   5.181   6.188  0.6912 -2.1991 -1.1881
 1524TIP3    H226064   6.332   5.271   6.070  0.2757  0.7799  0.8693
 1525TIP3   OH226065   6.469   3.071  15.858 -0.3487  0.3989  1.0159
 1525TIP3    H126066   6.491   3.162  15.876  0.0184  0.3927  0.6039
 1525TIP3    H226067   6.550   3.031  15.828 -0.4020 -0.1792  1.6055
 1526TIP3   OH226068   4.748   0.520   0.659  0.4886  0.0463 -0.0505
 1526TIP3    H126069   4.780   0.438   0.697 -0.7003 -0.3394  0.1505
 1526TIP3    H226070   4.695   0.493   0.585 -0.9628  0.5473  0.7667
 1527TIP3   OH226071   2.205   4.352  16.149 -0.6466 -0.6068  0.5359
 1527TIP3    H126072   2.291   4.376  16.183 -1.0859 -0.2709  1.4463
 1527TIP3    H226073   2.208   4.257  16.140  0.2987 -0.4796 -0.8325
 1528TIP3   OH226074   0.390   6.224  16.669  0.1159 -0.0725  0.2342
 1528TIP3    H126075   0.367   6.144  16.717 -0.4368 -0.3843 -0.5175
 1528TIP3    H226076   0.372   6.295  16.730 -2.5410 -0.3191 -0.1159
 1529TIP3   OH226077   4.444   4.026   3.969 -0.3244 -0.4817  0.1304
 1529TIP3    H126078   4.539   4.036   3.969 -0.3818  1.9928 -3.6279
 1529TIP3    H226079   4.412   4.101   4.018 -0.3355 -0.4117  0.0168
 1530TIP3   OH226080   0.244   3.830   4.183  0.2929  0.6134  0.2707
 1530TIP3    H126081   0.176   3.875   4.233  0.1031 -2.3261  3.0096
 1530TIP3    H226082   0.198   3.783   4.115  0.0828  1.6531 -0.3203
 1531TIP3   OH226083   0.959   6.816  12.636  0.2077  0.5753  0.3051
 1531TIP3    H126084   1.010   6.812  12.718 -0.7071 -0.5586  0.8413
 1531TIP3    H226085   0.870   6.796  12.662 -0.2380  0.9231 -0.8856
 1532TIP3   OH226086   6.710   4.890  14.805 -0.0459 -0.0275 -0.2083
 1532TIP3    H126087   6.675   4.979  14.797 -0.8778 -0.3885 -0.6306
 1532TIP3    H226088   6.634   4.833  14.801  0.3654 -0.7340  1.1245
 1533TIP3   OH226089   1.184   3.208  15.465 -0.0441  0.7030  0.5422
 1533TIP3    H126090   1.261   3.197  15.409 -0.0372  0.3145  0.6220
 1533TIP3    H226091   1.157   3.299  15.451 -1.8071 -0.1409 -2.3408
 1534TIP3   OH226092   2.504   0.343  11.189 -0.3140  0.1194 -0.4061
 1534TIP3    H126093   2.501   0.266  11.133  1.5213  0.3954 -0.9560
 1534TIP3    H226094   2.584   0.332  11.240 -1.0032  0.7712  0.8682
 1535TIP3   OH226095   1.752   4.005  14.832 -0.1226 -0.2670 -0.4847
 1535TIP3    H126096   1.663   4.033  14.812 -0.5223  0.7527  2.3622
 1535TIP3    H226097   1.800   4.085  14.851  1.0207 -0.9233 -0.4508
 1536TIP3   OH226098   2.916   5.939   0.056  0.4948 -1.1029  0.1206
 1536TIP3    H126099   2.861   5.862   0.051  0.7421 -1.4820  2.2251
 1536TIP3    H226100   2.997   5.909   0.098  1.4698 -0.1273 -0.9690
 1537TIP3   OH226101   3.545   3.821   6.091  0.0016  0.3127 -0.2859
 1537TIP3    H126102   3.575   3.748   6.144 -0.2058 -1.1786 -2.1366
 1537TIP3    H226103   3.625   3.867   6.065  0.5977 -1.7455 -2.5100
 1538TIP3   OH226104   2.052   4.917   6.008 -0.1503  0.2414 -0.3210
 1538TIP3    H126105   2.062   4.825   6.031 -2.5212 -0.5779 -2.1407
 1538TIP3    H226106   1.994   4.952   6.076  0.6787  0.4060  0.3191
 1539TIP3   OH226107   3.754   0.246   3.866  0.0698  0.2016 -0.1840
 1539TIP3    H126108   3.709   0.330   3.855  0.7429  0.6550  0.3943
 1539TIP3    H226109   3.684   0.185   3.891 -0.4340  0.5753 -0.6437
 1540TIP3   OH226110   0.580   1.015  12.828  0.1148 -0.2310  0.3239
 1540TIP3    H126111   0.577   1.037  12.921 -0.0506 -1.4195  0.6184
 1540TIP3    H226112   0.508   1.064  12.789  0.3172  0.4404  0.7699
 1541TIP3   OH226113   2.678   1.530  15.378 -0.1408  0.4038 -0.5276
 1541TIP3    H126114   2.661   1.489  15.463  1.2392 -1.2412 -0.9930
 1541TIP3    H226115   2.592   1.558  15.348 -0.7469  0.4340  1.1200
 1542TIP3   OH226116   1.887   2.229  13.072  0.0024  0.0849  0.8022
 1542TIP3    H126117   1.922   2.309  13.111 -0.8641  0.9143 -0.0733
 1542TIP3    H226118   1.963   2.171  13.065  0.8522  1.1918  0.5435
 1543TIP3   OH226119   2.047   4.743   5.111  0.1152 -0.9741 -0.4398
 1543TIP3    H126120   2.067   4.707   5.025 -3.9313 -0.4077 -1.8335
 1543TIP3    H226121   2.033   4.836   5.095 -0.6344 -0.8503  0.8190
 1544TIP3   OH226122   5.945   5.828   0.040  0.0880 -0.3502 -0.6045
 1544TIP3    H126123   5.945   5.900   0.103 -0.0972 -1.3915  0.6319
 1544TIP3    H226124   5.959   5.750   0.094 -1.3343 -1.4016 -1.7037
 1545TIP3   OH226125   3.433   5.349   5.792  0.4694  0.3282 -0.1625
 1545TIP3    H126126   3.344   5.345   5.758  1.1560  1.1760 -2.1954
 1545TIP3    H226127   3.464   5.437   5.768  1.7133  0.2188  0.9038
 1546TIP3   OH226128   1.117   4.856  16.969  0.1066 -0.0150 -0.4307
 1546TIP3    H126129   1.026   4.835  16.950  0.0567  0.4982 -0.7679
 1546TIP3    H226130   1.115   4.888  17.060 -0.0627  0.0745 -0.4650
 1547TIP3   OH226131   1.050   6.515   0.222  0.8703 -0.7314  0.4059
 1547TIP3    H126132   1.025   6.573   0.293  0.6145 -1.4473  0.9139
 1547TIP3    H226133   1.125   6.557   0.181  0.0786  0.4532  0.1264
 1548TIP3   OH226134   4.598   5.032  14.239  0.2359  0.4013 -0.3808
 1548TIP3    H126135   4.605   5.087  14.316 -0.4234  0.6488 -0.4850
 1548TIP3    H226136   4.515   4.985  14.250 -0.3866  1.2103 -1.4108
 1549TIP3   OH226137   0.032   2.888  11.207 -0.2117 -0.2849 -0.5239
 1549TIP3    H126138   0.027   2.931  11.122 -0.3075  0.7193 -0.0279
 1549TIP3    H226139   0.067   2.802  11.189 -2.1464 -0.8643 -1.8663
 1550TIP3   OH226140   2.828   0.882  13.611  0.1561 -0.3858  0.2322
 1550TIP3    H126141   2.899   0.880  13.546  0.2071  0.8580  0.2241
 1550TIP3    H226142   2.836   0.969  13.652 -1.3615 -0.2185  0.2256
 1551TIP3   OH226143   4.264   5.170   1.382 -0.4554  0.4366  0.4942
 1551TIP3    H126144   4.322   5.103   1.347 -0.0406  1.2496 -0.4224
 1551TIP3    H226145   4.181   5.156   1.337 -0.4663  0.3338  0.5463
 1552TIP3   OH226146   6.384   4.767   4.860  0.5567  0.2612  0.1846
 1552TIP3    H126147   6.371   4.732   4.772  3.5163 -1.5894  0.3522
 1552TIP3    H226148   6.306   4.820   4.877 -0.2051  0.5166 -3.4371
 1553TIP3   OH226149   6.517   1.547   6.390 -0.1665 -0.5121  0.2676
 1553TIP3    H126150   6.441   1.566   6.445 -0.9481  0.4416 -1.0903
 1553TIP3    H226151   6.571   1.625   6.396 -1.4482  0.6773 -2.1663
 1554TIP3   OH226152   3.244   2.299   3.805  0.6508  0.0934 -0.2606
 1554TIP3    H126153   3.336   2.307   3.829  0.2158  2.2672  1.0226
 1554TIP3    H226154   3.245   2.283   3.711  2.3714  2.5697 -0.7648
 1555TIP3   OH226155   4.501   4.706   2.618  0.2856 -0.1281  0.0755
 1555TIP3    H126156   4.499   4.617   2.583 -1.3321 -0.2639  0.4396
 1555TIP3    H226157   4.469   4.761   2.547  0.3848  0.0426  0.1625
 1556TIP3   OH226158   4.467   2.214  16.302 -0.3332  0.0272 -0.0568
 1556TIP3    H126159   4.509   2.255  16.226 -2.8905  1.9956 -0.5552
 1556TIP3    H226160   4.521   2.242  16.377  0.3250  0.8959 -0.8186
 1557TIP3   OH226161   1.513   1.926  13.340 -0.2844 -0.0033 -0.1017
 1557TIP3    H126162   1.455   1.907  13.414  1.1866 -0.2777  1.0473
 1557TIP3    H226163   1.590   1.968  13.380  0.6405 -0.3400 -1.4424
 1558TIP3   OH226164   0.441   1.838  10.997  0.0949  0.0972  0.0004
 1558TIP3    H126165   0.514   1.876  11.045 -0.1592 -2.0609  2.3656
 1558TIP3    H226166   0.482   1.790  10.925  1.2048 -1.6885  1.7046
 1559TIP3   OH226167   5.560   5.795   1.296  0.2028 -0.3499 -0.7319
 1559TIP3    H126168   5.640   5.761   1.257  0.9133  1.0580 -0.5689
 1559TIP3    H226169   5.557   5.887   1.268 -1.9029 -0.6286 -1.5869
 1560TIP3   OH226170   3.778   4.234   2.009  0.3743 -0.0964  0.2228
 1560TIP3    H126171   3.701   4.208   2.059  0.8522 -2.7723 -0.2789
 1560TIP3    H226172   3.749   4.230   1.917  1.3397 -2.2971 -0.0444
 1561TIP3   OH226173   3.207   4.197   4.101  0.0684  0.0106 -0.2787
 1561TIP3    H126174   3.195   4.278   4.051 -1.9605 -0.5815 -0.8102
 1561TIP3    H226175   3.301   4.179   4.094  0.5940  2.3378 -0.0766
 1562TIP3   OH226176   2.989   2.782  12.637 -0.3321 -0.1534 -0.7063
 1562TIP3    H126177   3.033   2.763  12.720  0.2640 -0.0432 -0.9882
 1562TIP3    H226178   2.999   2.702  12.586 -4.3543 -1.8914  0.7931
 1563TIP3   OH226179   2.665   2.734   4.394  0.0460 -0.1360 -0.4761
 1563TIP3    H126180   2.584   2.718   4.346 -0.1979 -0.9638  0.2085
 1563TIP3    H226181   2.717   2.789   4.334 -1.4728  1.4121 -0.4480
 1564TIP3   OH226182   6.785   6.654  15.173  0.5435  0.2095 -0.6281
 1564TIP3    H126183   6.832   6.696  15.245  1.0156 -1.1970 -0.0653
 1564TIP3    H226184   6.693   6.668  15.193  0.5534 -1.9635  1.5044
 1565TIP3   OH226185   5.491   4.562  13.093 -0.7852  0.3437  0.2534
 1565TIP3    H126186   5.476   4.468  13.092 -0.5630  0.2863 -2.1604
 1565TIP3    H226187   5.582   4.571  13.123 -0.5753 -0.2636 -0.1786
 1566TIP3   OH226188   2.777   2.816   4.159  0.0948 -0.0685 -0.1704
 1566TIP3    H126189   2.800   2.909   4.157 -1.0292  0.2101 -0.8902
 1566TIP3    H226190   2.774   2.790   4.067 -1.7106 -0.2551 -0.0925
 1567TIP3   OH226191   6.284   5.726   0.192 -0.3971  0.2718  0.0669
 1567TIP3    H126192   6.359   5.755   0.140 -0.2202 -0.3528 -0.0401
 1567TIP3    H226193   6.260   5.641   0.154 -0.1664 -0.2720  1.0908
 1568TIP3   OH226194   5.015   6.258  10.636  0.0554  0.0010 -0.3050
 1568TIP3    H126195   4.956   6.238  10.562  0.2499 -0.6172 -0.2987
 1568TIP3    H226196   5.099   6.276  10.595  0.3153 -0.9398 -0.2064
 1569TIP3   OH226197   0.432   5.190   4.840  0.4852  0.2283 -0.1590
 1569TIP3    H126198   0.483   5.151   4.769  3.1024  2.5360  0.2581
 1569TIP3    H226199   0.353   5.223   4.797 -0.3524 -2.6018 -1.0213
 1570TIP3   OH226200   5.173   3.911   6.335  0.1079  0.1367  0.6674
 1570TIP3    H126201   5.110   3.981   6.349  1.6020  1.1580  2.9149
 1570TIP3    H226202   5.244   3.953   6.286  0.9454  0.2271  1.9006
 1571TIP3   OH226203   5.062   3.232  13.675  0.1710 -0.4202  0.1547
 1571TIP3    H126204   4.995   3.241  13.743  2.2620 -1.7155  2.6169
 1571TIP3    H226205   5.126   3.300  13.696  0.0215  0.3144 -1.6727
 1572TIP3   OH226206   3.492   2.980  13.817 -0.0576  0.4644 -0.5224
 1572TIP3    H126207   3.430   2.964  13.889  0.9347  0.2097  0.3001
 1572TIP3    H226208   3.461   2.923  13.746 -0.8111  0.4029 -0.1593
 1573TIP3   OH226209   3.623   2.040  12.340  0.3160  0.0527  0.1874
 1573TIP3    H126210   3.692   2.008  12.399  1.2379  0.4918 -0.6242
 1573TIP3    H226211   3.652   2.013  12.253  0.5491  2.0384 -0.4009
 1574TIP3   OH226212   2.969   4.800  13.119 -0.0477 -0.3337  0.0229
 1574TIP3    H126213   3.029   4.793  13.044 -1.1625  0.4371 -0.9717
 1574TIP3    H226214   2.997   4.730  13.178 -1.8989 -4.0401 -3.0799
 1575TIP3   OH226215   1.198   0.465   0.205  0.4363 -0.0628  0.4789
 1575TIP3    H126216   1.256   0.390   0.193 -0.1119 -0.1240 -2.5007
 1575TIP3    H226217   1.254   0.541   0.197  0.6053 -0.1296  0.9952
 1576TIP3   OH226218   2.764   0.427  15.267  0.5904 -0.2619  0.4127
 1576TIP3    H126219   2.818   0.487  15.318 -1.0458  0.2746  1.5954
 1576TIP3    H226220   2.691   0.404  15.325 -0.1826 -1.3614 -0.9235
 1577TIP3   OH226221   1.834   4.260   0.681  0.5191  1.1406  0.0476
 1577TIP3    H126222   1.756   4.289   0.633  0.3985  1.4384  0.4190
 1577TIP3    H226223   1.843   4.323   0.753  1.2967  1.3073 -0.1873
 1578TIP3   OH226224   4.718   0.340  14.508  0.0250 -0.4964 -0.1188
 1578TIP3    H126225   4.724   0.304  14.420  1.6321 -1.2853  0.2761
 1578TIP3    H226226   4.655   0.412  14.501 -1.3286 -1.7564 -1.4807
 1579TIP3   OH226227   2.835   0.150   2.829  0.6079 -0.1172  0.6347
 1579TIP3    H126228   2.921   0.169   2.865  1.4218 -2.2870  0.0014
 1579TIP3    H226229   2.787   0.108   2.901  1.0852 -1.4409  0.2100
 1580TIP3   OH226230   4.094   2.932   0.783 -0.0447  0.3573 -0.2813
 1580TIP3    H126231   4.062   3.001   0.842 -0.8323  0.8004 -1.2030
 1580TIP3    H226232   4.140   2.872   0.841 -0.6432  0.8741  0.7757
 1581TIP3   OH226233   3.157   4.834   0.350 -0.0936  0.1623 -0.5472
 1581TIP3    H126234   3.205   4.913   0.324  2.4125 -0.0680  2.7100
 1581TIP3    H226235   3.169   4.774   0.277  2.4667  1.0753 -1.0087
 1582TIP3   OH226236   1.231   3.763   1.391 -0.0165  0.8271  0.4597
 1582TIP3    H126237   1.188   3.715   1.320 -1.9173  4.5881 -1.2513
 1582TIP3    H226238   1.162   3.774   1.457  1.1198 -0.7518  2.0083
 1583TIP3   OH226239   5.744   1.818  13.839  0.2676 -0.0910  0.3727
 1583TIP3    H126240   5.789   1.744  13.880  1.0603  0.9284  1.4011
 1583TIP3    H226241   5.809   1.889  13.841 -0.6928  0.8185 -0.0081
 1584TIP3   OH226242   1.318   2.630   5.901  0.1612  0.6600 -0.1187
 1584TIP3    H126243   1.266   2.650   5.824 -1.5027 -0.7695  0.5653
 1584TIP3    H226244   1.254   2.611   5.969  1.5918  0.1480  1.1496
 1585TIP3   OH226245   2.902   1.574  16.338  0.4340  0.6745 -0.4751
 1585TIP3    H126246   2.809   1.550  16.342  0.7612 -1.1372 -2.2355
 1585TIP3    H226247   2.908   1.637  16.267  0.1890  3.2050  1.5918
 1586TIP3   OH226248   0.134   3.156  16.495  0.6490 -0.5097  0.0113
 1586TIP3    H126249   0.164   3.244  16.472 -0.3184  0.0408  0.7559
 1586TIP3    H226250   0.169   3.141  16.583 -1.0962  0.1188  0.8700
 1587TIP3   OH226251   5.534   4.299   2.043  0.0688 -0.6062 -0.0232
 1587TIP3    H126252   5.442   4.314   2.064  0.0215 -0.8658 -0.0405
 1587TIP3    H226253   5.546   4.337   1.956  0.4212  1.0479  0.7154
 1588TIP3   OH226254   1.777   0.356   0.138  0.6333 -0.0137 -0.1036
 1588TIP3    H126255   1.730   0.424   0.187 -1.5376 -1.0119 -0.6789
 1588TIP3    H226256   1.825   0.307   0.205 -2.1531 -1.2623  1.1669
 1589TIP3   OH226257   0.099   6.614   4.651  0.0238 -0.0106  0.2605
 1589TIP3    H126258   0.190   6.610   4.621 -0.0818  0.6031 -0.1540
 1589TIP3    H226259   0.070   6.523   4.652  0.3788 -0.1340 -0.4057
 1590TIP3   OH226260   0.181   0.380  15.541  0.2944 -0.5198 -0.0408
 1590TIP3    H126261   0.256   0.360  15.597 -0.0933 -0.8307  0.3677
 1590TIP3    H226262   0.193   0.472  15.517  0.0200 -0.1372  1.2316
 1591TIP3   OH226263   5.271   3.175  16.723 -0.1268  0.4299  0.2260
 1591TIP3    H126264   5.266   3.158  16.817 -1.4819 -0.2497  0.0553
 1591TIP3    H226265   5.181   3.190  16.697  0.3181  1.3845 -0.8515
 1592TIP3   OH226266   2.535   2.553  12.147 -0.3465  0.6659  0.4707
 1592TIP3    H126267   2.530   2.586  12.057 -2.2701 -1.0307 -0.1326
 1592TIP3    H226268   2.463   2.598  12.192 -0.1064  0.6601  0.8628
 1593TIP3   OH226269   6.386   0.250   5.419  0.3621 -0.3494 -0.3185
 1593TIP3    H126270   6.354   0.339   5.403  3.1479  1.4066  2.7618
 1593TIP3    H226271   6.459   0.240   5.358  0.7834 -0.0288  0.1244
 1594TIP3   OH226272   6.704   1.978   5.129 -0.2523  0.3109  0.3245
 1594TIP3    H126273   6.780   1.924   5.149  0.4934  1.3350  0.3244
 1594TIP3    H226274   6.716   2.004   5.038 -0.2722  0.9957  0.5122
 1595TIP3   OH226275   2.969   1.246  11.205 -0.1739  0.3658  0.1458
 1595TIP3    H126276   2.876   1.251  11.183  0.2519  1.9640 -1.4904
 1595TIP3    H226277   3.003   1.176  11.149 -0.2392  0.2801  0.2117
 1596TIP3   OH226278   6.216   6.693  12.912  0.0480  0.4850  0.4112
 1596TIP3    H126279   6.145   6.740  12.956  0.3202 -0.6785  2.2087
 1596TIP3    H226280   6.292   6.703  12.970  0.3338 -1.4147  0.4382
 1597TIP3   OH226281   1.612   1.410  14.673  0.6382  0.1417  0.3630
 1597TIP3    H126282   1.600   1.315  14.679  0.0297  0.2038  0.2233
 1597TIP3    H226283   1.700   1.421  14.637  0.9673 -0.3572  0.9890
 1598TIP3   OH226284   2.091   6.545  14.991 -0.3146  0.1574  0.0872
 1598TIP3    H126285   2.157   6.476  14.999 -1.6848 -1.1170  0.8444
 1598TIP3    H226286   2.055   6.534  14.903 -0.4166  0.0032  0.1472
 1599TIP3   OH226287   6.356   6.585   4.696 -0.1452  0.5231  0.2418
 1599TIP3    H126288   6.293   6.598   4.767 -0.7518  1.9150 -0.5047
 1599TIP3    H226289   6.363   6.671   4.654  1.0027 -0.0118 -0.7242
 1600TIP3   OH226290   6.682   6.636  14.574  0.1125 -0.0035 -0.0145
 1600TIP3    H126291   6.745   6.672  14.636 -2.2072  1.7537  1.5245
 1600TIP3    H226292   6.677   6.543  14.596 -1.8089  0.7912  3.8039
 1601TIP3   OH226293   4.164   2.243  14.087 -0.2311  0.5852  0.3742
 1601TIP3    H126294   4.090   2.182  14.093  0.8289 -1.1065 -1.9709
 1601TIP3    H226295   4.130   2.317  14.038 -0.6183  0.2330  0.0994
 1602TIP3   OH226296   5.226   3.245  15.699  0.2808  0.6021  0.3947
 1602TIP3    H126297   5.182   3.302  15.636  0.3146  1.0238  0.7498
 1602TIP3    H226298   5.217   3.290  15.782  0.9109  0.4251  0.5617
 1603TIP3   OH226299   4.436   1.067  13.441  0.0075 -0.2872  0.3760
 1603TIP3    H126300   4.342   1.069  13.420  0.1263 -0.0216 -0.1558
 1603TIP3    H226301   4.479   1.079  13.356  0.5385 -1.6155  0.4368
 1604TIP3   OH226302   6.573   2.212  16.227  0.4933 -0.0218  0.5079
 1604TIP3    H126303   6.548   2.150  16.160  2.7657  0.4118 -0.8460
 1604TIP3    H226304   6.561   2.298  16.186  2.4820  0.2316  0.3785
 1605TIP3   OH226305   2.362   5.640   3.150  0.3940 -0.1704 -0.3898
 1605TIP3    H126306   2.439   5.591   3.180 -0.6840 -1.0868  1.0166
 1605TIP3    H226307   2.349   5.708   3.216 -0.8440 -0.9638  0.2329
 1606TIP3   OH226308   1.081   6.424  15.007  0.2700 -0.2562  0.6201
 1606TIP3    H126309   1.124   6.500  15.046  1.9775 -1.0270  0.3168
 1606TIP3    H226310   1.094   6.434  14.913  2.0879 -1.7646  0.6500
 1607TIP3   OH226311   3.217   4.974  11.987 -0.1031  0.0598  0.5566
 1607TIP3    H126312   3.211   4.879  11.992 -0.1168  0.0433  0.2327
 1607TIP3    H226313   3.186   5.005  12.072 -0.4809 -0.2065  0.5161
 1608TIP3   OH226314   3.173   5.724  16.883  0.0157 -0.1556 -0.3415
 1608TIP3    H126315   3.191   5.645  16.833  1.0061  1.1671 -2.2309
 1608TIP3    H226316   3.113   5.697  16.952  1.5588 -2.8344  0.0648
 1609TIP3   OH226317   3.622   0.527  13.732  0.0758  0.2888 -0.4827
 1609TIP3    H126318   3.707   0.562  13.705 -0.3197  0.9471 -0.9056
 1609TIP3    H226319   3.568   0.605  13.747  0.1740 -0.0331  1.9493
 1610TIP3   OH226320   2.073   0.399  14.641  0.0224  0.8730 -0.5996
 1610TIP3    H126321   2.149   0.410  14.584  0.5289 -1.7284 -0.5356
 1610TIP3    H226322   2.093   0.454  14.718  1.4250  0.9221 -0.9691
 1611TIP3   OH226323   5.416   4.399   4.744 -0.5487  0.3416  0.4969
 1611TIP3    H126324   5.509   4.406   4.765  0.3341 -2.2689 -1.9379
 1611TIP3    H226325   5.374   4.388   4.829  1.6450 -0.5820  1.5528
 1612TIP3   OH226326   6.317   1.843   0.806 -0.0167 -0.1561  0.0427
 1612TIP3    H126327   6.325   1.885   0.720 -3.1444 -1.2468 -0.8791
 1612TIP3    H226328   6.374   1.766   0.800  1.5180  0.9396 -0.1839
 1613TIP3   OH226329   1.988   5.964   4.399 -0.3241  0.2706  0.2465
 1613TIP3    H126330   2.011   5.926   4.484  0.7117 -1.1776 -0.6558
 1613TIP3    H226331   2.041   5.917   4.336 -1.5754  0.8541 -1.3038
 1614TIP3   OH226332   5.825   1.968   5.084  0.4363  0.0918 -0.0874
 1614TIP3    H126333   5.898   2.026   5.106  0.0319  1.4301 -2.0572
 1614TIP3    H226334   5.851   1.926   5.002  0.7098 -2.6037  1.2445
 1615TIP3   OH226335   5.285   1.981  16.886  0.0972  0.0413  0.8654
 1615TIP3    H126336   5.218   1.915  16.869  0.1979 -0.4934  2.4299
 1615TIP3    H226337   5.343   1.940  16.950  1.5891  0.7200  0.0101
 1616TIP3   OH226338   6.605   4.664  13.588 -0.4473 -0.2755  0.5698
 1616TIP3    H126339   6.677   4.709  13.633  0.3165 -0.5673 -0.3261
 1616TIP3    H226340   6.527   4.714  13.612 -0.1878 -0.7893  2.7241
 1617TIP3   OH226341   1.467   4.760   4.610 -0.1464  0.3363  0.1931
 1617TIP3    H126342   1.550   4.714   4.622  0.0393 -0.0415 -2.1341
 1617TIP3    H226343   1.402   4.700   4.645  0.4407  0.1000  0.9188
 1618TIP3   OH226344   5.400   5.906   2.396 -0.0246  0.1406  0.1373
 1618TIP3    H126345   5.389   5.828   2.341 -0.7129  0.8010 -0.6900
 1618TIP3    H226346   5.337   5.894   2.467 -0.5370  0.1899 -0.2956
 1619TIP3   OH226347   6.082   2.970  14.630 -0.1205  0.2105  0.7340
 1619TIP3    H126348   6.131   2.889  14.620  0.5822  0.5900  0.9746
 1619TIP3    H226349   5.994   2.950  14.598  0.1021 -0.5799  0.6000
 1620TIP3   OH226350   4.668   0.985   4.793 -0.2399  0.3572  0.1230
 1620TIP3    H126351   4.632   0.957   4.709 -0.8510 -3.0563  1.3566
 1620TIP3    H226352   4.757   0.949   4.794 -0.2474  0.3310  0.9031
 1621TIP3   OH226353   3.577   1.921   2.975  0.1179  0.0599  0.2242
 1621TIP3    H126354   3.510   1.853   2.969  1.8885 -1.7311 -0.4493
 1621TIP3    H226355   3.528   2.003   2.985 -2.1777 -1.0364 -1.2664
 1622TIP3   OH226356   4.482   4.435   2.533  0.3520  0.1994 -0.0574
 1622TIP3    H126357   4.482   4.428   2.437  1.4225 -1.1586  0.0127
 1622TIP3    H226358   4.424   4.364   2.562 -1.0368  1.4153  0.3082
 1623TIP3   OH226359   0.692   6.227   4.822 -0.7368  0.4843 -0.0710
 1623TIP3    H126360   0.719   6.272   4.742  0.7411 -0.1133  0.0633
 1623TIP3    H226361   0.657   6.143   4.792 -1.2588  0.7237 -0.1513
 1624TIP3   OH226362   6.428   5.835   4.315  0.2104  0.2463 -0.1045
 1624TIP3    H126363   6.377   5.906   4.276 -2.4097 -0.3985  1.8445
 1624TIP3    H226364   6.370   5.759   4.310  1.4361 -0.8295  1.2077
 1625TIP3   OH226365   1.417   3.024  11.958  0.6439  0.0821 -0.2211
 1625TIP3    H126366   1.458   3.053  12.040  0.3754  0.8797 -0.3628
 1625TIP3    H226367   1.453   3.083  11.891 -0.4724  0.5843 -0.4036
 1626TIP3   OH226368   2.942   3.998   4.743 -0.1591 -0.4110 -0.9655
 1626TIP3    H126369   3.030   3.960   4.749 -0.5881 -1.2279  0.6475
 1626TIP3    H226370   2.902   3.980   4.828 -1.5110  0.9226 -1.2739
 1627TIP3   OH226371   4.205   3.140  12.996  0.0331 -0.4464  0.3495
 1627TIP3    H126372   4.230   3.232  12.986  2.2232 -0.9735  0.6244
 1627TIP3    H226373   4.244   3.096  12.920 -1.2137 -1.1510  0.0800
 1628TIP3   OH226374   3.958   6.556   5.521 -0.7992 -0.1368  0.5451
 1628TIP3    H126375   3.961   6.556   5.616 -1.6334  1.0805  0.5887
 1628TIP3    H226376   3.869   6.582   5.499 -0.1285  1.4074 -0.5561
 1629TIP3   OH226377   1.891   0.531   5.727  0.6653 -0.5849  0.4674
 1629TIP3    H126378   1.975   0.508   5.766  0.9046 -0.2097  0.1849
 1629TIP3    H226379   1.838   0.562   5.800  0.7089 -0.9851  0.6740
 1630TIP3   OH226380   4.312   4.468   1.124 -0.2234 -0.0477 -0.5987
 1630TIP3    H126381   4.265   4.540   1.084  0.2550  0.5652 -0.0756
 1630TIP3    H226382   4.300   4.481   1.219 -1.3779 -1.4899 -0.5137
 1631TIP3   OH226383   6.020   1.423   1.987  0.2535  0.3847  0.1965
 1631TIP3    H126384   6.088   1.419   2.055 -0.0622 -0.4261  0.4686
 1631TIP3    H226385   5.997   1.516   1.983  0.5803  0.5064  0.8964
 1632TIP3   OH226386   2.604   6.439  14.747  0.1588  0.4472 -0.2311
 1632TIP3    H126387   2.625   6.495  14.822  2.0367 -0.8687  0.3091
 1632TIP3    H226388   2.676   6.375  14.744  0.5007  0.7965 -3.5023
 1633TIP3   OH226389   3.010   5.564  13.990  0.3613  0.3112  0.3302
 1633TIP3    H126390   3.081   5.582  13.928 -1.4668 -0.8469 -2.2705
 1633TIP3    H226391   2.969   5.649  14.004  0.6648  0.5647 -0.2468
 1634TIP3   OH226392   4.991   2.466  15.271 -0.3897 -0.2108 -0.7896
 1634TIP3    H126393   5.058   2.407  15.235 -1.1615 -0.5123 -1.7853
 1634TIP3    H226394   5.040   2.539  15.307  0.5584 -1.1218 -0.1694
 1635TIP3   OH226395   1.947   4.940  15.983  0.0474  0.1281 -0.1302
 1635TIP3    H126396   1.901   5.015  16.019 -0.0094  0.1586 -0.2669
 1635TIP3    H226397   1.994   4.975  15.907  0.2347  0.0819 -0.0361
 1636TIP3   OH226398   1.779   3.947  16.712  0.1912 -0.3466  0.2941
 1636TIP3    H126399   1.755   3.978  16.799  1.1165 -1.1693  0.8596
 1636TIP3    H226400   1.711   3.884  16.690 -0.8297  0.8887 -0.2010
 1637TIP3   OH226401   3.566   3.405   4.537 -0.7932  0.0587  0.0920
 1637TIP3    H126402   3.563   3.498   4.559  0.2039  0.5095 -1.5509
 1637TIP3    H226403   3.545   3.360   4.619  2.3734  1.6227  1.9226
 1638TIP3   OH226404   3.181   3.303   5.057  0.5253 -0.2951 -0.7595
 1638TIP3    H126405   3.187   3.365   4.984 -0.1518  0.8133  0.0866
 1638TIP3    H226406   3.244   3.337   5.122 -0.1617 -0.2310 -0.1122
 1639TIP3   OH226407   4.383   2.902  14.581  0.2882 -0.0912  0.2266
 1639TIP3    H126408   4.303   2.930  14.624 -1.5122 -1.7960 -1.7767
 1639TIP3    H226409   4.440   2.979  14.582 -1.2385  1.0823  1.9343
 1640TIP3   OH226410   1.324   4.534  13.900 -0.2912 -0.2329  0.3102
 1640TIP3    H126411   1.318   4.583  13.982 -0.3347 -0.2895  0.3413
 1640TIP3    H226412   1.292   4.594  13.833 -2.9570 -1.0923  0.6883
 1641TIP3   OH226413   6.358   6.128  14.936 -0.2000  0.3996  0.3810
 1641TIP3    H126414   6.288   6.177  14.979 -0.4210  0.1002  0.3666
 1641TIP3    H226415   6.314   6.051  14.900  0.1187  0.2654  0.2807
 1642TIP3   OH226416   2.460   4.047  14.295 -0.3007  0.5348 -0.0302
 1642TIP3    H126417   2.454   4.079  14.385  2.0168 -1.7813  1.1159
 1642TIP3    H226418   2.443   3.953  14.302  0.1037  0.2678 -1.9676
 1643TIP3   OH226419   0.144   3.847  16.804 -0.2623 -0.0547 -0.9418
 1643TIP3    H126420   0.097   3.808  16.730  0.5422  0.6639 -1.8633
 1643TIP3    H226421   0.236   3.841  16.779  0.1145 -0.8372  0.5351
 1644TIP3   OH226422   4.847   2.693   2.917 -0.4334 -0.8802 -0.6081
 1644TIP3    H126423   4.803   2.689   3.002 -1.3440 -1.5850 -1.1058
 1644TIP3    H226424   4.896   2.611   2.911 -0.8688 -1.1085 -1.0340
 1645TIP3   OH226425   3.168   3.593  13.500 -0.1101  0.4260  0.1787
 1645TIP3    H126426   3.128   3.679  13.515 -0.4288  0.3372 -0.1557
 1645TIP3    H226427   3.117   3.534  13.555 -0.9663  0.1811 -0.8304
 1646TIP3   OH226428   4.002   3.362  15.833 -0.7277 -0.2458  0.1840
 1646TIP3    H126429   3.984   3.385  15.742  2.2714  3.8780  0.3679
 1646TIP3    H226430   4.039   3.274  15.828 -0.2196  0.0093 -2.6848
 1647TIP3   OH226431   0.182   2.061   5.893  0.8089  0.3666 -0.5109
 1647TIP3    H126432   0.169   2.003   5.968 -0.5924 -0.8950 -1.6674
 1647TIP3    H226433   0.193   2.148   5.931 -1.7789  0.0729  1.1113
 1648TIP3   OH226434   1.690   5.855  15.488 -0.4236  0.0193 -0.0351
 1648TIP3    H126435   1.698   5.897  15.574  1.1571  2.2217 -1.1623
 1648TIP3    H226436   1.595   5.851  15.472 -0.8566 -1.9344  2.4087
 1649TIP3   OH226437   2.119   0.185  12.298 -0.1275  0.3848  0.3333
 1649TIP3    H126438   2.112   0.107  12.243  1.2456  1.0827 -0.8907
 1649TIP3    H226439   2.129   0.151  12.387 -1.6670 -0.7771  0.1054
 1650TIP3   OH226440   2.673   4.366   4.183 -0.2461  0.0389  0.2256
 1650TIP3    H126441   2.686   4.378   4.278  0.9056 -0.4391  0.1489
 1650TIP3    H226442   2.678   4.271   4.170  1.2681  0.1904 -0.5126
 1651TIP3   OH226443   6.684   0.044  15.758  0.4824  0.6334  0.0695
 1651TIP3    H126444   6.718   0.066  15.672  0.5864 -0.1396 -0.0936
 1651TIP3    H226445   6.755  -0.002  15.802 -0.6946 -2.2188 -0.7666
 1652TIP3   OH226446   6.779   0.870  16.026  0.0444 -0.3557  0.1520
 1652TIP3    H126447   6.750   0.961  16.017 -0.5368 -0.6765 -1.5870
 1652TIP3    H226448   6.802   0.861  16.119 -0.7134  1.3196  0.5361
 1653TIP3   OH226449   3.783   3.149   1.683  0.2093  0.1049  0.5376
 1653TIP3    H126450   3.780   3.122   1.774 -1.4831 -0.8822  0.2148
 1653TIP3    H226451   3.849   3.219   1.681 -1.9982  2.5009  3.1508
 1654TIP3   OH226452   1.965   0.066  14.049 -0.4783 -0.0865 -0.0484
 1654TIP3    H126453   1.884   0.065  13.998 -0.7199  0.4043  0.3115
 1654TIP3    H226454   1.972   0.156  14.081  0.3309 -0.0654 -0.2644
 1655TIP3   OH226455   1.767   1.840   5.965  0.0447  0.6027 -0.6409
 1655TIP3    H126456   1.812   1.861   5.883 -0.8838 -0.0267 -1.3407
 1655TIP3    H226457   1.771   1.744   5.971  1.1910  0.7123  0.7073
 1656TIP3   OH226458   3.848   2.548   6.243  0.1343  0.2677 -0.1365
 1656TIP3    H126459   3.841   2.558   6.338 -1.6746 -2.6868  0.1747
 1656TIP3    H226460   3.928   2.498   6.230 -0.4759 -0.7993  0.0514
 1657TIP3   OH226461   2.807   1.323   0.496 -0.0381 -0.1688 -0.2789
 1657TIP3    H126462   2.836   1.236   0.467  1.0646 -0.0670  0.4455
 1657TIP3    H226463   2.736   1.305   0.557  0.1034 -0.5597 -0.2232
 1658TIP3   OH226464   5.016   1.083  13.703 -0.0893 -0.0283 -0.0208
 1658TIP3    H126465   4.984   1.077  13.613 -0.0129 -1.7266  0.0302
 1658TIP3    H226466   4.958   1.146  13.745 -2.7447 -2.1334 -0.2295
 1659TIP3   OH226467   4.094   6.148  13.956 -0.7799  0.4028 -0.3074
 1659TIP3    H126468   4.142   6.202  13.894  0.3020 -1.1987 -0.9249
 1659TIP3    H226469   4.153   6.075  13.974 -1.9296 -0.2336  1.0049
 1660TIP3   OH226470   0.805   0.818  14.474 -0.4666 -0.1799 -0.4227
 1660TIP3    H126471   0.890   0.844  14.439  0.9227 -0.6084  2.3833
 1660TIP3    H226472   0.780   0.742  14.422  0.8112 -0.0283 -1.3124
 1661TIP3   OH226473   3.190   4.786  17.132 -0.1584 -0.3008  0.3851
 1661TIP3    H126474   3.215   4.848  17.201  1.9617 -0.9968  0.2993
 1661TIP3    H226475   3.217   4.828  17.051  1.2664 -1.2930  0.3254
 1662TIP3   OH226476   2.939   3.017  15.135  0.1601  0.1516  0.0094
 1662TIP3    H126477   2.943   3.112  15.137  0.8156  0.1999 -1.8420
 1662TIP3    H226478   3.023   2.988  15.172  0.4334  0.3289 -0.4621
 1663TIP3   OH226479   4.811   6.217   3.698  0.0129  0.2904 -0.1896
 1663TIP3    H126480   4.765   6.176   3.772  0.5689  0.5603  0.3185
 1663TIP3    H226481   4.741   6.256   3.645 -0.3576  0.7306  0.5981
 1664TIP3   OH226482   4.413   4.716   0.327 -0.0491 -0.1561 -0.2306
 1664TIP3    H126483   4.425   4.798   0.374 -1.1601  0.5019 -1.0376
 1664TIP3    H226484   4.440   4.648   0.389  0.8827  0.7987  0.4512
 1665TIP3   OH226485   2.896   0.608  15.428  0.4501  0.1743  0.4812
 1665TIP3    H126486   2.975   0.582  15.475 -0.1949 -3.8863 -0.3391
 1665TIP3    H226487   2.929   0.643  15.345  1.3866  0.0889  0.8025
 1666TIP3   OH226488   5.025   5.533  14.904  0.2174 -0.0607  0.3961
 1666TIP3    H126489   5.063   5.596  14.966 -0.4023  1.5666 -0.7894
 1666TIP3    H226490   5.060   5.560  14.819 -1.5468 -0.1274 -0.3881
 1667TIP3   OH226491   5.235   2.236   4.565 -0.1441  0.1565  0.3080
 1667TIP3    H126492   5.261   2.153   4.524 -0.4903 -0.3288  1.0296
 1667TIP3    H226493   5.139   2.231   4.568 -0.1426  0.3767  0.7683
 1668TIP3   OH226494   1.805   5.175  16.048 -0.4797  0.1126 -0.7159
 1668TIP3    H126495   1.828   5.231  15.974 -1.5113 -0.0579 -1.1843
 1668TIP3    H226496   1.713   5.194  16.064 -0.2430  0.2113  0.5968
 1669TIP3   OH226497   5.518   6.077   6.291 -0.2447  0.4076  0.0777
 1669TIP3    H126498   5.597   6.130   6.306  0.3688 -0.3383 -0.4928
 1669TIP3    H226499   5.446   6.140   6.300  0.2391  0.7145  2.7262
 1670TIP3   OH226500   3.560   0.525  13.451 -0.5870  0.0729  0.3036
 1670TIP3    H126501   3.475   0.569  13.449 -0.5873  0.1029 -1.8791
 1670TIP3    H226502   3.617   0.583  13.401  0.0057 -1.2419 -0.5785
 1671TIP3   OH226503   4.546   0.760  12.217 -0.3904 -0.0150 -0.1821
 1671TIP3    H126504   4.557   0.693  12.149  2.2014  0.0008  0.1457
 1671TIP3    H226505   4.571   0.716  12.298 -0.4201  0.8394  0.2958
 1672TIP3   OH226506   4.951   1.762  17.263 -0.0067  0.0047 -0.3572
 1672TIP3    H126507   4.968   1.850  17.295 -0.0989 -0.2401  0.3864
 1672TIP3    H226508   5.022   1.744  17.201  0.1028  0.5341 -0.3854
 1673TIP3   OH226509   0.452   4.780  11.731  0.3690 -0.6348 -0.5893
 1673TIP3    H126510   0.483   4.696  11.765 -1.3294 -1.1366 -0.2228
 1673TIP3    H226511   0.488   4.845  11.792 -0.9145 -1.3564  1.0013
 1674TIP3   OH226512   4.472   4.695   3.840 -0.9551  0.8360  0.0292
 1674TIP3    H126513   4.389   4.738   3.821 -2.0132 -0.9154  0.4554
 1674TIP3    H226514   4.449   4.603   3.855  1.3601 -0.3464 -2.6010
 1675TIP3   OH226515   5.418   1.945  14.312 -0.0054  0.2916  0.3206
 1675TIP3    H126516   5.442   2.036  14.298  2.4091 -0.4080 -0.5313
 1675TIP3    H226517   5.489   1.909  14.364 -0.2056 -1.4452 -0.5473
 1676TIP3   OH226518   6.456   4.986   6.413 -0.4168  0.0403  0.3611
 1676TIP3    H126519   6.538   4.995   6.462 -0.3570 -1.2039  0.5105
 1676TIP3    H226520   6.420   5.075   6.410  1.7119  0.9213 -1.1033
 1677TIP3   OH226521   4.875   1.902  11.603 -1.2149 -0.0623 -0.7541
 1677TIP3    H126522   4.871   1.964  11.530 -2.3612  1.1119  0.2641
 1677TIP3    H226523   4.814   1.833  11.579 -2.0327  0.6157 -0.6594
 1678TIP3   OH226524   1.091   2.572  13.869  0.1873 -0.1438 -0.6149
 1678TIP3    H126525   1.104   2.501  13.807  1.3896 -0.5672  0.0835
 1678TIP3    H226526   1.066   2.529  13.951  1.4216  0.1728 -0.0468
 1679TIP3   OH226527   3.583   1.146  12.956  0.0036 -0.4989 -0.1133
 1679TIP3    H126528   3.638   1.216  12.919  1.3585 -2.1042 -1.2511
 1679TIP3    H226529   3.624   1.065  12.928 -1.7438 -1.7989  0.8646
 1680TIP3   OH226530   1.469   5.832  11.463 -0.3594  0.3381  0.9599
 1680TIP3    H126531   1.464   5.744  11.501 -1.2439  0.6750  1.6554
 1680TIP3    H226532   1.562   5.843  11.441 -0.0772 -0.4168  1.7196
 1681TIP3   OH226533   4.258   4.668   2.395  0.6015 -0.0648  0.0894
 1681TIP3    H126534   4.204   4.699   2.322 -0.2874 -1.8081 -0.0402
 1681TIP3    H226535   4.343   4.709   2.380 -0.1256  1.2455 -0.7587
 1682TIP3   OH226536   2.200   4.481  17.257 -0.0465  0.0413  0.0420
 1682TIP3    H126537   2.195   4.574  17.238  0.4653  0.4949  2.0316
 1682TIP3    H226538   2.291   4.457  17.240 -0.7104 -0.7955 -3.1646
 1683TIP3   OH226539   0.625   4.770   3.157  0.0424  0.6947 -0.0401
 1683TIP3    H126540   0.590   4.683   3.177  0.0241  0.1346 -2.2954
 1683TIP3    H226541   0.548   4.827   3.159 -0.4473  0.1196 -1.3448
 1684TIP3   OH226542   2.684   0.534   4.310  0.6341 -0.4654 -0.2063
 1684TIP3    H126543   2.748   0.500   4.247  0.7009 -1.8152  0.5523
 1684TIP3    H226544   2.599   0.521   4.268  0.6866 -1.2457 -0.0864
 1685TIP3   OH226545   4.477   1.217  13.196 -0.1507  0.4720  0.0606
 1685TIP3    H126546   4.563   1.258  13.200  0.5149 -0.9446  1.9702
 1685TIP3    H226547   4.431   1.253  13.272 -2.1378  2.8599 -2.0776
 1686TIP3   OH226548   0.567   2.839   1.424 -0.3186 -0.2979 -0.7249
 1686TIP3    H126549   0.605   2.782   1.491 -1.1464 -0.3321 -0.2735
 1686TIP3    H226550   0.533   2.914   1.472 -0.7248 -0.2165 -1.1260
 1687TIP3   OH226551   3.050   2.878  11.371 -0.2214  0.0941 -1.1537
 1687TIP3    H126552   3.012   2.925  11.297 -1.0108  1.8658  0.3003
 1687TIP3    H226553   3.134   2.921  11.386  0.0685 -0.4528 -1.1818
 1688TIP3   OH226554   1.481   5.449  11.199 -0.5164  0.2028 -0.6741
 1688TIP3    H126555   1.390   5.436  11.175 -0.2265  0.0143 -1.7438
 1688TIP3    H226556   1.480   5.463  11.293 -1.7003  0.7395 -0.7559
 1689TIP3   OH226557   4.021   3.378  11.616 -0.1270 -0.0218  0.7885
 1689TIP3    H126558   4.022   3.296  11.565 -1.7634 -0.0997  0.8177
 1689TIP3    H226559   3.982   3.442  11.556 -3.1377 -0.3650  2.1780
 1690TIP3   OH226560   4.535   2.284   0.039  0.1154 -0.2666  0.2264
 1690TIP3    H126561   4.569   2.245   0.119 -1.4880 -0.1614  0.9822
 1690TIP3    H226562   4.486   2.214  -0.004 -1.8770  0.5546  1.0613
 1691TIP3   OH226563   4.033   1.602   5.617 -0.2080  0.0199 -0.4099
 1691TIP3    H126564   4.007   1.578   5.706 -0.8771 -2.7223 -1.2504
 1691TIP3    H226565   4.120   1.641   5.627  0.0888 -0.9777  1.3858
 1692TIP3   OH226566   6.676   0.339  12.702  0.1639  0.1570 -1.0678
 1692TIP3    H126567   6.613   0.308  12.767  0.1062  2.0327 -0.1848
 1692TIP3    H226568   6.660   0.433  12.695  1.4615  0.3126 -2.3952
 1693TIP3   OH226569   4.917   2.722  12.364 -0.4277  0.7442  0.0805
 1693TIP3    H126570   5.010   2.746  12.368 -0.6224  1.4969  0.2926
 1693TIP3    H226571   4.916   2.628  12.380  0.3510  0.6166 -0.5303
 1694TIP3   OH226572   2.553   0.171   0.791  0.3188 -0.0174 -0.1495
 1694TIP3    H126573   2.579   0.082   0.815 -0.3477 -0.3032 -0.4717
 1694TIP3    H226574   2.511   0.205   0.870  2.3841  0.7602  0.6774
 1695TIP3   OH226575   4.861   0.573   4.002 -0.3632  0.5170 -0.3250
 1695TIP3    H126576   4.802   0.544   3.933  0.3404  1.1035 -1.2025
 1695TIP3    H226577   4.918   0.637   3.959  1.8213 -1.0310  0.1277
 1696TIP3   OH226578   2.796   3.248   2.261  0.0072 -0.1396  0.0703
 1696TIP3    H126579   2.809   3.303   2.184 -1.3529 -0.8876 -0.7365
 1696TIP3    H226580   2.796   3.158   2.226 -1.4083 -0.4513  0.8034
 1697TIP3   OH226581   0.368   5.540  17.015 -0.3347 -0.3071 -0.3120
 1697TIP3    H126582   0.336   5.479  16.948  0.2836 -1.1735  0.1661
 1697TIP3    H226583   0.463   5.544  17.001 -0.0947 -1.0885  0.9800
 1698TIP3   OH226584   4.860   1.991  13.500  0.5768  0.3588 -0.3792
 1698TIP3    H126585   4.874   1.990  13.406  2.1708  0.1651 -0.1662
 1698TIP3    H226586   4.837   2.082  13.520 -0.3932  0.2682 -1.0136
 1699TIP3   OH226587   1.732   0.611  11.058 -0.3513  0.4936  0.3105
 1699TIP3    H126588   1.818   0.613  11.014 -0.8819  0.4732 -0.7699
 1699TIP3    H226589   1.693   0.695  11.036 -0.7591  0.3524  0.4943
 1700TIP3   OH226590   0.076   5.068   4.964  0.1917 -0.4882  0.1784
 1700TIP3    H126591   0.055   5.004   4.896 -0.1575  0.3260 -0.5007
 1700TIP3    H226592   0.146   5.028   5.015 -0.8469 -1.9469  0.5415
 1701TIP3   OH226593   2.202   0.618   6.412 -0.1385  0.3236  0.0592
 1701TIP3    H126594   2.197   0.706   6.376 -0.2080  1.2506  2.1881
 1701TIP3    H226595   2.180   0.561   6.338  1.8647  1.9153 -1.9113
 1702TIP3   OH226596   0.825   0.514   5.749  0.3220 -0.5961  0.5270
 1702TIP3    H126597   0.780   0.598   5.741 -1.4849 -0.9523  4.6257
 1702TIP3    H226598   0.781   0.457   5.686 -0.7370  0.6737  0.0747
 1703TIP3   OH226599   6.134   1.035   3.969  0.6011 -0.2173  0.1111
 1703TIP3    H126600   6.103   0.978   4.040  1.9239 -0.6484  0.3597
 1703TIP3    H226601   6.222   1.004   3.950  1.2008  1.4995 -0.0371
 1704TIP3   OH226602   3.583   1.491   1.103 -0.2670  0.5440  0.3305
 1704TIP3    H126603   3.501   1.541   1.106 -0.0426  1.0408 -0.9037
 1704TIP3    H226604   3.556   1.401   1.089 -0.6089  0.7803 -0.6141
 1705TIP3   OH226605   5.060   3.390  15.506 -0.1640  0.3252 -0.2567
 1705TIP3    H126606   5.121   3.390  15.433  2.4147 -2.7193  1.6555
 1705TIP3    H226607   5.059   3.481  15.537  2.9106  0.6391 -0.8090
 1706TIP3   OH226608   2.920   5.383   3.587  0.4959 -0.5397 -0.4332
 1706TIP3    H126609   2.906   5.433   3.507  1.4195  1.7712  0.7692
 1706TIP3    H226610   2.998   5.330   3.569  1.9755  1.5246 -0.4471
 1707TIP3   OH226611   5.092   3.737  16.877 -0.3677 -0.1872  0.0693
 1707TIP3    H126612   5.131   3.656  16.909  0.0503  0.2105  0.5838
 1707TIP3    H226613   5.110   3.737  16.783 -0.4084 -0.7079  0.0576
 1708TIP3   OH226614   4.973   6.524  14.960  0.4377 -0.6616  0.5075
 1708TIP3    H126615   4.940   6.447  15.005  0.6085 -0.5257  0.8675
 1708TIP3    H226616   4.932   6.521  14.873  0.3516 -1.0893  0.5628
 1709TIP3   OH226617   3.605   1.649   1.665 -0.1501 -0.1840  0.3363
 1709TIP3    H126618   3.569   1.590   1.599 -2.2808  0.4997  0.8225
 1709TIP3    H226619   3.584   1.737   1.634 -3.1721  0.1497  2.7956
 1710TIP3   OH226620   5.409   1.394  13.256 -0.5125 -0.1421 -0.1848
 1710TIP3    H126621   5.389   1.396  13.162  1.3527 -1.4467 -0.6721
 1710TIP3    H226622   5.485   1.452  13.265  1.2457 -2.3191 -0.0947
 1711TIP3   OH226623   3.150   2.488  15.447  0.2085 -0.6694 -0.6989
 1711TIP3    H126624   3.212   2.536  15.391  1.6193 -1.5819  0.0306
 1711TIP3    H226625   3.205   2.435  15.503 -1.2931 -2.8094 -1.1481
 1712TIP3   OH226626   6.111   5.591  14.007  0.4638  0.1324 -1.0966
 1712TIP3    H126627   6.124   5.515  14.063 -4.1269 -0.2807 -0.2548
 1712TIP3    H226628   6.160   5.661  14.050  0.3010 -1.0819  1.1942
 1713TIP3   OH226629   2.388   4.266  11.310  0.2695  0.2193 -0.7396
 1713TIP3    H126630   2.411   4.269  11.403 -1.1868  0.2606 -0.3571
 1713TIP3    H226631   2.407   4.176  11.283  0.0096  0.0016 -0.2116
 1714TIP3   OH226632   2.242   5.317   5.462  0.3296 -0.1500  0.7848
 1714TIP3    H126633   2.187   5.247   5.426 -1.1677  0.2788  2.0911
 1714TIP3    H226634   2.308   5.271   5.514  0.2870 -0.6462  0.4038
 1715TIP3   OH226635   5.898   1.735   0.905 -0.0199 -0.2581  0.0294
 1715TIP3    H126636   5.899   1.642   0.931  2.2628 -0.1975  0.4340
 1715TIP3    H226637   5.913   1.733   0.811 -1.8300 -0.3184 -0.2792
 1716TIP3   OH226638   3.120   5.889  13.825 -0.3043  0.1718  0.1384
 1716TIP3    H126639   3.185   5.920  13.889  0.2260 -0.7774  0.0884
 1716TIP3    H226640   3.142   5.797  13.813 -1.4697 -0.0765 -0.1397
 1717TIP3   OH226641   2.267   4.426  14.936 -0.0130 -0.2068 -0.6941
 1717TIP3    H126642   2.317   4.424  15.017  0.2052  0.0878 -0.8200
 1717TIP3    H226643   2.177   4.440  14.964 -0.0696 -0.9943 -0.4526
 1718TIP3   OH226644   5.589   6.414  12.069 -0.4307  0.2797 -0.3171
 1718TIP3    H126645   5.612   6.454  11.985 -0.5832  0.9841 -0.0344
 1718TIP3    H226646   5.566   6.324  12.048 -0.6368  0.5010 -1.0570
 1719TIP3   OH226647   0.120   5.632   0.903  0.9998  0.2171  0.3647
 1719TIP3    H126648   0.096   5.690   0.975 -0.9857  0.4317 -0.3994
 1719TIP3    H226649   0.105   5.684   0.824  1.2621 -0.6376 -0.2616
 1720TIP3   OH226650   2.526   5.502  14.697  0.1434 -0.4825 -0.0461
 1720TIP3    H126651   2.563   5.417  14.721  2.4200  0.2645 -0.6369
 1720TIP3    H226652   2.507   5.544  14.780  1.2318 -0.6893  0.3325
 1721TIP3   OH226653   0.352   6.202  11.054 -0.4312 -0.2720 -0.6357
 1721TIP3    H126654   0.436   6.161  11.076 -0.8181 -0.0908  1.2742
 1721TIP3    H226655   0.326   6.160  10.972  0.8229 -1.3639 -0.5083
 1722TIP3   OH226656   1.339   4.438  10.997  0.3711  0.2476 -0.2723
 1722TIP3    H126657   1.260   4.470  11.040 -0.8033  1.2990 -2.9531
 1722TIP3    H226658   1.409   4.452  11.060 -1.7660 -2.8618  3.1496
 1723TIP3   OH226659   1.544   3.989   3.814 -0.1938  0.4014 -0.0036
 1723TIP3    H126660   1.563   3.936   3.737 -3.6560 -0.1477 -0.6630
 1723TIP3    H226661   1.618   3.975   3.873 -0.1054 -3.8575 -0.8399
 1724TIP3   OH226662   4.504   1.186   6.098  0.0470  0.1291 -0.0264
 1724TIP3    H126663   4.481   1.245   6.026 -1.2219 -1.9415 -1.4381
 1724TIP3    H226664   4.587   1.147   6.071 -0.2192 -0.3382 -0.1769
 1725TIP3   OH226665   1.654   0.489   4.464  0.4677  0.0715 -0.6503
 1725TIP3    H126666   1.575   0.533   4.497  0.0616 -0.9768 -0.2103
 1725TIP3    H226667   1.718   0.499   4.534  0.5706  0.4760 -0.7976
 1726TIP3   OH226668   4.040   2.875  12.493  0.4328  0.4721  0.5136
 1726TIP3    H126669   3.994   2.887  12.410 -1.4892 -1.3672  1.2072
 1726TIP3    H226670   4.016   2.952  12.545 -0.7994  0.2170  0.3601
 1727TIP3   OH226671   3.810   1.323   1.682 -0.1396 -0.0666 -1.4221
 1727TIP3    H126672   3.717   1.302   1.675 -0.4967  0.0451  1.7038
 1727TIP3    H226673   3.854   1.238   1.678 -0.6462 -0.4125  0.0543
 1728TIP3   OH226674   0.788   2.802  13.570  0.0396 -0.4437 -0.2535
 1728TIP3    H126675   0.727   2.776  13.501  0.3842 -1.1628 -0.2992
 1728TIP3    H226676   0.870   2.757  13.547  0.0319 -1.0716  0.8745
 1729TIP3   OH226677   1.491   1.701  14.888  0.1955  0.0429 -0.4279
 1729TIP3    H126678   1.421   1.695  14.953  1.1091 -1.4673  0.4896
 1729TIP3    H226679   1.571   1.710  14.940  0.6950  2.2751 -1.4590
 1730TIP3   OH226680   2.790   1.858   5.013  0.3417 -0.1958  0.2179
 1730TIP3    H126681   2.695   1.869   5.020 -0.1696 -0.9475 -3.5235
 1730TIP3    H226682   2.822   1.945   4.989  0.3895 -0.3030 -0.1029
 1731TIP3   OH226683   1.052   6.019  15.784  0.5025  0.6818 -0.1250
 1731TIP3    H126684   1.123   5.956  15.798  0.8666  0.3545 -2.8942
 1731TIP3    H226685   0.972   5.967  15.787  0.4661  0.7664  1.2529
 1732TIP3   OH226686   6.100   4.867  15.113 -0.1609 -0.1653  0.1611
 1732TIP3    H126687   6.171   4.908  15.064 -0.1380 -1.6062 -1.0652
 1732TIP3    H226688   6.144   4.811  15.177 -0.1281 -1.7572 -1.1911
 1733TIP3   OH226689   4.435   6.591   5.402  0.0425  0.2531  0.3045
 1733TIP3    H126690   4.388   6.559   5.479  0.1772 -0.4292  0.1114
 1733TIP3    H226691   4.447   6.513   5.347  0.9166  0.5226  0.0985
 1734TIP3   OH226692   2.991   6.206   4.104 -0.6203 -0.7835 -0.0510
 1734TIP3    H126693   2.900   6.195   4.078 -0.6510  2.5397 -1.8005
 1734TIP3    H226694   2.993   6.287   4.154  1.5218 -0.1125 -1.0780
 1735TIP3   OH226695   3.519   2.483  12.132  0.3093  0.0611  0.0424
 1735TIP3    H126696   3.501   2.395  12.164 -0.5239  0.3903  0.5420
 1735TIP3    H226697   3.497   2.540  12.206 -1.7614  0.8591 -1.0984
 1736TIP3   OH226698   0.513   5.101   5.350 -0.4173  0.4825  0.7053
 1736TIP3    H126699   0.503   5.188   5.311  0.8830  0.1670 -0.4421
 1736TIP3    H226700   0.492   5.040   5.279  1.9998 -0.1145  0.4143
 1737TIP3   OH226701   3.805   2.758   2.365 -0.1648 -0.3738 -0.6040
 1737TIP3    H126702   3.782   2.784   2.454  0.7890  0.7115 -0.6372
 1737TIP3    H226703   3.806   2.663   2.366 -0.6777 -0.3748  0.4086
 1738TIP3   OH226704   2.173   1.159  15.332 -0.2186  0.2473 -0.4542
 1738TIP3    H126705   2.085   1.162  15.293  0.4560 -0.2590 -2.0877
 1738TIP3    H226706   2.225   1.218  15.278  0.9581 -1.1555 -0.8996
 1739TIP3   OH226707   2.178   6.000   2.775 -0.6325  0.2822  0.4833
 1739TIP3    H126708   2.114   5.941   2.814 -1.0879 -0.0676 -0.7680
 1739TIP3    H226709   2.178   5.979   2.682 -0.7292  2.1744  0.0085
 1740TIP3   OH226710   6.269   4.180  13.734  1.0937 -0.0575 -0.3586
 1740TIP3    H126711   6.180   4.148  13.751  1.2243  0.6722  1.9841
 1740TIP3    H226712   6.309   4.111  13.681 -0.1967 -1.4383  0.3738
 1741TIP3   OH226713   5.220   2.006  12.617 -0.4947  0.2997  0.6638
 1741TIP3    H126714   5.308   2.013  12.655 -0.5502 -0.3662  0.9168
 1741TIP3    H226715   5.163   1.983  12.690 -0.8353  0.4359  0.4428
 1742TIP3   OH226716   4.346   0.570  16.700  0.2497  0.2560  0.8418
 1742TIP3    H126717   4.369   0.558  16.608 -0.0450 -1.1193  0.9307
 1742TIP3    H226718   4.412   0.520  16.748 -1.8844 -2.4822  1.1729
 1743TIP3   OH226719   3.860   5.303  14.858 -0.2556  0.5921  0.1302
 1743TIP3    H126720   3.817   5.372  14.910 -1.3241  0.6888 -0.8275
 1743TIP3    H226721   3.878   5.345  14.774 -0.1193 -0.0431 -0.1638
 1744TIP3   OH226722   3.297   2.681   2.554 -0.2434 -0.6593 -0.5131
 1744TIP3    H126723   3.235   2.611   2.532 -0.8761  0.1024 -1.2328
 1744TIP3    H226724   3.306   2.731   2.473  0.5049 -0.1320 -0.1169
 1745TIP3   OH226725   6.709   1.237   3.481 -0.4676  0.1145  0.0301
 1745TIP3    H126726   6.779   1.267   3.539 -0.3182 -0.2216  0.0254
 1745TIP3    H226727   6.754   1.212   3.400 -0.5772 -0.2158  0.0693
 1746TIP3   OH226728   0.035   5.709   2.635 -0.6897 -0.2203 -0.1426
 1746TIP3    H126729  -0.003   5.621   2.628  0.2412 -0.5337 -3.3423
 1746TIP3    H226730  -0.032   5.767   2.600 -0.8042  0.1901  0.7382
 1747TIP3   OH226731   1.297   2.983  13.742 -0.6539 -0.1584 -0.4896
 1747TIP3    H126732   1.224   2.963  13.684 -0.0907 -1.4852 -0.7846
 1747TIP3    H226733   1.306   2.906  13.798  0.7974 -0.2435 -0.7828
 1748TIP3   OH226734   6.346   5.098  12.955  0.3310  0.3013  0.1456
 1748TIP3    H126735   6.432   5.137  12.937  0.5948 -0.2685  0.1248
 1748TIP3    H226736   6.300   5.101  12.871  0.6147 -0.0590 -0.0300
 1749TIP3   OH226737   0.444   1.941  16.181 -0.3522 -0.6030 -0.0664
 1749TIP3    H126738   0.427   1.854  16.216 -0.9883 -0.7015 -0.5866
 1749TIP3    H226739   0.439   1.999  16.257  0.5305 -1.0658  0.3529
 1750TIP3   OH226740   4.786   2.058  14.784  0.7530  0.3302 -0.1258
 1750TIP3    H126741   4.777   2.146  14.749 -0.3734  1.4813  2.7548
 1750TIP3    H226742   4.864   2.061  14.839  0.8579 -0.5345 -0.2099
 1751TIP3   OH226743   6.509   3.139  10.939 -0.5283 -0.3910  0.1706
 1751TIP3    H126744   6.509   3.133  10.844 -0.2187  0.5927  0.0916
 1751TIP3    H226745   6.424   3.177  10.961  0.0861  1.1110  0.1227
 1752TIP3   OH226746   3.284   5.345  15.521  0.3627  0.9867 -0.3489
 1752TIP3    H126747   3.193   5.315  15.515  0.9378 -1.5187  1.5955
 1752TIP3    H226748   3.284   5.432  15.482 -2.9454  1.2222 -0.0528
 1753TIP3   OH226749   4.754   6.162  13.503 -0.2502  0.6318  0.2283
 1753TIP3    H126750   4.669   6.134  13.539  0.4696 -0.9253  0.7965
 1753TIP3    H226751   4.799   6.202  13.577 -0.1108  0.5827  0.1696
 1754TIP3   OH226752   2.516   0.044  10.564  0.4187  0.4002  0.3445
 1754TIP3    H126753   2.473   0.126  10.539  1.2482  1.3144  1.7950
 1754TIP3    H226754   2.586   0.071  10.624 -0.7513 -1.5740  2.7144
 1755TIP3   OH226755   2.086   3.686   4.461 -0.6521  0.2942 -0.5087
 1755TIP3    H126756   2.160   3.637   4.426 -0.1680  1.2789 -0.9184
 1755TIP3    H226757   2.118   3.721   4.544 -1.0871 -0.3000 -0.0844
 1756TIP3   OH226758   5.522   4.984   1.950 -0.4389  0.0460  0.0321
 1756TIP3    H126759   5.554   4.895   1.966 -0.4833 -0.3374 -1.8245
 1756TIP3    H226760   5.597   5.040   1.968 -0.3010 -0.3833  0.8517
 1757TIP3   OH226761   4.456   1.433   3.962  0.1936 -0.3483 -0.1605
 1757TIP3    H126762   4.534   1.394   4.002  0.2726  0.1899  0.2263
 1757TIP3    H226763   4.490   1.497   3.900  0.0708 -1.2748 -1.2089
 1758TIP3   OH226764   0.031   3.739  10.742 -0.1600 -0.2737  0.4026
 1758TIP3    H126765  -0.060   3.757  10.716 -0.3178  0.4558  1.3966
 1758TIP3    H226766   0.026   3.721  10.836  0.5324 -1.8010  0.1697
 1759TIP3   OH226767   6.062   4.990  12.528  0.6800  0.0128 -0.1189
 1759TIP3    H126768   6.035   5.027  12.444  2.2764 -2.3971 -1.8459
 1759TIP3    H226769   6.029   4.900  12.527 -1.7070  0.6607  3.1876
 1760TIP3   OH226770   6.098   5.205   1.058  0.2629 -0.0659 -0.5461
 1760TIP3    H126771   6.025   5.143   1.054 -0.1279  0.3841 -0.4878
 1760TIP3    H226772   6.171   5.154   1.091 -0.9250  0.2994  3.0331
 1761TIP3   OH226773   0.298   3.631   2.294  0.0831  0.5282  0.4666
 1761TIP3    H126774   0.348   3.648   2.374 -0.6355  0.5242  0.9193
 1761TIP3    H226775   0.241   3.557   2.316  0.9307 -0.4654 -0.5120
 1762TIP3   OH226776   4.747   1.381   0.256 -0.0077  0.1294  0.5029
 1762TIP3    H126777   4.786   1.461   0.220  0.6017  0.1272  1.1446
 1762TIP3    H226778   4.802   1.311   0.222 -0.3305  0.0005  0.2323
 1763TIP3   OH226779   5.478   3.356  13.085  0.0627  0.3620  0.3556
 1763TIP3    H126780   5.489   3.290  13.152  0.4751  0.8927  0.8146
 1763TIP3    H226781   5.479   3.307  13.002 -1.4093 -0.4121  0.7574
 1764TIP3   OH226782   1.302   1.371   2.492  0.1571 -0.0158  0.5059
 1764TIP3    H126783   1.289   1.305   2.560  1.5343  0.9693  1.7996
 1764TIP3    H226784   1.291   1.324   2.409 -0.0165 -1.5987  1.4008
 1765TIP3   OH226785   2.175   1.531  13.068  0.2384 -0.3297  0.0194
 1765TIP3    H126786   2.207   1.555  13.155  0.6257  0.4608 -0.3295
 1765TIP3    H226787   2.252   1.536  13.012  0.1204 -1.4353 -0.2663
 1766TIP3   OH226788   4.226   0.667  14.071  0.1834 -0.1269  1.0398
 1766TIP3    H126789   4.311   0.685  14.031  0.3922 -0.1996  1.4422
 1766TIP3    H226790   4.202   0.581  14.038  0.2961 -0.1334  0.9714
 1767TIP3   OH226791   2.941   3.174  16.452 -0.0550 -0.0623 -0.2382
 1767TIP3    H126792   2.982   3.256  16.480  0.2239  0.1516 -1.2469
 1767TIP3    H226793   2.851   3.199  16.429 -0.4171 -0.3150  0.8110
 1768TIP3   OH226794   2.026   4.125  15.542  0.2846  0.0840 -0.0838
 1768TIP3    H126795   2.004   4.165  15.626 -1.7786  0.6045 -0.8209
 1768TIP3    H226796   1.981   4.179  15.477  0.7757 -1.0656 -1.4308
 1769TIP3   OH226797   5.049   2.277   1.308 -0.1372 -0.1599  0.1911
 1769TIP3    H126798   5.009   2.362   1.326 -0.7356 -0.1120 -1.2134
 1769TIP3    H226799   4.987   2.233   1.249  0.5281 -1.2559  0.2759
 1770TIP3   OH226800   1.715   2.517   5.977 -0.5850  0.1506  0.2873
 1770TIP3    H126801   1.678   2.439   6.019 -0.6605  0.3476  0.5905
 1770TIP3    H226802   1.699   2.504   5.884  0.7165 -0.9118  0.1759
 1771TIP3   OH226803   4.923   5.475   4.040  0.7066 -0.0193 -0.7540
 1771TIP3    H126804   4.831   5.502   4.038  1.4573  2.9772  0.1642
 1771TIP3    H226805   4.966   5.527   3.972  1.7873 -1.2231 -1.0418
 1772TIP3   OH226806   4.051   1.404   2.818  0.2029  0.0574  0.1623
 1772TIP3    H126807   4.083   1.492   2.798  0.4094 -0.4828 -2.1657
 1772TIP3    H226808   4.119   1.366   2.873  1.8178  0.2476 -1.5883
 1773TIP3   OH226809   1.457   6.759  11.690 -0.4945  0.0372  0.7146
 1773TIP3    H126810   1.416   6.750  11.604  3.0312  0.9702 -1.2658
 1773TIP3    H226811   1.458   6.853  11.706  2.0749  0.2189 -0.0774
 1774TIP3   OH226812   5.963   4.748  14.625 -0.5698 -0.4504  0.5233
 1774TIP3    H126813   5.899   4.799  14.674 -0.2478 -0.7897  1.3107
 1774TIP3    H226814   5.913   4.709  14.554 -0.8849  0.6710  0.1149
 1775TIP3   OH226815   1.189   5.869   4.311 -0.1787  0.2422 -0.3573
 1775TIP3    H126816   1.181   5.955   4.352 -1.7468  0.2608 -0.6362
 1775TIP3    H226817   1.230   5.886   4.226  0.0375  0.6381 -0.1745
 1776TIP3   OH226818   1.562   2.745   5.766  0.2607  0.0260  0.2382
 1776TIP3    H126819   1.543   2.828   5.723  1.6091  0.7346  0.9392
 1776TIP3    H226820   1.506   2.746   5.844  1.0006  0.7596  0.7769
 1777TIP3   OH226821   4.662   5.511  16.441  0.0112  0.1781  0.5222
 1777TIP3    H126822   4.689   5.490  16.351 -0.1370  0.5205  0.3961
 1777TIP3    H226823   4.738   5.555  16.478  0.4671 -0.8975  0.9131
 1778TIP3   OH226824   5.531   6.430  12.348  0.1551 -1.1128  0.0627
 1778TIP3    H126825   5.496   6.342  12.334  2.1684 -1.6574 -1.9909
 1778TIP3    H226826   5.557   6.460  12.261 -1.0003  1.7965  0.6049
 1779TIP3   OH226827   6.662   6.261   0.024  0.1617 -0.4858  0.6320
 1779TIP3    H126828   6.733   6.311  -0.015  1.6731 -1.6543  1.7578
 1779TIP3    H226829   6.692   6.243   0.114 -1.7814 -0.5784  1.3104
 1780TIP3   OH226830   3.176   6.054  14.269 -0.3315 -0.2968 -0.1233
 1780TIP3    H126831   3.270   6.039  14.256 -0.4124 -0.4361 -0.5745
 1780TIP3    H226832   3.135   5.970  14.249 -0.5308 -0.3172  0.3537
 1781TIP3   OH226833   0.647   2.247  14.990  0.9912 -0.2284 -0.2570
 1781TIP3    H126834   0.577   2.203  15.038  2.9590 -1.0918  2.0537
 1781TIP3    H226835   0.677   2.316  15.049  0.5429  1.7183 -2.2090
 1782TIP3   OH226836   4.096   5.652  11.228  0.3569  0.3419  0.3372
 1782TIP3    H126837   4.120   5.560  11.214  4.3038  1.3589 -0.8520
 1782TIP3    H226838   4.022   5.666  11.169  1.2325 -1.5238 -1.3412
 1783TIP3   OH226839   4.616   2.940   6.472 -0.2881 -0.1989 -0.7622
 1783TIP3    H126840   4.556   2.935   6.398 -0.5713 -1.4822 -0.4675
 1783TIP3    H226841   4.575   2.888   6.541  0.6216 -0.1542 -0.1598
 1784TIP3   OH226842   5.856   6.674   0.979 -0.6367 -0.0521 -0.8293
 1784TIP3    H126843   5.770   6.643   1.007  1.3308 -4.6746  1.2625
 1784TIP3    H226844   5.875   6.747   1.038 -2.9112  0.8375 -1.1011
 1785TIP3   OH226845   5.686   0.633   1.933  0.6456  0.4844  0.3803
 1785TIP3    H126846   5.748   0.587   1.989 -0.0034  0.7012  1.3116
 1785TIP3    H226847   5.722   0.625   1.845  1.7446  0.2119  0.8372
 1786TIP3   OH226848   1.833   2.235  16.441  0.2972  0.1043 -0.3655
 1786TIP3    H126849   1.866   2.261  16.527  0.8260  0.5319 -0.6849
 1786TIP3    H226850   1.908   2.191  16.400  1.6910  3.7735 -2.3092
 1787TIP3   OH226851   6.638   4.787   4.916 -0.1093  0.1524  0.0393
 1787TIP3    H126852   6.543   4.783   4.901 -0.0020  1.1108 -1.0357
 1787TIP3    H226853   6.658   4.707   4.964 -1.1216 -1.2570 -1.7456
 1788TIP3   OH226854   0.374   5.764   2.985 -0.0882  0.1782  0.2129
 1788TIP3    H126855   0.418   5.693   3.032 -1.1625  0.6329  2.0057
 1788TIP3    H226856   0.294   5.723   2.951 -0.1474  0.2617  0.2528
 1789TIP3   OH226857   1.122   2.452  15.139  0.0647  0.8077 -0.5836
 1789TIP3    H126858   1.199   2.463  15.084  0.5636  0.4552  0.0173
 1789TIP3    H226859   1.083   2.539  15.145 -0.4442  0.7038 -2.1092
 1790TIP3   OH226860   5.284   6.518  16.178 -0.0728 -0.1200 -0.2531
 1790TIP3    H126861   5.283   6.446  16.115  0.6121 -0.5128  0.1677
 1790TIP3    H226862   5.201   6.563  16.165 -0.9681 -1.5975  0.1525
 1791TIP3   OH226863   3.781   3.041   5.131 -0.0645  0.0572 -0.5200
 1791TIP3    H126864   3.861   3.040   5.079  0.3114  0.7304  0.0287
 1791TIP3    H226865   3.711   3.021   5.069  0.5350 -0.6091 -0.9863
 1792TIP3   OH226866   3.596   5.851   1.884  0.0546 -0.2826  0.1665
 1792TIP3    H126867   3.641   5.811   1.959 -0.4093 -0.6868  0.2377
 1792TIP3    H226868   3.522   5.898   1.924 -0.1266 -0.4037 -0.0254
 1793TIP3   OH226869   0.886   2.557  12.410 -0.6098 -0.2948  0.6927
 1793TIP3    H126870   0.954   2.495  12.435 -0.5786 -0.4056  0.3419
 1793TIP3    H226871   0.931   2.642  12.404 -0.6214 -0.2642  1.0210
 1794TIP3   OH226872   6.379   0.977  11.636  0.4912 -0.2653  0.4177
 1794TIP3    H126873   6.297   0.932  11.655 -0.4458 -0.1191 -2.6282
 1794TIP3    H226874   6.360   1.069  11.653 -0.6535 -0.0066 -1.8419
 1795TIP3   OH226875   6.039   2.685  13.096  0.6352 -0.2278 -0.3750
 1795TIP3    H126876   5.947   2.676  13.122  0.1100  2.2730 -1.1245
 1795TIP3    H226877   6.084   2.614  13.143 -1.7773 -2.1412 -0.7337
 1796TIP3   OH226878   3.036   2.388   4.796 -0.2452  0.0543  0.5385
 1796TIP3    H126879   2.996   2.356   4.715  3.1551 -3.5772  0.0116
 1796TIP3    H226880   3.079   2.469   4.770 -2.7490  1.2839 -0.0900
 1797TIP3   OH226881   3.146   5.632   6.120  0.0395 -0.2366 -0.3421
 1797TIP3    H126882   3.161   5.547   6.161 -1.9461 -1.2566 -1.5742
 1797TIP3    H226883   3.057   5.656   6.148 -0.6871 -0.1329 -2.5467
 1798TIP3   OH226884   4.558   1.055   5.613 -0.4382  0.1221  0.4766
 1798TIP3    H126885   4.542   1.148   5.596 -2.9723  0.1716  2.5205
 1798TIP3    H226886   4.618   1.054   5.687  0.6664  0.0669 -0.3942
 1799TIP3   OH226887   1.534   2.356  14.799  0.3321 -0.2112 -0.3792
 1799TIP3    H126888   1.614   2.344  14.851  1.6988 -1.2562 -2.5677
 1799TIP3    H226889   1.531   2.279  14.742 -1.3031  0.6871 -1.5872
 1800TIP3   OH226890   1.465   1.582   0.519  0.4423 -0.3030 -0.3290
 1800TIP3    H126891   1.500   1.522   0.453  1.0401 -1.0860  0.6623
 1800TIP3    H226892   1.543   1.619   0.561  0.0758  0.0184  0.0724
 1801TIP3   OH226893   1.165   1.442   2.853  0.2217  0.2421 -0.2015
 1801TIP3    H126894   1.168   1.507   2.783  0.5472  0.2657 -0.1709
 1801TIP3    H226895   1.219   1.369   2.821  0.7018  0.4201  0.1839
 1802TIP3   OH226896   1.898   3.161  13.962  0.0063  0.2509 -0.4069
 1802TIP3    H126897   1.913   3.199  14.049 -2.0687 -0.1074  0.1789
 1802TIP3    H226898   1.968   3.097  13.951  0.0178 -0.0710  1.2531
 1803TIP3   OH226899   4.717   6.403   1.524 -0.8882 -0.0552 -0.4318
 1803TIP3    H126900   4.779   6.372   1.458 -0.2296  0.5507 -0.1265
 1803TIP3    H226901   4.647   6.446   1.474 -1.3767 -1.2641 -0.8095
 1804TIP3   OH226902   0.856   4.635   1.844 -0.6129 -0.3007 -0.8855
 1804TIP3    H126903   0.792   4.567   1.824  1.3861 -2.3090 -0.8630
 1804TIP3    H226904   0.860   4.689   1.766  1.2271 -3.2027 -3.0079
 1805TIP3   OH226905   5.245   0.120   2.390 -0.2240  0.1752 -0.3951
 1805TIP3    H126906   5.264   0.126   2.296 -1.4775 -2.6592 -0.9434
 1805TIP3    H226907   5.155   0.088   2.394 -0.4318  0.8526  1.8263
 1806TIP3   OH226908   4.957   2.771   4.462  0.0663 -0.3311 -0.0644
 1806TIP3    H126909   4.997   2.851   4.428  1.7766 -0.2166  2.0244
 1806TIP3    H226910   5.010   2.701   4.425 -1.0910 -0.5409 -1.4424
 1807TIP3   OH226911   4.593   6.110   4.341  0.1000  0.0735 -0.2248
 1807TIP3    H126912   4.643   6.180   4.380  1.2384 -0.8934  0.0940
 1807TIP3    H226913   4.613   6.033   4.393 -3.4438  0.0122  1.3583
 1808TIP3   OH226914   4.816   5.356   6.157 -0.0582 -0.2215 -0.2996
 1808TIP3    H126915   4.779   5.295   6.221 -2.0785  1.2621  0.0624
 1808TIP3    H226916   4.904   5.373   6.187 -0.0927 -1.5150  0.6222
 1809TIP3   OH226917   0.248   4.096  16.185 -0.0971  0.5722  0.1362
 1809TIP3    H126918   0.304   4.018  16.180 -0.2356  0.5312 -1.2292
 1809TIP3    H226919   0.198   4.085  16.266  1.3529  0.2617  1.0132
 1810TIP3   OH226920   4.342   2.814   0.039  0.0460 -0.1253  0.6067
 1810TIP3    H126921   4.421   2.855   0.007 -0.0125 -0.3863  0.1174
 1810TIP3    H226922   4.372   2.736   0.085  0.0215 -0.7984 -0.4813
 1811TIP3   OH226923   5.484   3.818  10.920 -0.3620 -1.2965 -0.4202
 1811TIP3    H126924   5.571   3.779  10.931  0.7260  0.3865 -2.2821
 1811TIP3    H226925   5.502   3.908  10.893 -2.7275 -0.6469 -0.0755
 1812TIP3   OH226926   3.227   0.021   2.622  0.0684  0.0337  0.0356
 1812TIP3    H126927   3.137   0.015   2.592 -0.2569  2.9918  0.1117
 1812TIP3    H226928   3.222   0.013   2.717 -0.1832  0.6285  0.0745
 1813TIP3   OH226929   0.997   6.339  13.726 -0.7533 -0.3417 -0.2779
 1813TIP3    H126930   1.087   6.307  13.722 -0.8416 -0.6948  0.4352
 1813TIP3    H226931   1.006   6.434  13.728 -0.3859 -0.3763 -0.1030
 1814TIP3   OH226932   0.190   2.203  11.631 -0.5280 -0.1463  0.5739
 1814TIP3    H126933   0.282   2.206  11.657 -1.0456  0.5991  2.4884
 1814TIP3    H226934   0.190   2.155  11.548  1.8038  1.6598 -0.5774
 1815TIP3   OH226935   1.461   3.427  11.559  0.1394 -0.4215  0.1518
 1815TIP3    H126936   1.403   3.460  11.628 -0.2738  0.4594 -0.5788
 1815TIP3    H226937   1.402   3.385  11.497  0.5493 -1.5570  0.5054
 1816TIP3   OH226938   4.125   5.390  12.463  0.4233 -0.0300  0.1194
 1816TIP3    H126939   4.053   5.452  12.448 -1.2484 -1.6971  0.8644
 1816TIP3    H226940   4.204   5.439  12.440 -0.8968  2.0355 -0.2737
 1817TIP3   OH226941   2.711   5.289  14.843  0.1923 -0.7922  0.1164
 1817TIP3    H126942   2.677   5.221  14.901  0.2108 -1.1296 -0.2599
 1817TIP3    H226943   2.717   5.247  14.758  0.6873 -0.4695 -0.0165
 1818TIP3   OH226944   6.007   6.785   0.346 -0.0397 -0.2084  0.4298
 1818TIP3    H126945   6.046   6.708   0.306 -2.6963 -1.9719  1.0050
 1818TIP3    H226946   6.025   6.856   0.284  1.5608 -1.4617 -0.6132
 1819TIP3   OH226947   1.666   4.694  14.147  0.4930  0.1284  0.2736
 1819TIP3    H126948   1.580   4.665  14.118  0.5022 -0.6007  0.9332
 1819TIP3    H226949   1.653   4.722  14.237  0.9742 -0.1533  0.4356
 1820TIP3   OH226950   0.943   5.410  16.288 -0.3785 -0.1738 -0.1962
 1820TIP3    H126951   1.036   5.386  16.297 -0.6880 -1.1808  0.4308
 1820TIP3    H226952   0.938   5.452  16.202  0.4921 -0.9174 -0.6310
 1821TIP3   OH226953   4.345   4.053  12.152  0.4177 -0.2383  0.0181
 1821TIP3    H126954   4.337   4.086  12.062 -1.8927  3.4840  1.3671
 1821TIP3    H226955   4.257   4.060  12.188  1.3756 -1.1126  2.7729
 1822TIP3   OH226956   2.884   0.518  13.689  0.4351  0.1586 -1.0096
 1822TIP3    H126957   2.820   0.586  13.708  0.0349 -0.6522  0.7071
 1822TIP3    H226958   2.867   0.495  13.597 -0.5515  1.1682 -1.1041
 1823TIP3   OH226959   0.636   4.743  15.072  0.2141 -0.3176  0.3424
 1823TIP3    H126960   0.550   4.738  15.113  0.1680  1.1634  0.4887
 1823TIP3    H226961   0.665   4.652  15.067 -1.4356 -0.8667  0.0891
 1824TIP3   OH226962   4.236   6.202  12.392  0.5558  0.3838 -0.1159
 1824TIP3    H126963   4.256   6.142  12.320  0.7645 -1.8936  1.7025
 1824TIP3    H226964   4.291   6.172  12.464  1.2584  3.3258  0.7140
 1825TIP3   OH226965   4.880   0.343   2.092 -0.5928 -0.0566  0.0985
 1825TIP3    H126966   4.803   0.327   2.038  0.0398 -1.5975 -0.4048
 1825TIP3    H226967   4.921   0.257   2.102  0.7345  0.6283  0.8462
 1826TIP3   OH226968   1.853   2.806   5.787 -0.6433 -0.4746  0.3735
 1826TIP3    H126969   1.824   2.836   5.701 -0.7162  1.6667  1.0891
 1826TIP3    H226970   1.773   2.787   5.835 -0.8518  2.1588  1.2191
 1827TIP3   OH226971   4.237   2.670  15.869  0.5855  0.0368  0.1283
 1827TIP3    H126972   4.160   2.614  15.881  0.6412 -0.3313 -1.0937
 1827TIP3    H226973   4.300   2.638  15.933  0.2898 -0.7207  0.0494
 1828TIP3   OH226974   2.973   0.015   0.737 -0.4234 -0.2641  0.1505
 1828TIP3    H126975   2.961  -0.014   0.828  0.5609 -0.9658  0.0653
 1828TIP3    H226976   3.067   0.035   0.731 -0.5682  0.2020 -0.5958
 1829TIP3   OH226977   2.202   4.065   5.023 -0.4850 -0.7833  0.3670
 1829TIP3    H126978   2.217   4.051   5.117 -1.8849  0.6014  0.8220
 1829TIP3    H226979   2.263   4.135   4.999  0.0755 -1.3284  0.1401
 1830TIP3   OH226980   5.000   4.142   0.623 -0.2874 -0.6031  0.3052
 1830TIP3    H126981   4.998   4.231   0.589 -0.1954 -0.6443  0.1897
 1830TIP3    H226982   5.083   4.106   0.591  1.0748  0.2093  2.7375
 1831TIP3   OH226983   1.670   2.850  13.951  0.3410 -0.7842 -0.2983
 1831TIP3    H126984   1.697   2.883  14.037 -0.9575 -0.7460  0.1213
 1831TIP3    H226985   1.607   2.915  13.919  0.2557 -1.1782 -0.9521
 1832TIP3   OH226986   3.309   1.474  15.444  0.0807 -0.2523 -0.3260
 1832TIP3    H126987   3.258   1.522  15.379  1.3506  3.1986  1.0116
 1832TIP3    H226988   3.248   1.458  15.516  0.0490  0.9674 -0.0668
 1833TIP3   OH226989   5.284   5.952  10.719 -0.0715 -0.6285 -0.4645
 1833TIP3    H126990   5.380   5.952  10.723  0.1454  4.4219  1.1178
 1833TIP3    H226991   5.264   5.964  10.627  0.9792  0.2865 -0.5968
 1834TIP3   OH226992   2.531   6.515   4.964 -0.1088 -0.5317 -0.1762
 1834TIP3    H126993   2.565   6.519   5.053 -0.3096  0.7238 -0.1478
 1834TIP3    H226994   2.598   6.556   4.910 -0.6899  0.1522 -0.3888
 1835TIP3   OH226995   5.280   4.895   2.050  0.3428  0.2014 -0.3686
 1835TIP3    H126996   5.306   4.808   2.081  2.0015  0.9965  0.5927
 1835TIP3    H226997   5.359   4.949   2.059 -0.6443  1.8186 -0.9358
 1836TIP3   OH226998   4.721   5.415   0.261 -0.0511  0.0865  0.4923
 1836TIP3    H126999   4.755   5.334   0.300  1.0573  0.9726  1.4277
 1836TIP3    H227000   4.796   5.452   0.215 -0.7434  0.2406 -0.5276
 1837TIP3   OH227001   4.700   4.535   4.097 -0.3570  1.0135  0.3371
 1837TIP3    H127002   4.659   4.578   4.172 -0.6754  1.5250 -0.1246
 1837TIP3    H227003   4.779   4.586   4.079 -0.7067  1.3816 -0.1773
 1838TIP3   OH227004   2.115   5.229   5.966 -0.0964  0.1987 -0.4699
 1838TIP3    H127005   2.094   5.264   6.053  0.2223  2.0430 -1.0967
 1838TIP3    H227006   2.074   5.142   5.965 -2.8260  1.3723  0.3927
 1839TIP3   OH227007   4.285   3.864   5.172 -0.4731  0.6116  0.0113
 1839TIP3    H127008   4.207   3.875   5.227 -1.1676  2.9311 -1.2627
 1839TIP3    H227009   4.267   3.785   5.121 -1.0617 -0.0080  1.1355
 1840TIP3   OH227010   2.954   2.203   3.433  0.2117 -0.5171 -0.5288
 1840TIP3    H127011   2.934   2.230   3.523  1.1877  0.5974 -0.6119
 1840TIP3    H227012   2.996   2.117   3.443  1.6600  0.2389  0.2512
 1841TIP3   OH227013   5.550   2.451  14.113 -0.4651  0.7318 -0.2696
 1841TIP3    H127014   5.501   2.407  14.044 -0.0599  0.7996 -0.6041
 1841TIP3    H227015   5.608   2.512  14.067  0.4122  0.1750  0.0690
 1842TIP3   OH227016   6.422   4.838  11.672  0.4657 -0.2123 -0.4846
 1842TIP3    H127017   6.458   4.803  11.591  0.9778  1.1426 -0.8678
 1842TIP3    H227018   6.493   4.828  11.736  0.3946 -0.4300 -0.4405
 1843TIP3   OH227019   1.914   5.615   1.747 -0.1653 -0.1644  0.1983
 1843TIP3    H127020   1.861   5.543   1.714  0.2059 -0.3700  0.0489
 1843TIP3    H227021   1.854   5.666   1.801 -0.7261  0.0842 -0.6626
 1844TIP3   OH227022   5.880   3.568   2.906 -0.5942  0.4696  0.1103
 1844TIP3    H127023   5.856   3.601   2.820 -0.5548  0.7132  0.1937
 1844TIP3    H227024   5.920   3.483   2.889  3.1893  2.1873 -0.4911
 1845TIP3   OH227025   3.592   4.648  11.356  0.2899 -1.2824  0.2857
 1845TIP3    H127026   3.522   4.585  11.341  0.8518 -1.9413  0.4094
 1845TIP3    H227027   3.646   4.644  11.277  0.4990 -1.1800  0.4224
 1846TIP3   OH227028   4.814   2.921   1.404  0.3092 -0.0919  0.4801
 1846TIP3    H127029   4.808   2.855   1.473  1.3810 -0.9263 -0.1820
 1846TIP3    H227030   4.736   2.906   1.350 -0.3805  0.3772  1.3299
 1847TIP3   OH227031   0.194   5.240  15.020 -0.2159 -0.8172  0.1228
 1847TIP3    H127032   0.254   5.314  15.031 -2.1144  0.6400  1.3244
 1847TIP3    H227033   0.190   5.199  15.106 -1.0664 -0.7749  0.1140
 1848TIP3   OH227034   0.669   0.253   5.014 -0.6618  0.3263 -0.6800
 1848TIP3    H127035   0.708   0.169   5.038 -1.7927  0.0450  0.3145
 1848TIP3    H227036   0.719   0.282   4.938  0.4981 -0.6939 -0.3525
 1849TIP3   OH227037   1.411   5.192  11.494 -0.4516 -0.0941  0.2753
 1849TIP3    H127038   1.434   5.221  11.582 -0.7217  1.2498 -0.0758
 1849TIP3    H227039   1.322   5.158  11.502 -0.0499 -1.0819  0.7352
 1850TIP3   OH227040   0.555   1.382  16.617 -0.6255 -0.1103  0.1871
 1850TIP3    H127041   0.528   1.415  16.531  1.5626 -0.7188 -0.8006
 1850TIP3    H227042   0.473   1.353  16.658 -1.9363  1.6816 -0.9975
 1851TIP3   OH227043   3.383   0.799  12.284  0.3803 -0.5515  1.0976
 1851TIP3    H127044   3.401   0.719  12.235 -0.3249 -0.2235  0.2852
 1851TIP3    H227045   3.466   0.847  12.283  0.6674 -1.0421  1.1746
 1852TIP3   OH227046   1.923   0.678  10.858  0.2758 -0.1553 -0.0849
 1852TIP3    H127047   1.875   0.750  10.818 -1.1184 -0.1171  1.5501
 1852TIP3    H227048   1.889   0.599  10.815  1.2396  0.0687 -1.3175
 1853TIP3   OH227049   3.787   6.634  15.300  0.0800  0.2575  0.2306
 1853TIP3    H127050   3.812   6.563  15.241 -0.4233  0.6603 -0.4799
 1853TIP3    H227051   3.696   6.615  15.323  0.0054  0.5700  0.1925
 1854TIP3   OH227052   2.331   4.224  12.258  0.1247 -0.2295 -0.2486
 1854TIP3    H127053   2.354   4.310  12.223  0.7420  0.8225  2.5243
 1854TIP3    H227054   2.235   4.224  12.260  0.1241  0.4325 -0.1681
 1855TIP3   OH227055   2.036   0.392   2.674 -0.4558  0.1329 -0.9454
 1855TIP3    H127056   2.076   0.318   2.627 -1.8030 -1.3892  0.2034
 1855TIP3    H227057   1.942   0.381   2.661 -0.6895  1.7995 -0.9086
 1856TIP3   OH227058   1.561   1.532  12.325  0.7269 -0.2414  0.0716
 1856TIP3    H127059   1.547   1.450  12.277 -0.2754 -0.9941  1.5533
 1856TIP3    H227060   1.557   1.506  12.418  2.2510  1.1990  0.5861
 1857TIP3   OH227061   5.418   3.413   6.732 -0.0964  0.4465  0.1696
 1857TIP3    H127062   5.494   3.425   6.789  0.9098  0.6857 -1.1834
 1857TIP3    H227063   5.448   3.439   6.645 -2.0610  1.6479 -0.2157
 1858TIP3   OH227064   2.917   3.494  14.473  0.3935 -0.3149  0.2518
 1858TIP3    H127065   2.944   3.582  14.500 -1.1602  0.4061 -0.4450
 1858TIP3    H227066   2.916   3.443  14.555  0.6364  0.4994  0.7700
 1859TIP3   OH227067   4.169   2.836   2.233  0.2881 -0.4941  0.1910
 1859TIP3    H127068   4.085   2.862   2.194  0.4735 -0.5682 -0.2628
 1859TIP3    H227069   4.145   2.797   2.317 -0.0532  0.5054  0.5819
 1860TIP3   OH227070   5.100   2.058   4.819 -0.3535  0.5276 -0.4313
 1860TIP3    H127071   5.077   2.150   4.811  0.8350  0.8186 -0.6313
 1860TIP3    H227072   5.156   2.040   4.744  1.4360  0.2937  0.9014
 1861TIP3   OH227073   1.688   1.996  16.632  0.0141  0.2158  0.4977
 1861TIP3    H127074   1.639   2.055  16.575  1.0073  1.1042  0.5381
 1861TIP3    H227075   1.662   1.908  16.603 -3.3948  0.5495  2.0409
 1862TIP3   OH227076   2.985   1.081  11.529  0.0897 -0.3752  0.4389
 1862TIP3    H127077   3.060   1.030  11.559 -0.1158  1.1071  3.9631
 1862TIP3    H227078   3.018   1.170  11.522 -0.4588 -0.3011 -1.9399
 1863TIP3   OH227079   1.318   3.853   0.366 -0.2275  0.6783 -0.4174
 1863TIP3    H127080   1.256   3.916   0.402 -1.7096  0.2735 -2.1219
 1863TIP3    H227081   1.284   3.768   0.393  0.5905  0.4906  0.0836
 1864TIP3   OH227082   5.601   4.380   3.183 -0.1008  0.2185 -0.5853
 1864TIP3    H127083   5.640   4.378   3.096 -1.0865 -2.5202 -1.0579
 1864TIP3    H227084   5.506   4.380   3.167 -0.3070  1.0669  0.5154
 1865TIP3   OH227085   3.254   6.042   2.993 -0.0248 -0.4674 -0.2318
 1865TIP3    H127086   3.200   6.121   2.983  0.1197 -0.4400 -0.8328
 1865TIP3    H227087   3.207   5.990   3.059 -0.9646 -0.5964 -0.9798
 1866TIP3   OH227088   6.507   3.020   2.628 -0.5465 -0.3205 -0.6799
 1866TIP3    H127089   6.445   3.069   2.682 -0.8057 -0.9404 -0.4054
 1866TIP3    H227090   6.460   2.939   2.606  0.3427 -1.0187 -0.0717
 1867TIP3   OH227091   2.869   3.658  15.428  0.8219 -0.7535  0.0466
 1867TIP3    H127092   2.922   3.692  15.355  0.7230 -1.1762 -0.2260
 1867TIP3    H227093   2.906   3.700  15.506  0.2467  0.5504 -0.3466
 1868TIP3   OH227094   0.619   0.369   3.132 -0.0876  0.2534  0.3520
 1868TIP3    H127095   0.596   0.458   3.106 -0.2772  0.2874  0.6327
 1868TIP3    H227096   0.536   0.321   3.131 -0.0587  0.1945  0.6500
 1869TIP3   OH227097   3.780   2.382  13.037 -0.2278  0.7475  0.7255
 1869TIP3    H127098   3.722   2.334  13.096 -0.3902  1.8923  1.5393
 1869TIP3    H227099   3.863   2.335  13.040 -0.9480 -0.6552 -0.1068
 1870TIP3   OH227100   0.808   1.357   0.559  0.0883  0.0447 -0.5772
 1870TIP3    H127101   0.750   1.281   0.557 -1.9126  1.4106  1.0548
 1870TIP3    H227102   0.752   1.429   0.586  2.6043  1.4355  1.3674
 1871TIP3   OH227103   6.653   3.204   2.858  0.3948 -0.2478  0.1671
 1871TIP3    H127104   6.560   3.184   2.851  0.3222  0.0844  0.1614
 1871TIP3    H227105   6.663   3.248   2.942  0.6461 -0.8083  0.4353
 1872TIP3   OH227106   5.047   1.494  14.355 -0.0526 -0.2518 -0.0914
 1872TIP3    H127107   5.110   1.427  14.329  0.4378  0.7265 -1.5994
 1872TIP3    H227108   5.086   1.576  14.324  0.1265  0.9692  3.0477
 1873TIP3   OH227109   3.370   6.580   2.195 -0.4502 -0.3918 -0.7995
 1873TIP3    H127110   3.372   6.675   2.188  2.5871 -0.2855 -0.0170
 1873TIP3    H227111   3.440   6.550   2.137 -1.2939 -2.1607 -0.9713
 1874TIP3   OH227112   6.533   5.654  17.023 -0.2600 -0.0192  0.3072
 1874TIP3    H127113   6.540   5.649  17.119 -0.8522 -1.7325  0.3018
 1874TIP3    H227114   6.439   5.659  17.006 -0.1483  0.4782 -0.1912
 1875TIP3   OH227115   1.587   0.465  15.955  0.6532  0.1552 -0.6447
 1875TIP3    H127116   1.558   0.417  15.878 -2.9182  1.9908 -0.6095
 1875TIP3    H227117   1.538   0.547  15.954  1.1040  0.6832  3.0765
 1876TIP3   OH227118   5.515   3.701   3.104  0.1480 -0.2033 -0.1062
 1876TIP3    H127119   5.580   3.701   3.175 -0.4852 -0.0333  0.4892
 1876TIP3    H227120   5.556   3.752   3.034  2.0797 -2.9487 -1.1159
 1877TIP3   OH227121   4.834   4.637   5.152  0.1115  0.6027  0.5129
 1877TIP3    H127122   4.866   4.719   5.113  1.4028 -0.5179 -0.8866
 1877TIP3    H227123   4.756   4.663   5.201 -0.1172  2.5052 -0.7535
 1878TIP3   OH227124   6.258   3.306   0.230  0.2851 -0.5104 -0.0060
 1878TIP3    H127125   6.186   3.244   0.243  1.1334 -1.2328  1.4445
 1878TIP3    H227126   6.232   3.383   0.280  0.7266 -0.9721  0.9691
 1879TIP3   OH227127   0.085   5.732  16.790  0.9979 -0.3254  0.0151
 1879TIP3    H127128   0.119   5.716  16.878  1.6791  0.7422 -0.0339
 1879TIP3    H227129   0.092   5.826  16.778 -0.5524 -0.2498 -0.6099
 1880TIP3   OH227130   2.870   6.153   0.746  0.5745 -0.0516  0.1958
 1880TIP3    H127131   2.887   6.138   0.839  0.7529  0.3629  0.2349
 1880TIP3    H227132   2.863   6.066   0.708  1.1311 -0.2311  0.4908
 1881TIP3   OH227133   6.410   5.333  17.267  0.2182 -0.1877 -0.4180
 1881TIP3    H127134   6.343   5.401  17.275  0.2654 -0.1046 -0.7322
 1881TIP3    H227135   6.384   5.267  17.332 -0.5639 -0.4915 -1.0270
 1882TIP3   OH227136   1.534   5.840   5.088 -0.6332  0.1763  0.9317
 1882TIP3    H127137   1.507   5.900   5.018  0.3510 -0.5992 -0.1356
 1882TIP3    H227138   1.552   5.898   5.162 -2.5787  0.9428  0.8876
 1883TIP3   OH227139   3.970   5.105   4.021 -0.2780 -0.8082 -0.4458
 1883TIP3    H127140   4.049   5.143   4.059 -1.0198  0.1209  0.1761
 1883TIP3    H227141   3.994   5.088   3.929  0.4151  0.1427 -0.4534
 1884TIP3   OH227142   4.753   1.514  13.441  0.2975 -0.1138  0.4358
 1884TIP3    H127143   4.697   1.586  13.471 -1.7808 -1.2345 -0.5917
 1884TIP3    H227144   4.809   1.495  13.517 -0.3866  1.3282  1.3558
 1885TIP3   OH227145   0.138   0.557  12.640  0.2892 -0.4446 -0.0444
 1885TIP3    H127146   0.109   0.622  12.704  0.9510  0.3965 -0.5935
 1885TIP3    H227147   0.070   0.558  12.573  2.3189  2.9248 -2.3331
 1886TIP3   OH227148   2.878   4.906   4.905 -0.4254 -0.6326  0.3647
 1886TIP3    H127149   2.900   4.933   4.816 -3.0935  0.6028 -0.0072
 1886TIP3    H227150   2.936   4.832   4.923  4.1668  2.3982 -0.2656
 1887TIP3   OH227151   3.149   6.173  12.937 -0.2225  0.1232  0.3272
 1887TIP3    H127152   3.209   6.227  12.885 -1.2602  2.4376  1.3895
 1887TIP3    H227153   3.181   6.084  12.924  1.3431  0.8922 -1.8658
 1888TIP3   OH227154   5.031   6.364   3.581  0.0171 -0.1369  0.3359
 1888TIP3    H127155   5.074   6.430   3.635  0.5294  0.1728 -0.4380
 1888TIP3    H227156   4.951   6.342   3.629 -1.5534  2.9773 -0.5968
 1889TIP3   OH227157   1.609   5.886   2.145  0.1767 -0.9242  0.4053
 1889TIP3    H127158   1.622   5.964   2.199 -0.5773 -0.2407 -0.3921
 1889TIP3    H227159   1.627   5.813   2.205  2.4633 -0.1645  0.7671
 1890TIP3   OH227160   3.522   0.421   0.285  0.2463 -0.2898  0.7947
 1890TIP3    H127161   3.431   0.401   0.263 -0.3845  0.3712  2.6422
 1890TIP3    H227162   3.548   0.487   0.221 -0.1012 -1.4435 -0.5990
 1891TIP3   OH227163   4.442   3.778  14.061 -0.0572 -0.7622  0.2838
 1891TIP3    H127164   4.423   3.817  13.976  0.3228 -1.5596 -0.1834
 1891TIP3    H227165   4.382   3.703  14.066 -2.0089  0.8033  1.9069
 1892TIP3   OH227166   2.942   2.196  12.318  0.4100  0.1328 -0.5469
 1892TIP3    H127167   2.856   2.237  12.330 -0.5060 -1.6139 -0.7703
 1892TIP3    H227168   2.994   2.227  12.392 -0.2853  1.5285 -0.6136
 1893TIP3   OH227169   2.103   2.887   1.956 -0.2669 -0.1923  0.3811
 1893TIP3    H127170   2.061   2.903   2.040  2.5818 -0.9119  2.0862
 1893TIP3    H227171   2.114   2.974   1.917  0.8640  0.4719  2.0903
 1894TIP3   OH227172   3.608   6.479   5.803  0.6023 -0.5088  0.0159
 1894TIP3    H127173   3.533   6.479   5.743  1.1981 -0.3238 -0.7520
 1894TIP3    H227174   3.585   6.414   5.870 -0.3993 -0.1812  0.0063
 1895TIP3   OH227175   4.979   1.892   1.439 -0.0638  0.1600 -0.9489
 1895TIP3    H127176   4.948   1.884   1.529  0.4896 -0.6755 -0.8200
 1895TIP3    H227177   5.037   1.969   1.441 -0.7532  0.6833 -0.8058
 1896TIP3   OH227178   1.956   4.906  13.332  0.0724  0.3742  0.4369
 1896TIP3    H127179   1.976   4.833  13.274 -0.1637 -0.3799  1.2879
 1896TIP3    H227180   2.029   4.967  13.320 -0.0633  0.3310 -0.7819
 1897TIP3   OH227181   5.555   4.453  16.624 -0.0061  0.3857  0.6442
 1897TIP3    H127182   5.561   4.538  16.579  0.6048  0.3099  0.5727
 1897TIP3    H227183   5.614   4.396  16.574  0.0588  0.0826  1.0658
 1898TIP3   OH227184   4.075   4.464   3.668 -0.1125  0.7943 -0.0368
 1898TIP3    H127185   4.050   4.412   3.591  0.6407 -2.4981  1.7206
 1898TIP3    H227186   3.998   4.463   3.724  1.0864 -2.4046  1.8641
 1899TIP3   OH227187   1.399   6.247   2.653  0.4532  0.0013  0.1142
 1899TIP3    H127188   1.479   6.223   2.700  0.8379 -0.8638 -0.9247
 1899TIP3    H227189   1.430   6.289   2.573 -0.1670  0.6751  0.2180
 1900TIP3   OH227190   5.027   3.918  15.348  0.4685  0.1364  0.3586
 1900TIP3    H127191   5.088   3.971  15.297  2.4340 -2.2287  0.0748
 1900TIP3    H227192   4.974   3.982  15.397  1.0219  2.3616 -1.7799
 1901TIP3   OH227193   6.514   2.843  16.691  0.1282  0.2628 -0.2642
 1901TIP3    H127194   6.557   2.928  16.688 -0.8053  0.7184 -1.4786
 1901TIP3    H227195   6.475   2.838  16.778  1.4270  0.4215  0.3553
 1902TIP3   OH227196   4.078   2.515   2.875  1.1452 -0.1233  0.0872
 1902TIP3    H127197   4.036   2.537   2.792  0.1326  1.9033  1.0778
 1902TIP3    H227198   4.170   2.502   2.852  1.2010  2.0162 -1.1498
 1903TIP3   OH227199   5.330   6.768   1.197 -0.3458 -0.0451  0.0494
 1903TIP3    H127200   5.295   6.857   1.190 -0.8005 -0.2734 -0.8067
 1903TIP3    H227201   5.291   6.733   1.277 -1.2268  0.0889 -0.3027
 1904TIP3   OH227202   1.963   3.245  15.614  0.1299  0.2126  0.0323
 1904TIP3    H127203   1.877   3.213  15.587  0.1732 -2.0565  2.2670
 1904TIP3    H227204   2.019   3.230  15.537 -1.1225  0.2824 -0.9176
 1905TIP3   OH227205   2.306   2.947   3.640 -0.3468 -0.6320 -0.1122
 1905TIP3    H127206   2.396   2.971   3.617 -1.1073  0.4428 -2.2122
 1905TIP3    H227207   2.304   2.852   3.634 -0.0590 -0.5244 -3.1732
 1906TIP3   OH227208   0.950   0.398  12.316  0.0688  0.1213 -0.3162
 1906TIP3    H127209   0.998   0.351  12.384  0.3142  0.6386 -0.1253
 1906TIP3    H227210   0.972   0.490  12.330 -0.9921  0.3785 -0.2069
 1907TIP3   OH227211   0.879   6.170  14.395 -1.0287 -0.2403  0.2659
 1907TIP3    H127212   0.839   6.091  14.431 -0.8617 -1.1198 -1.3440
 1907TIP3    H227213   0.819   6.197  14.325 -0.4720  0.3459  0.0051
 1908TIP3   OH227214   0.623   4.223   5.724  0.4731 -0.4355 -0.5369
 1908TIP3    H127215   0.702   4.209   5.776  0.3966  3.1682  0.7916
 1908TIP3    H227216   0.556   4.249   5.787 -1.3338 -1.6653 -1.8408
 1909TIP3   OH227217   3.650   1.613  11.952  0.3837  0.0146 -0.0401
 1909TIP3    H127218   3.604   1.533  11.925 -0.1440  0.2328  0.2019
 1909TIP3    H227219   3.742   1.595  11.932  0.3234 -0.8040  0.3639
 1910TIP3   OH227220   2.851   4.156  16.982  0.3877 -0.1014 -0.6435
 1910TIP3    H127221   2.835   4.176  17.074 -1.6229 -1.3054 -0.6767
 1910TIP3    H227222   2.880   4.240  16.944 -1.2075  1.0651  0.5788
 1911TIP3   OH227223   1.523   3.234  11.083 -0.7886  0.2014  0.1156
 1911TIP3    H127224   1.454   3.273  11.137 -1.8867 -0.6457 -0.6333
 1911TIP3    H227225   1.584   3.305  11.067 -1.4897  0.9819  0.7870
 1912TIP3   OH227226   6.589   2.108   4.267 -0.1122  0.2445  0.2015
 1912TIP3    H127227   6.681   2.133   4.257  0.0508 -0.3356  0.2257
 1912TIP3    H227228   6.549   2.126   4.182  0.0458  0.3944  0.1588
 1913TIP3   OH227229   0.493   2.450   0.277 -0.2653  0.0889 -0.3634
 1913TIP3    H127230   0.448   2.433   0.360 -0.9256 -4.1251 -1.3628
 1913TIP3    H227231   0.586   2.435   0.296 -0.3109 -0.0121 -0.2223
 1914TIP3   OH227232   1.867   6.713   3.657 -0.9385 -0.2337  0.3569
 1914TIP3    H127233   1.858   6.808   3.653 -0.2866 -0.0755  1.9916
 1914TIP3    H227234   1.806   6.680   3.591 -2.6511  1.2431  1.1534
 1915TIP3   OH227235   4.050   5.316   0.080  0.4692  0.4194  0.4735
 1915TIP3    H127236   4.110   5.262   0.131  1.4367 -0.0170 -1.0880
 1915TIP3    H227237   3.992   5.354   0.146  0.2180 -1.9040  1.7104
 1916TIP3   OH227238   1.465   1.521  16.809  0.0932 -0.0119  0.0548
 1916TIP3    H127239   1.383   1.476  16.788  0.6177 -0.5702 -0.8362
 1916TIP3    H227240   1.526   1.451  16.831  0.2919  0.4141  0.9173
 1917TIP3   OH227241   2.147   0.817  13.623 -0.6230  0.1134 -0.3187
 1917TIP3    H127242   2.150   0.808  13.527 -0.5957  0.4538 -0.3516
 1917TIP3    H227243   2.238   0.833  13.648 -0.7700  1.0599 -0.3458
 1918TIP3   OH227244   6.546   2.821  11.510  0.1824 -0.1345 -0.1203
 1918TIP3    H127245   6.628   2.846  11.553  0.0906 -1.0535  0.6417
 1918TIP3    H227246   6.529   2.732  11.543  0.3255 -1.0537 -2.3788
 1919TIP3   OH227247   2.818   0.246  14.244 -0.0371  0.2123 -0.0262
 1919TIP3    H127248   2.882   0.260  14.314  0.6835 -0.8818 -0.4454
 1919TIP3    H227249   2.851   0.170  14.196 -0.1071  1.4065 -2.0453
 1920TIP3   OH227250   5.939   4.587   1.991 -0.0482 -0.1569 -0.0104
 1920TIP3    H127251   6.009   4.623   1.937  1.6954  1.1738  2.9220
 1920TIP3    H227252   5.871   4.655   1.991  1.4016  1.4194  2.0341
 1921TIP3   OH227253   3.988   6.634   4.934 -0.0302  0.6389 -0.5030
 1921TIP3    H127254   3.961   6.554   4.888 -0.2880  1.2220 -1.3845
 1921TIP3    H227255   4.073   6.611   4.973 -0.5556 -0.3757  0.1053
 1922TIP3   OH227256   6.046   5.774  11.317  0.0427  0.1504  0.2078
 1922TIP3    H127257   6.132   5.815  11.309  0.2084 -0.0724  0.8111
 1922TIP3    H227258   6.051   5.697  11.260 -0.4184  1.1776 -1.2805
 1923TIP3   OH227259   6.316   1.565  16.687  0.5798 -0.0330 -0.1527
 1923TIP3    H127260   6.307   1.575  16.781  2.1781  1.4072 -0.1156
 1923TIP3    H227261   6.311   1.470  16.672  1.2199 -0.3480  1.4792
 1924TIP3   OH227262   3.027   2.450   5.412  0.0616  0.4480 -0.4779
 1924TIP3    H127263   3.067   2.521   5.362 -0.4339 -0.4526 -2.2680
 1924TIP3    H227264   2.951   2.490   5.454 -0.6907  0.8490 -2.1245
 1925TIP3   OH227265   2.542   4.654   0.839 -0.2495  0.0154  0.0064
 1925TIP3    H127266   2.527   4.740   0.798 -0.2330  0.1766  0.3401
 1925TIP3    H227267   2.600   4.609   0.777 -0.9468 -0.0852 -0.5963
 1926TIP3   OH227268   5.018   3.451  11.281 -0.2618 -0.9990 -0.0642
 1926TIP3    H127269   5.104   3.481  11.312 -1.3090  0.6238  1.4260
 1926TIP3    H227270   4.961   3.456  11.358 -1.9688 -0.9738 -1.2720
 1927TIP3   OH227271   4.154   0.687  14.617 -0.6199 -0.4677 -0.4528
 1927TIP3    H127272   4.129   0.682  14.524 -2.2902 -1.1534  0.0020
 1927TIP3    H227273   4.136   0.777  14.642 -0.2373 -0.3008 -0.7546
 1928TIP3   OH227274   2.987   6.021   3.757 -0.3231 -0.7275 -0.1987
 1928TIP3    H127275   3.050   5.951   3.775 -1.1893 -1.2211  1.0357
 1928TIP3    H227276   2.939   6.032   3.839  0.5033  2.1149  0.0038
 1929TIP3   OH227277   5.392   5.058   1.641  0.1090 -0.4340  0.5131
 1929TIP3    H127278   5.484   5.036   1.623  0.2272  0.6095 -0.2738
 1929TIP3    H227279   5.344   4.977   1.623  0.9611 -1.2989  1.9116
 1930TIP3   OH227280   3.957   6.602  13.605 -0.0118  0.1629 -0.8996
 1930TIP3    H127281   4.052   6.615  13.600  0.0195  0.1811 -0.3625
 1930TIP3    H227282   3.922   6.659  13.537  0.2543  1.6442  0.1270
 1931TIP3   OH227283   0.507   4.812  12.833  0.1026  0.1682 -0.4567
 1931TIP3    H127284   0.469   4.873  12.896 -1.9348  1.8022 -3.0820
 1931TIP3    H227285   0.599   4.839  12.827 -0.2414  1.5529  0.0322
 1932TIP3   OH227286   4.177   1.930   1.620 -0.3535 -0.2491  0.1669
 1932TIP3    H127287   4.168   2.009   1.567  1.0384  0.3817  0.8161
 1932TIP3    H227288   4.151   1.859   1.561  0.4546  0.4907 -1.1423
 1933TIP3   OH227289   4.806   1.855   0.915 -0.1195 -0.2335  0.0684
 1933TIP3    H127290   4.824   1.867   1.008 -0.9886 -2.3512  0.5661
 1933TIP3    H227291   4.819   1.761   0.899 -1.1709 -0.1475 -1.6520
 1934TIP3   OH227292   5.000   6.225   4.946 -0.0007  0.3895  0.1723
 1934TIP3    H127293   4.924   6.211   5.003  0.6741  1.5544  1.4048
 1934TIP3    H227294   5.014   6.140   4.904 -0.2416 -0.6681  2.1065
 1935TIP3   OH227295   4.007   2.604  16.754 -0.2977  0.2616  0.5955
 1935TIP3    H127296   4.021   2.585  16.847  2.0055 -0.4170  0.1700
 1935TIP3    H227297   3.966   2.691  16.753 -0.8205  0.0659  2.2478
 1936TIP3   OH227298   0.768   2.823  16.357  0.0671  0.4048 -0.2649
 1936TIP3    H127299   0.821   2.900  16.378 -0.8233  1.2697 -1.0265
 1936TIP3    H227300   0.790   2.803  16.266  0.0572 -0.0500 -0.1701
 1937TIP3   OH227301   3.167   1.368  12.473 -0.3258  0.5180 -0.0861
 1937TIP3    H127302   3.133   1.409  12.394 -2.0103 -1.5465 -0.5311
 1937TIP3    H227303   3.248   1.325  12.445 -0.9877 -0.3239 -0.7659
 1938TIP3   OH227304   5.481   0.263   2.530 -0.1081  0.4506  0.1918
 1938TIP3    H127305   5.466   0.227   2.617  1.9428  0.1125  0.4548
 1938TIP3    H227306   5.426   0.211   2.472  1.7948 -2.3549  0.7158
 1939TIP3   OH227307   5.909   3.916   1.987 -0.0726  0.0655 -0.1874
 1939TIP3    H127308   5.868   3.872   2.062  1.0571  0.7235  0.8459
 1939TIP3    H227309   5.843   3.980   1.959  0.5258  1.8210  2.0967
 1940TIP3   OH227310   0.983   4.952   2.827  0.3446  0.2678 -0.0899
 1940TIP3    H127311   1.015   5.027   2.777 -0.1900  1.0186  0.6694
 1940TIP3    H227312   0.890   4.970   2.841  0.5299  0.2347  1.4109
 1941TIP3   OH227313   1.083   5.981  17.198 -0.2006  0.1634 -0.2046
 1941TIP3    H127314   1.129   6.025  17.126 -0.1457  0.2895 -0.0941
 1941TIP3    H227315   1.101   6.036  17.275 -1.5517  0.8915 -0.3834
 1942TIP3   OH227316   4.645   3.273  16.167  0.0307  0.1343 -0.0221
 1942TIP3    H127317   4.713   3.274  16.100  0.0947  1.7519  0.0428
 1942TIP3    H227318   4.688   3.234  16.243  1.0914  1.5906  0.1796
 1943TIP3   OH227319   6.601   3.148  13.886 -0.5522 -0.2246  0.8627
 1943TIP3    H127320   6.693   3.124  13.893  0.0401  0.9785 -1.7720
 1943TIP3    H227321   6.598   3.241  13.908 -1.2305 -0.3365  1.2984
 1944TIP3   OH227322   2.797   3.599  16.649 -0.2130 -0.3164 -0.3118
 1944TIP3    H127323   2.735   3.669  16.634  0.9464  0.5854 -1.0431
 1944TIP3    H227324   2.858   3.603  16.575 -0.8105 -2.8934 -1.0670
 1945TIP3   OH227325   1.689   4.455  16.405  0.7349 -0.3774 -0.0172
 1945TIP3    H127326   1.600   4.421  16.417 -0.2127  2.1541  0.9958
 1945TIP3    H227327   1.700   4.462  16.311 -0.1377 -0.7609 -0.1515
 1946TIP3   OH227328   1.151   5.440  16.981  0.5322  0.0948  0.1900
 1946TIP3    H127329   1.157   5.465  16.889  1.8454  0.2895  0.3030
 1946TIP3    H227330   1.158   5.344  16.981 -0.2889  0.0332  0.0356
 1947TIP3   OH227331   4.245   2.278  15.121  0.6588 -0.6276 -0.0895
 1947TIP3    H127332   4.301   2.200  15.115 -0.0265 -1.0441 -2.0769
 1947TIP3    H227333   4.264   2.315  15.207  0.1940 -3.6065  1.4455
 1948TIP3   OH227334   1.986   4.990   0.728  0.5796 -0.3671  0.0674
 1948TIP3    H127335   1.992   4.971   0.635 -0.6089 -0.0074 -0.1014
 1948TIP3    H227336   1.898   5.026   0.740  1.6115  2.1380  0.8804
 1949TIP3   OH227337   0.297   3.301  14.507 -0.1542 -0.6170  0.1626
 1949TIP3    H127338   0.328   3.278  14.420  0.4395  1.1926 -0.1509
 1949TIP3    H227339   0.223   3.242  14.523  0.5307 -1.8421 -1.0118
 1950TIP3   OH227340   2.944   6.624   2.256 -0.0047  0.1564 -0.4348
 1950TIP3    H127341   2.880   6.557   2.235  0.0345 -0.2380  0.6757
 1950TIP3    H227342   2.998   6.585   2.325 -1.0862  1.9523  1.5324
 1951TIP3   OH227343   2.014   6.124   0.054  0.4657 -0.3861 -0.5830
 1951TIP3    H127344   1.991   6.054   0.115 -1.2203 -2.0952 -3.0017
 1951TIP3    H227345   2.110   6.130   0.060  0.5721 -2.2051  0.4189
 1952TIP3   OH227346   0.236   2.497  10.394 -0.2768 -0.2434  0.2501
 1952TIP3    H127347   0.272   2.418  10.435 -1.5841 -1.5607 -1.0147
 1952TIP3    H227348   0.141   2.486  10.398 -0.4731  0.6608 -1.0662
 1953TIP3   OH227349   3.841   1.986   5.508  0.0832  0.3987  0.2603
 1953TIP3    H127350   3.834   1.907   5.563 -0.6011 -0.8968 -1.5792
 1953TIP3    H227351   3.935   1.994   5.489  0.6306  1.9994  3.0635
 1954TIP3   OH227352   2.673   4.574   6.551 -0.1941  0.4845  0.2849
 1954TIP3    H127353   2.758   4.616   6.542  1.1916 -2.4251 -1.6028
 1954TIP3    H227354   2.614   4.627   6.497  0.7045  1.7735  0.5391
 1955TIP3   OH227355   4.463   1.367   5.589  0.0100 -0.0464 -0.1879
 1955TIP3    H127356   4.408   1.445   5.595  0.7896  0.6879 -1.9727
 1955TIP3    H227357   4.473   1.351   5.495  1.5714 -1.0613  0.1061
 1956TIP3   OH227358   2.563   4.143  11.558 -0.5340 -0.2158  0.1359
 1956TIP3    H127359   2.615   4.222  11.544 -0.8384 -0.0959 -0.3410
 1956TIP3    H227360   2.582   4.118  11.648  0.8945 -0.5985 -0.2619
 1957TIP3   OH227361   4.408   5.367   4.554  0.8952  0.1021  0.1441
 1957TIP3    H127362   4.502   5.357   4.541  0.8831  0.8406 -0.5980
 1957TIP3    H227363   4.392   5.461   4.544 -0.0723 -0.1508 -0.8762
 1958TIP3   OH227364   2.633   5.932   0.768 -1.0666 -0.0290 -1.0150
 1958TIP3    H127365   2.724   5.912   0.744 -0.2895  2.2920 -0.2116
 1958TIP3    H227366   2.600   5.850   0.805  0.9045 -0.7521 -0.7088
 1959TIP3   OH227367   2.814   5.724  14.306 -0.4210 -0.0123 -0.5168
 1959TIP3    H127368   2.819   5.722  14.401 -1.8441 -0.4149 -0.4310
 1959TIP3    H227369   2.730   5.683  14.285 -0.3349  0.4702 -1.9290
 1960TIP3   OH227370   5.832   4.034   0.112  0.4325  0.3395 -0.3245
 1960TIP3    H127371   5.821   4.000   0.200  0.0084 -0.2827 -0.6150
 1960TIP3    H227372   5.816   4.128   0.121 -0.8962  0.0998  0.0412
 1961TIP3   OH227373   0.832   5.209  11.955 -0.4844  0.6185  0.1995
 1961TIP3    H127374   0.878   5.223  12.038  0.3347  1.3194 -0.3525
 1961TIP3    H227375   0.778   5.131  11.970 -0.4858  0.8319  1.4416
 1962TIP3   OH227376   0.087   3.405  13.402  0.0842  0.0352 -0.0569
 1962TIP3    H127377   0.083   3.312  13.421 -0.2032 -0.2216 -1.2810
 1962TIP3    H227378  -0.005   3.431  13.391  0.1018  0.6739  1.2047
 1963TIP3   OH227379   2.409   5.333  16.030 -0.6819  0.6769  0.0516
 1963TIP3    H127380   2.369   5.357  16.114 -0.9566 -0.6388  0.3211
 1963TIP3    H227381   2.499   5.364  16.036 -1.2664  2.5207 -0.0396
 1964TIP3   OH227382   6.162   4.054   1.548 -0.0065  0.2458 -0.8069
 1964TIP3    H127383   6.073   4.027   1.527  0.2439 -0.5460 -0.9076
 1964TIP3    H227384   6.217   3.987   1.507  0.5975  0.2590 -0.0489
 1965TIP3   OH227385   1.885   0.913  16.526 -0.6161  0.2217  0.4738
 1965TIP3    H127386   1.836   0.871  16.455  0.0094  1.1194 -0.5162
 1965TIP3    H227387   1.929   0.987  16.485 -1.4865  1.7295  2.1241
 1966TIP3   OH227388   1.409   5.451   5.403  0.2199  0.2134 -0.0197
 1966TIP3    H127389   1.370   5.491   5.481  1.6270  2.9462 -0.5773
 1966TIP3    H227390   1.365   5.494   5.329  0.9540 -0.1377 -0.6799
 1967TIP3   OH227391   6.700   1.940   3.394  0.6711  0.2342 -0.4448
 1967TIP3    H127392   6.623   1.931   3.449  0.0948 -0.4788 -1.3500
 1967TIP3    H227393   6.711   2.035   3.383  0.3423  0.3571  0.2444
 1968TIP3   OH227394   2.186   6.773   4.363 -0.3661  0.1662  0.1778
 1968TIP3    H127395   2.210   6.682   4.382  0.7750  0.2186 -0.8902
 1968TIP3    H227396   2.145   6.769   4.276  0.9353  0.8358 -0.4877
 1969TIP3   OH227397   0.091   6.490   5.038  0.4640  0.1575  0.7448
 1969TIP3    H127398  -0.004   6.491   5.052  0.7444  0.3249  2.9046
 1969TIP3    H227399   0.111   6.579   5.009  0.0656  0.3384  1.0118
 1970TIP3   OH227400   1.731   4.418   4.923  0.0782 -0.3663 -0.0683
 1970TIP3    H127401   1.821   4.383   4.926  0.2309 -0.1331 -1.2752
 1970TIP3    H227402   1.738   4.496   4.868 -0.8614 -0.3284 -0.1439
 1971TIP3   OH227403   0.840   5.611   0.016  0.3949  0.7475  0.5215
 1971TIP3    H127404   0.902   5.671   0.058 -0.0738  0.5830  1.4843
 1971TIP3    H227405   0.764   5.611   0.074  0.0593 -0.1474  0.1033
 1972TIP3   OH227406   2.435   3.043  10.979 -0.0554 -0.2062  0.0879
 1972TIP3    H127407   2.423   3.131  10.942 -0.4601 -0.2144  0.2040
 1972TIP3    H227408   2.520   3.014  10.944  0.7058  0.7397  1.0569
 1973TIP3   OH227409   3.944   5.474   4.568  0.3237 -0.1041 -0.1778
 1973TIP3    H127410   3.877   5.489   4.634  1.6892  1.2118  1.0077
 1973TIP3    H227411   4.008   5.418   4.612  1.0600  0.4734 -0.4846
 1974TIP3   OH227412   3.224   1.788  10.651 -0.2094  0.4622 -0.3476
 1974TIP3    H127413   3.194   1.708  10.695 -1.8825  1.2028 -0.0775
 1974TIP3    H227414   3.257   1.843  10.722 -1.9467  1.2334 -0.0783
 1975TIP3   OH227415   6.191   1.880  13.884 -0.4425 -0.0171 -0.0815
 1975TIP3    H127416   6.128   1.870  13.812  0.2512 -2.0151 -0.4618
 1975TIP3    H227417   6.233   1.795  13.892  1.3315  0.8930  1.0199
 1976TIP3   OH227418   0.889   1.885   3.818  0.0411 -0.3741 -0.1041
 1976TIP3    H127419   0.832   1.962   3.824 -0.1727 -0.5994  0.9026
 1976TIP3    H227420   0.868   1.847   3.733  1.4329  1.6611 -1.4615
 1977TIP3   OH227421   3.816   0.051  17.101 -0.7185  0.6905  0.3819
 1977TIP3    H127422   3.744   0.057  17.039 -0.6827  0.2267  0.2894
 1977TIP3    H227423   3.785   0.098  17.179 -2.0840 -1.4267  1.2290
 1978TIP3   OH227424   3.900   2.633   1.888 -0.1645 -0.0643 -0.0865
 1978TIP3    H127425   3.913   2.542   1.860 -1.2228 -0.2918  0.1119
 1978TIP3    H227426   3.827   2.629   1.949  3.2721  0.0739  4.5677
 1979TIP3   OH227427   0.668   5.514  12.894  0.1591 -0.5852  0.2106
 1979TIP3    H127428   0.713   5.594  12.920 -1.1181  0.8643 -1.6814
 1979TIP3    H227429   0.578   5.526  12.925  0.0689 -1.5226  0.3379
 1980TIP3   OH227430   1.890   2.660  11.619  0.0001  0.0719  0.1295
 1980TIP3    H127431   1.913   2.612  11.698 -0.0124 -1.4035 -0.7235
 1980TIP3    H227432   1.798   2.637  11.603  0.8058 -2.1358 -1.9356
 1981TIP3   OH227433   5.494   3.771   5.626  0.2508 -0.0181  0.4920
 1981TIP3    H127434   5.487   3.774   5.722 -2.6598 -0.7898  0.4121
 1981TIP3    H227435   5.579   3.810   5.607  0.2341  1.6833  3.2879
 1982TIP3   OH227436   5.800   3.892   3.811  0.5599 -0.0510 -0.3335
 1982TIP3    H127437   5.767   3.842   3.886  0.0945 -0.1759 -0.6161
 1982TIP3    H227438   5.754   3.976   3.816 -1.4450 -0.9828 -1.9215
 1983TIP3   OH227439   5.330   0.807   5.130  0.4423  0.6495 -0.1489
 1983TIP3    H127440   5.242   0.844   5.122  0.9427  1.5912 -1.9626
 1983TIP3    H227441   5.316   0.714   5.144 -0.8618  0.6856 -1.0609
 1984TIP3   OH227442   3.355   4.481  16.555 -0.3372 -0.1716  0.4822
 1984TIP3    H127443   3.443   4.501  16.586  0.0465  0.0459 -0.6865
 1984TIP3    H227444   3.309   4.565  16.556 -0.5826 -0.3056  1.2072
 1985TIP3   OH227445   1.707   2.462  17.184  0.2304  0.0877 -0.1091
 1985TIP3    H127446   1.629   2.411  17.162  0.3143 -1.5985  2.9012
 1985TIP3    H227447   1.778   2.398  17.184  1.0624  0.9913  0.0643
 1986TIP3   OH227448   3.766   0.362  14.097  1.0189  0.2090  0.3421
 1986TIP3    H127449   3.848   0.390  14.137  1.0564  0.1324  0.3196
 1986TIP3    H227450   3.697   0.401  14.152  1.0666  1.2742 -0.3448
 1987TIP3   OH227451   3.811   3.896   5.998  0.7047  0.5986  0.5111
 1987TIP3    H127452   3.860   3.857   5.926  0.2087  1.0413 -0.0871
 1987TIP3    H227453   3.860   3.975   6.021  1.5283 -0.1883  1.4969
 1988TIP3   OH227454   1.360   3.264  13.738 -0.0373  0.5475 -0.0385
 1988TIP3    H127455   1.350   3.173  13.766  0.8520  0.4931  0.1404
 1988TIP3    H227456   1.291   3.277  13.673 -0.2992 -0.1964  0.0801
 1989TIP3   OH227457   2.404   1.581  11.952 -0.0914  0.0781 -0.2322
 1989TIP3    H127458   2.373   1.492  11.970 -1.9016  0.6399 -0.3672
 1989TIP3    H227459   2.424   1.581  11.858  1.6151 -0.6293  0.0888
 1990TIP3   OH227460   5.815   0.373  16.048  0.3780  0.2632 -0.4238
 1990TIP3    H127461   5.826   0.434  15.976  0.6879 -0.3439 -0.9057
 1990TIP3    H227462   5.738   0.322  16.024  0.3038  0.2582 -0.1768
 1991TIP3   OH227463   2.921   2.519  13.023  0.3625  0.0041  0.0914
 1991TIP3    H127464   2.838   2.471  13.032  1.8988 -2.9265 -0.1151
 1991TIP3    H227465   2.951   2.531  13.113  0.0862  0.4099  0.1327
 1992TIP3   OH227466   2.761   2.283  11.373 -0.1632 -0.4354 -0.3303
 1992TIP3    H127467   2.726   2.291  11.285 -0.7056 -1.7915 -0.2626
 1992TIP3    H227468   2.701   2.333  11.428 -0.2936 -0.2879 -0.6039
 1993TIP3   OH227469   5.101   3.329   2.831  0.2340 -0.1287  0.2956
 1993TIP3    H127470   5.030   3.358   2.773 -0.5356 -0.4722  1.0569
 1993TIP3    H227471   5.076   3.361   2.918  1.8043  1.1457  0.3364
 1994TIP3   OH227472   6.609   5.190   2.257 -0.3304 -0.1894  0.3311
 1994TIP3    H127473   6.603   5.245   2.178  0.6549  0.8109  0.9225
 1994TIP3    H227474   6.544   5.121   2.243  1.5050 -1.5148 -2.5165
 1995TIP3   OH227475   1.812   0.702   5.330  0.3275  0.0453  0.2239
 1995TIP3    H127476   1.850   0.616   5.310 -0.3938 -0.2490  0.1156
 1995TIP3    H227477   1.885   0.751   5.370  0.5612 -0.8402  0.9117
 1996TIP3   OH227478   6.311   3.611   2.987  0.3962  0.0094  0.5862
 1996TIP3    H127479   6.285   3.621   2.895 -2.1678 -1.4490  1.0351
 1996TIP3    H227480   6.240   3.652   3.036  1.4040  0.1945  1.9357
 1997TIP3   OH227481   4.902   2.667   4.163 -0.6666 -0.0864 -0.1369
 1997TIP3    H127482   4.811   2.656   4.191 -0.6919 -0.2622 -0.2905
 1997TIP3    H227483   4.953   2.629   4.234 -0.6341  1.7117  0.8673
 1998TIP3   OH227484   5.905   1.514  15.951  0.2048 -0.4831  0.0580
 1998TIP3    H127485   5.976   1.496  16.013  0.2830  0.6345  0.3128
 1998TIP3    H227486   5.835   1.553  16.005 -0.8912 -2.1795 -0.0633
 1999TIP3   OH227487   5.784   0.762   3.978  0.0744  0.0749 -0.0559
 1999TIP3    H127488   5.707   0.811   4.007 -0.6155  0.3753 -2.2054
 1999TIP3    H227489   5.790   0.688   4.038 -1.9043  0.0286  0.1287
 2000TIP3   OH227490   3.744   1.654   5.292 -0.4361  0.0951  0.0127
 2000TIP3    H127491   3.813   1.670   5.356 -0.2062 -0.6010 -0.0463
 2000TIP3    H227492   3.760   1.564   5.262 -1.6453 -0.2659  0.3663
 2001TIP3   OH227493   1.659   3.098   5.212  0.2573  0.2552  0.4861
 2001TIP3    H127494   1.725   3.119   5.145 -0.9807 -1.6136 -1.4534
 2001TIP3    H227495   1.576   3.122   5.171 -0.4963 -0.4079  1.5979
 2002TIP3   OH227496   4.948   1.568   1.883 -0.2300  0.4246 -0.5121
 2002TIP3    H127497   4.913   1.612   1.960  1.1572 -1.4055  1.2707
 2002TIP3    H227498   4.964   1.478   1.912  4.3438  0.6664 -1.5291
 2003TIP3   OH227499   4.263   6.044  13.243  0.3402  0.5019 -0.0542
 2003TIP3    H127500   4.171   6.028  13.219  0.2829  0.5347  0.1440
 2003TIP3    H227501   4.291   6.113  13.184  0.6835 -0.5284 -1.1306
 2004TIP3   OH227502   4.399   3.423  16.992 -0.2768  0.3316 -0.5532
 2004TIP3    H127503   4.457   3.498  16.989 -1.1973  1.2671  2.4000
 2004TIP3    H227504   4.426   3.373  17.069 -1.2703 -1.0324 -1.0350
 2005TIP3   OH227505   0.058   3.495   4.525  0.2734  0.1452  0.6985
 2005TIP3    H127506   0.001   3.434   4.572 -1.0992  0.7402 -0.1376
 2005TIP3    H227507   0.028   3.491   4.434  1.7867  0.2573  0.1665
 2006TIP3   OH227508   3.194   1.617  13.900  0.2312  0.4729 -0.3264
 2006TIP3    H127509   3.142   1.593  13.976  0.2450 -1.3929 -0.8602
 2006TIP3    H227510   3.280   1.640  13.936 -0.1572  0.9277  0.3259
 2007TIP3   OH227511   4.495   4.729   4.623 -0.2538  0.7605 -0.2870
 2007TIP3    H127512   4.563   4.775   4.575  0.2243 -0.1442 -0.4926
 2007TIP3    H227513   4.429   4.707   4.557  0.9039 -1.4292 -0.7806
 2008TIP3   OH227514   6.557   6.277   1.449  0.1667  0.1359  0.0073
 2008TIP3    H127515   6.511   6.195   1.437 -1.0182  0.4977  1.6864
 2008TIP3    H227516   6.529   6.332   1.376 -1.9590  0.2766  0.8786
 2009TIP3   OH227517   5.896   5.078  15.031 -0.4940  0.2795  0.2603
 2009TIP3    H127518   5.901   5.173  15.037 -0.4427  0.1875  1.9558
 2009TIP3    H227519   5.987   5.050  15.016 -0.6834  0.5455 -1.6007
 2010TIP3   OH227520   2.153   3.587  15.080  0.6978 -0.2859 -0.0555
 2010TIP3    H127521   2.099   3.659  15.112  0.5008  0.4802 -1.9229
 2010TIP3    H227522   2.099   3.546  15.011  1.3318 -1.3912  0.0869
 2011TIP3   OH227523   2.669   2.407   2.814 -0.0599 -0.1409  0.0645
 2011TIP3    H127524   2.590   2.426   2.864 -0.1101  3.4848 -1.1127
 2011TIP3    H227525   2.638   2.394   2.724  0.4770 -1.7966  0.0745
 2012TIP3   OH227526   0.718   3.364  12.757  0.2853 -0.4423 -0.3640
 2012TIP3    H127527   0.692   3.312  12.833  1.0816 -1.1775 -0.5736
 2012TIP3    H227528   0.703   3.455  12.783  0.2255 -0.7061  0.5463
 2013TIP3   OH227529   0.566   5.715   2.782  0.4382  0.4476 -0.3415
 2013TIP3    H127530   0.498   5.660   2.821  0.2540  1.3228  0.6010
 2013TIP3    H227531   0.647   5.685   2.822  0.1650  1.8468  1.3420
 2014TIP3   OH227532   4.896   4.096   3.830  0.3601  0.2158 -0.0643
 2014TIP3    H127533   4.833   4.132   3.892  1.0464  0.7349  0.3492
 2014TIP3    H227534   4.856   4.110   3.744 -0.3426  0.0011  0.2225
 2015TIP3   OH227535   0.521   5.025   6.544 -0.0006  0.1669 -0.1447
 2015TIP3    H127536   0.513   5.100   6.486  0.7153  0.2232 -0.1741
 2015TIP3    H227537   0.574   4.961   6.496 -0.7482 -0.4331 -0.1916
 2016TIP3   OH227538   0.417   3.289  16.251 -0.6078  0.6225  0.1951
 2016TIP3    H127539   0.445   3.250  16.334  1.0008 -1.1587 -1.1237
 2016TIP3    H227540   0.386   3.216  16.198 -0.9330  1.6343 -1.0755
 2017TIP3   OH227541   5.144   0.827   3.337 -0.4018 -0.3879 -0.1468
 2017TIP3    H127542   5.076   0.870   3.285  0.2166 -0.9858 -1.5167
 2017TIP3    H227543   5.208   0.797   3.272  0.6827 -0.6953  1.0245
 2018TIP3   OH227544   3.233   6.731  15.824  0.5244  0.3814 -0.8865
 2018TIP3    H127545   3.300   6.739  15.756  0.6021 -0.3753 -0.9068
 2018TIP3    H227546   3.280   6.694  15.899  0.3720  0.9277 -0.5175
 2019TIP3   OH227547   3.849   1.237   0.422  0.0394 -1.0407  0.4138
 2019TIP3    H127548   3.873   1.221   0.331 -0.2374 -0.2030  0.1853
 2019TIP3    H227549   3.859   1.152   0.465  0.3616 -1.3965 -0.3533
 2020TIP3   OH227550   1.698   2.401  12.071  0.0978 -0.2017 -0.0431
 2020TIP3    H127551   1.681   2.312  12.040  2.1723  0.6205 -4.3220
 2020TIP3    H227552   1.791   2.416  12.054 -0.3797  3.0778 -0.5463
 2021TIP3   OH227553   2.655   2.037  15.762  0.0230  0.3261  0.0544
 2021TIP3    H127554   2.709   2.017  15.686  0.3008  1.7047 -0.1322
 2021TIP3    H227555   2.565   2.034  15.728  0.0714 -0.2209 -0.0418
 2022TIP3   OH227556   6.443   3.874   4.713 -0.2382  0.1344 -0.1165
 2022TIP3    H127557   6.408   3.786   4.730  0.8186 -0.0781  1.0912
 2022TIP3    H227558   6.490   3.897   4.793  0.8822  1.1330 -1.0317
 2023TIP3   OH227559   4.768   2.950  15.157 -0.5746  0.4761 -0.6122
 2023TIP3    H127560   4.736   2.994  15.078  1.2853 -0.5812 -2.0291
 2023TIP3    H227561   4.832   3.010  15.194  0.4384 -0.1002 -1.3834
 2024TIP3   OH227562   3.472   5.680  14.766  0.1869  0.1061 -0.7725
 2024TIP3    H127563   3.521   5.620  14.824 -0.5321  0.2452 -0.0055
 2024TIP3    H227564   3.529   5.756  14.757 -1.0674  1.6527  2.6558
 2025TIP3   OH227565   1.530   6.023  16.585  0.2387  0.1167  0.1852
 2025TIP3    H127566   1.517   6.114  16.561  0.8059 -0.1571 -1.3099
 2025TIP3    H227567   1.495   6.015  16.674 -2.1060  1.2171 -0.5706
 2026TIP3   OH227568   5.894   6.178   3.506 -0.2670  0.2437  0.4119
 2026TIP3    H127569   5.929   6.109   3.563  1.1555  2.0448  1.8724
 2026TIP3    H227570   5.946   6.171   3.426 -1.1792 -1.2983 -0.0754
 2027TIP3   OH227571   4.283   0.439   0.263 -0.2124  0.6411  0.1016
 2027TIP3    H127572   4.204   0.429   0.316  0.1201  0.3350  0.5485
 2027TIP3    H227573   4.331   0.357   0.276 -0.8149 -0.0764 -1.8403
 2028TIP3   OH227574   6.627   0.612  12.677 -0.4795 -0.1867  0.1394
 2028TIP3    H127575   6.556   0.584  12.619  0.0066 -2.9213  0.6990
 2028TIP3    H227576   6.631   0.707  12.668 -3.5853 -0.0484 -0.5910
 2029TIP3   OH227577   4.683   2.707  15.856  0.1819 -0.0719 -0.9227
 2029TIP3    H127578   4.632   2.641  15.903  0.9438  0.6552  1.0601
 2029TIP3    H227579   4.630   2.786  15.859  0.7401  0.2979 -0.1378
 2030TIP3   OH227580   5.998   3.199  13.165 -0.3093 -0.1622 -0.0586
 2030TIP3    H127581   6.048   3.273  13.201  0.1405 -1.3941  2.0207
 2030TIP3    H227582   6.056   3.162  13.098 -0.2728  0.9539 -0.6689
 2031TIP3   OH227583   1.956   0.700   0.710  0.6586 -0.0353 -0.3165
 2031TIP3    H127584   1.861   0.697   0.695  0.4995  0.2043  0.5791
 2031TIP3    H227585   1.965   0.710   0.804  1.5625  1.1269 -0.5006
 2032TIP3   OH227586   3.827   6.816  13.397  0.1500  0.4333 -0.0764
 2032TIP3    H127587   3.879   6.749  13.354  0.2512  0.8852 -0.6767
 2032TIP3    H227588   3.738   6.802  13.363  0.4469  1.5345 -1.3841
 2033TIP3   OH227589   3.114   1.373  11.806 -0.1970  0.3479  0.0863
 2033TIP3    H127590   3.035   1.318  11.801  0.6313 -0.9890  1.0081
 2033TIP3    H227591   3.122   1.410  11.719  0.0802 -2.3089 -1.1245
 2034TIP3   OH227592   5.467   4.107   1.137  0.0762  0.3408 -0.3113
 2034TIP3    H127593   5.375   4.083   1.143  0.4315 -1.0478 -0.0872
 2034TIP3    H227594   5.486   4.107   1.043  0.0777 -0.3601 -0.3190
 2035TIP3   OH227595   5.405   0.412  17.128  0.2320  0.1327  0.1899
 2035TIP3    H127596   5.403   0.328  17.083  1.9226 -0.3622  0.9613
 2035TIP3    H227597   5.433   0.475  17.062 -0.4967  0.0191 -0.2454
 2036TIP3   OH227598   3.204   1.873   5.191 -0.5600  0.3377 -0.6498
 2036TIP3    H127599   3.112   1.848   5.178 -0.5962  0.2265 -0.1829
 2036TIP3    H227600   3.253   1.809   5.139 -0.6682 -0.5685  0.3290
 2037TIP3   OH227601   0.179   4.730   3.712 -0.6554 -0.1449 -0.2623
 2037TIP3    H127602   0.163   4.743   3.619  0.2488 -1.0281 -0.5532
 2037TIP3    H227603   0.256   4.783   3.731 -0.1456 -0.8810 -0.2764
 2038TIP3   OH227604   4.251   0.178  17.290  0.2821 -0.6057  0.1754
 2038TIP3    H127605   4.305   0.239  17.239  2.2713 -0.9134  1.7856
 2038TIP3    H227606   4.305   0.100  17.298 -1.0650 -1.5309  0.5796
 2039TIP3   OH227607   5.638   0.655   5.245 -0.5018 -0.0756  0.4894
 2039TIP3    H127608   5.655   0.639   5.337 -0.1519 -0.2516  0.3964
 2039TIP3    H227609   5.720   0.631   5.201 -0.1343  1.4342  0.2857
 2040TIP3   OH227610   1.348   3.030   2.483  0.2512 -0.4408  0.1976
 2040TIP3    H127611   1.323   3.018   2.391  0.5135 -0.5180  0.1342
 2040TIP3    H227612   1.290   2.971   2.531 -0.0786 -0.1914  0.1083
 2041TIP3   OH227613   5.358   5.722  16.347 -0.5874  0.9786 -0.1011
 2041TIP3    H127614   5.416   5.776  16.399 -0.4635  0.5554  0.2015
 2041TIP3    H227615   5.381   5.743  16.256  0.2713  0.5668  0.0141
 2042TIP3   OH227616   3.032   4.224  14.582 -0.7901 -0.1740 -0.3613
 2042TIP3    H127617   2.987   4.302  14.551 -1.1766 -0.0923  0.3711
 2042TIP3    H227618   3.122   4.233  14.550 -0.8107  0.6142 -0.2157
 2043TIP3   OH227619   1.735   1.978   0.034  0.6739  0.3123 -0.1843
 2043TIP3    H127620   1.709   1.961  -0.057 -0.1384 -1.4542  0.3275
 2043TIP3    H227621   1.828   2.001   0.030  0.2585  1.9471 -1.6005
 2044TIP3   OH227622   4.675   0.408  10.827 -0.1991  0.1076  0.0270
 2044TIP3    H127623   4.705   0.486  10.874 -0.3149 -0.4020  0.9596
 2044TIP3    H227624   4.755   0.357  10.814 -0.0432  0.5793 -1.0019
 2045TIP3   OH227625   1.380   0.634   2.382 -0.1257 -0.0810  0.0275
 2045TIP3    H127626   1.292   0.635   2.344 -0.0041 -0.0454 -0.2564
 2045TIP3    H227627   1.433   0.588   2.318 -0.4005 -2.2142  1.2477
 2046TIP3   OH227628   4.715   3.105   3.045 -0.1866 -0.1764  0.0583
 2046TIP3    H127629   4.798   3.100   2.999  0.8183 -0.8956  1.8598
 2046TIP3    H227630   4.657   3.047   2.997  1.2786 -2.1217  0.5178
 2047TIP3   OH227631   2.938   4.021  15.763 -0.0956  0.9053  0.7536
 2047TIP3    H127632   2.865   4.037  15.703 -0.3973  1.2376  1.1974
 2047TIP3    H227633   2.946   4.103  15.812  1.1020  1.1647  0.1595
 2048TIP3   OH227634   0.738   0.731   0.630 -0.5001 -0.2539 -0.4561
 2048TIP3    H127635   0.657   0.753   0.582 -2.0711 -0.4386  1.9103
 2048TIP3    H227636   0.707   0.708   0.718  2.0583 -1.7234  0.1308
 2049TIP3   OH227637   5.609   1.844  11.361 -0.6583 -0.5090 -0.3939
 2049TIP3    H127638   5.562   1.782  11.306 -0.2993 -2.0294  0.9526
 2049TIP3    H227639   5.661   1.896  11.300 -2.1103 -0.5060 -1.6735
 2050TIP3   OH227640   3.861   6.765  16.321 -0.3358 -0.0602  0.1490
 2050TIP3    H127641   3.773   6.780  16.287  0.0473  0.8996 -0.4476
 2050TIP3    H227642   3.883   6.845  16.368 -0.2806 -0.8056  1.4502
 2051TIP3   OH227643   6.320   3.767  11.656 -0.1413 -0.1960  0.1670
 2051TIP3    H127644   6.257   3.696  11.644  0.8959 -1.2801  0.9445
 2051TIP3    H227645   6.341   3.765  11.749 -1.1374  2.0643  0.4939
 2052TIP3   OH227646   1.058   4.521  11.034  0.4923 -0.4633 -0.2552
 2052TIP3    H127647   1.017   4.438  11.007 -1.7348  0.5541 -0.2394
 2052TIP3    H227648   1.058   4.574  10.954 -0.3634  0.3546  0.2664
 2053TIP3   OH227649   2.971   2.374   6.141  0.7533  0.3979 -0.1758
 2053TIP3    H127650   2.945   2.310   6.207 -1.7434 -0.7915 -2.1358
 2053TIP3    H227651   2.922   2.453   6.164  1.7486  0.7830  0.7020
 2054TIP3   OH227652   3.104   3.083   4.187  0.1462  0.1125 -0.4039
 2054TIP3    H127653   3.197   3.072   4.209 -0.3555 -0.0545  1.7635
 2054TIP3    H227654   3.104   3.093   4.091  2.5547  1.7568 -0.3358
 2055TIP3   OH227655   6.577   1.293  12.425  0.2048  0.5654  0.2703
 2055TIP3    H127656   6.599   1.362  12.362  1.4757 -0.3845 -0.3643
 2055TIP3    H227657   6.608   1.325  12.509  2.4661  0.0367 -0.3132
 2056TIP3   OH227658   2.187   5.357  15.321  0.0413  0.2087  0.2428
 2056TIP3    H127659   2.189   5.444  15.362 -1.2888  0.4717 -0.1993
 2056TIP3    H227660   2.276   5.323  15.332  0.8288  1.9695 -0.3011
 2057TIP3   OH227661   6.367   1.622  15.240  0.7890 -0.6680 -0.3237
 2057TIP3    H127662   6.351   1.708  15.278  0.0525 -0.4052 -1.1775
 2057TIP3    H227663   6.393   1.566  15.313  2.5797  0.5898  0.0503
 2058TIP3   OH227664   0.031   0.256  14.281 -0.2390 -0.6430  0.4162
 2058TIP3    H127665  -0.029   0.308  14.228  0.3222 -0.2895  0.1269
 2058TIP3    H227666  -0.008   0.257  14.369 -0.9459 -0.8822  0.1182
 2059TIP3   OH227667   4.169   1.168   4.424  0.1203 -0.6906  0.5541
 2059TIP3    H127668   4.245   1.190   4.369 -0.9221  1.0169 -0.2799
 2059TIP3    H227669   4.169   1.234   4.493  0.8618 -2.2599  2.1293
 2060TIP3   OH227670   2.987   3.638  16.437 -0.7379  0.1984 -0.4393
 2060TIP3    H127671   2.982   3.609  16.346  0.3106  2.1988 -1.1993
 2060TIP3    H227672   2.984   3.733  16.432 -0.3316  0.3608  1.5993
 2061TIP3   OH227673   6.521   2.333   5.459  0.0054 -0.2275  0.0973
 2061TIP3    H127674   6.504   2.281   5.537  1.6538  2.5458  2.5022
 2061TIP3    H227675   6.601   2.296   5.422 -0.4857 -1.2249  0.0149
 2062TIP3   OH227676   4.429   6.687  16.344 -0.3425  0.1395 -0.3521
 2062TIP3    H127677   4.433   6.721  16.434 -1.5482  0.6425 -0.4573
 2062TIP3    H227678   4.344   6.717  16.312 -0.8912 -1.8746 -0.9288
 2063TIP3   OH227679   4.610   4.607  12.271 -0.5712 -0.0350  0.1909
 2063TIP3    H127680   4.572   4.587  12.357 -1.3554  1.2152  0.1624
 2063TIP3    H227681   4.550   4.567  12.208 -0.9956  0.5765  0.1926
 2064TIP3   OH227682   5.560   5.389  11.923 -0.1530 -0.3162 -0.6649
 2064TIP3    H127683   5.608   5.320  11.877  0.7101 -0.2716  0.1478
 2064TIP3    H227684   5.473   5.351  11.939  0.5593 -1.5484  0.4858
 2065TIP3   OH227685   1.011   4.480  12.186 -0.4190  0.0800  0.0743
 2065TIP3    H127686   0.973   4.474  12.274  2.1044  1.7105  1.3864
 2065TIP3    H227687   1.089   4.425  12.190  0.4258  1.1838 -0.7071
 2066TIP3   OH227688   1.125   3.987   1.679 -0.1487  0.2915 -0.4515
 2066TIP3    H127689   1.153   4.046   1.748 -1.1681 -0.0178  0.2523
 2066TIP3    H227690   1.059   4.036   1.631 -0.0091  0.2193 -0.7182
 2067TIP3   OH227691   0.947   0.911  15.717  0.2901 -0.2756  0.2465
 2067TIP3    H127692   1.036   0.901  15.751  1.0389 -0.7597 -1.7399
 2067TIP3    H227693   0.896   0.845  15.764  0.9674 -0.0372  1.3563
 2068TIP3   OH227694   1.458   5.891   5.890 -0.4282  0.0044 -0.1423
 2068TIP3    H127695   1.392   5.822   5.884 -0.7813  0.4793 -2.6811
 2068TIP3    H227696   1.417   5.958   5.945 -1.9000  0.0672 -1.2433
 2069TIP3   OH227697   4.505   5.594  10.575  0.3133  0.3717  0.0318
 2069TIP3    H127698   4.496   5.689  10.569  1.6232  0.4423 -1.6629
 2069TIP3    H227699   4.424   5.564  10.616  0.1748  2.2666  1.2333
 2070TIP3   OH227700   3.952   2.335  11.093  0.0570  0.0081 -0.1103
 2070TIP3    H127701   3.914   2.279  11.161  0.0064  0.0920 -0.0701
 2070TIP3    H227702   3.880   2.350  11.032  0.5338 -1.4533 -1.0737
 2071TIP3   OH227703   2.078   4.005  14.216  0.4978 -0.0312 -0.2280
 2071TIP3    H127704   2.056   4.037  14.128  2.1320  0.1390 -0.5977
 2071TIP3    H227705   2.149   3.942  14.202  1.3653  0.6255  1.0442
 2072TIP3   OH227706   4.353   4.494  11.584  0.0849  0.4725 -0.3612
 2072TIP3    H127707   4.303   4.506  11.665 -0.1377 -0.9124 -0.2644
 2072TIP3    H227708   4.424   4.557  11.589 -0.9225  1.6035  0.0976
 2073TIP3   OH227709   5.896   0.596  16.824  0.1135 -0.2650  0.5204
 2073TIP3    H127710   5.947   0.667  16.861 -3.8130  2.7536  0.7561
 2073TIP3    H227711   5.935   0.581  16.737  1.2093  2.0778  0.5294
 2074TIP3   OH227712   5.333   0.622   1.080 -0.2396  0.2926 -0.3342
 2074TIP3    H127713   5.371   0.580   1.003 -1.8376  0.1667 -1.0887
 2074TIP3    H227714   5.399   0.686   1.107  0.7306 -0.2962 -1.2498
 2075TIP3   OH227715   3.519   4.638   5.922  0.3052 -0.7136  0.1870
 2075TIP3    H127716   3.531   4.729   5.893 -1.5345 -0.8050 -0.9857
 2075TIP3    H227717   3.556   4.637   6.010  0.9869  0.9947 -0.0260
 2076TIP3   OH227718   2.373   1.293  14.923 -0.3686  0.5176  0.1263
 2076TIP3    H127719   2.468   1.284  14.919 -0.5156 -2.0237  0.6168
 2076TIP3    H227720   2.352   1.278  15.015 -1.1751  2.8054  0.3812
 2077TIP3   OH227721   1.305   2.477  14.860 -0.2041  0.3729 -0.0677
 2077TIP3    H127722   1.378   2.416  14.864 -0.1954  0.4405  1.1613
 2077TIP3    H227723   1.304   2.507  14.769  0.7563 -0.2715 -0.3070
 2078TIP3   OH227724   3.074   4.937  14.175 -0.2638  0.4646 -0.1520
 2078TIP3    H127725   3.140   5.006  14.171 -0.8433  1.0129 -0.5264
 2078TIP3    H227726   3.030   4.950  14.259 -0.1303  0.3186 -0.0587
 2079TIP3   OH227727   5.888   2.136  16.258 -0.1438  0.1106 -0.0168
 2079TIP3    H127728   5.922   2.058  16.302 -0.2599  0.4157  0.6307
 2079TIP3    H227729   5.957   2.202  16.269 -0.3089  0.2831 -0.0072
 2080TIP3   OH227730   2.767   4.757  12.802  0.1771 -0.6189  0.5792
 2080TIP3    H127731   2.859   4.754  12.826  0.4771  2.1775  0.1712
 2080TIP3    H227732   2.761   4.708  12.720  1.7588  0.8617 -0.4867
 2081TIP3   OH227733   1.786   6.814  11.783  0.2853  0.1619 -0.2141
 2081TIP3    H127734   1.702   6.780  11.815  0.7339 -0.2510  0.5489
 2081TIP3    H227735   1.774   6.819  11.688 -0.3903 -0.4929 -0.1818
 2082TIP3   OH227736   2.644   3.911  13.127  0.3964  0.2098 -0.1939
 2082TIP3    H127737   2.633   3.978  13.060  0.4243  2.1672  1.6581
 2082TIP3    H227738   2.572   3.925  13.188  0.6868 -1.1297  0.5063
 2083TIP3   OH227739   0.501   0.887  11.841 -0.0801 -1.1429 -0.3590
 2083TIP3    H127740   0.531   0.806  11.801  2.9141 -0.2442 -0.1485
 2083TIP3    H227741   0.532   0.883  11.931 -2.1589 -0.8317  0.4459
 2084TIP3   OH227742   5.298   2.631   3.299  0.9064 -0.3519  0.1867
 2084TIP3    H127743   5.317   2.571   3.227  1.0839 -1.5747  1.2285
 2084TIP3    H227744   5.203   2.627   3.310  0.8219  0.1977 -0.2618
 2085TIP3   OH227745   5.866   4.506  12.052 -0.8249 -0.2388 -0.4076
 2085TIP3    H127746   5.943   4.476  12.003 -1.1748 -1.1719 -0.4168
 2085TIP3    H227747   5.824   4.425  12.082 -0.7943  0.2967  1.1742
 2086TIP3   OH227748   6.606   1.754  16.806 -0.2410 -0.7243  0.7692
 2086TIP3    H127749   6.580   1.846  16.799 -2.4967 -1.3830 -0.8902
 2086TIP3    H227750   6.538   1.714  16.862  0.3685 -1.4909  0.9814
 2087TIP3   OH227751   5.920   5.367   4.656 -0.4809  0.0337  0.5800
 2087TIP3    H127752   5.946   5.448   4.612 -0.0129 -0.0189  0.7443
 2087TIP3    H227753   5.844   5.336   4.608  0.2841 -0.2670 -0.4770
 2088TIP3   OH227754   3.793   6.089  11.889  0.5444  0.6953  0.0385
 2088TIP3    H127755   3.725   6.153  11.911 -1.9339 -1.6912 -0.0198
 2088TIP3    H227756   3.761   6.047  11.809  2.5360  0.0241 -0.4524
 2089TIP3   OH227757   5.335   0.862   0.336 -0.1402  0.0667 -0.1351
 2089TIP3    H127758   5.279   0.817   0.399 -1.7155 -1.0754 -2.1991
 2089TIP3    H227759   5.415   0.809   0.334 -1.4334 -2.0066 -1.5218
 2090TIP3   OH227760   4.193   2.131  16.335  0.0524  0.3728  0.0558
 2090TIP3    H127761   4.287   2.148  16.332  0.0269  0.9620  1.5937
 2090TIP3    H227762   4.168   2.112  16.245  1.9033 -1.2249 -0.1716
 2091TIP3   OH227763   0.510   5.460  15.688  0.2376 -1.1424 -0.5583
 2091TIP3    H127764   0.546   5.372  15.697 -0.5166 -1.3863  0.2249
 2091TIP3    H227765   0.423   5.454  15.728  0.7896  0.3418  1.0175
 2092TIP3   OH227766   6.288   1.978  14.734  0.2611  0.4616 -1.0897
 2092TIP3    H127767   6.372   2.013  14.705  0.4814  0.0453 -0.9632
 2092TIP3    H227768   6.301   1.883  14.736  0.0925  0.4480 -0.1414
 2093TIP3   OH227769   2.592   3.909  15.799 -0.2773  0.3379  0.0161
 2093TIP3    H127770   2.591   3.831  15.854  1.0292 -0.5000 -1.0688
 2093TIP3    H227771   2.681   3.912  15.763 -1.0058  0.9362 -1.8819
 2094TIP3   OH227772   1.753   2.271   2.853 -0.1282 -0.1156  0.3499
 2094TIP3    H127773   1.773   2.230   2.937  0.3109  1.0474  0.8270
 2094TIP3    H227774   1.838   2.296   2.817 -0.0695 -2.5355 -1.5130
 2095TIP3   OH227775   0.752   5.659   0.923  0.3382 -0.6739 -0.2139
 2095TIP3    H127776   0.802   5.578   0.938 -0.5532 -1.2867 -0.4536
 2095TIP3    H227777   0.818   5.728   0.921  1.2071 -1.4919 -0.7766
 2096TIP3   OH227778   2.602   6.654  15.430 -0.3288 -0.0032  0.0422
 2096TIP3    H127779   2.601   6.707  15.510  1.0544  2.6287 -1.5304
 2096TIP3    H227780   2.663   6.700  15.372  0.7926 -3.2520 -1.6096
 2097TIP3   OH227781   0.716   4.717  10.730  0.3449  0.1452  0.1395
 2097TIP3    H127782   0.784   4.684  10.671  0.6006 -0.5997  0.8294
 2097TIP3    H227783   0.699   4.644  10.790 -0.4182  0.6373  0.5384
 2098TIP3   OH227784   3.952   5.254   0.609 -0.3628 -0.3820 -0.3495
 2098TIP3    H127785   3.967   5.332   0.557 -1.6998  0.4143  0.4090
 2098TIP3    H227786   3.872   5.272   0.658 -0.4976 -2.0805  0.1276
 2099TIP3   OH227787   3.360   0.939   4.064  0.6300  0.6823 -0.1627
 2099TIP3    H127788   3.389   0.882   4.135  0.0573 -1.1343 -1.3068
 2099TIP3    H227789   3.412   0.910   3.988  1.4131  2.7340 -0.4677
 2100TIP3   OH227790   2.292   5.883  12.477 -0.2357 -0.1624  0.6088
 2100TIP3    H127791   2.242   5.803  12.462 -1.5486  0.3420  2.0370
 2100TIP3    H227792   2.358   5.858  12.542  1.2103 -0.7387 -1.0130
 2101TIP3   OH227793   2.048   0.260   1.048  0.0706 -0.3253 -0.3482
 2101TIP3    H127794   2.117   0.210   1.003 -0.9667 -1.0321 -1.1980
 2101TIP3    H227795   2.071   0.253   1.141  2.2089  1.0962 -0.6893
 2102TIP3   OH227796   3.041   5.978  13.578  0.4004 -0.2734  0.4813
 2102TIP3    H127797   3.016   6.070  13.576 -2.5046 -0.8722  2.2383
 2102TIP3    H227798   3.069   5.962  13.669  0.6157 -1.1735  0.2701
 2103TIP3   OH227799   2.308   5.522   0.982 -0.3330  0.0722  0.3104
 2103TIP3    H127800   2.219   5.523   0.947  0.4595 -0.3933 -1.8188
 2103TIP3    H227801   2.298   5.553   1.073 -2.4837  1.2535 -0.2624
 2104TIP3   OH227802   1.067   5.808   4.618 -0.2214 -0.0974 -0.2519
 2104TIP3    H127803   1.145   5.816   4.673 -0.4944 -1.0635  0.3129
 2104TIP3    H227804   1.093   5.843   4.533  0.3853  0.9175  0.3271
 2105TIP3   OH227805   1.881   0.661  14.442  0.9114 -0.2630 -0.2193
 2105TIP3    H127806   1.925   0.634  14.361  0.1393 -0.6461 -0.5250
 2105TIP3    H227807   1.952   0.678  14.503  1.4981 -0.4297 -0.8358
 2106TIP3   OH227808   3.381   3.059   2.887 -0.1557 -0.0445 -0.5403
 2106TIP3    H127809   3.435   2.980   2.893 -0.2640 -0.2740 -2.2511
 2106TIP3    H227810   3.341   3.055   2.800  0.0137  2.0230 -0.7522
 2107TIP3   OH227811   6.095   6.191  12.179 -0.1375  1.0164 -0.2810
 2107TIP3    H127812   6.076   6.207  12.271  0.7617  2.8917 -0.3662
 2107TIP3    H227813   6.153   6.263  12.154 -0.3386  0.5316 -2.3110
 2108TIP3   OH227814   1.607   4.234  12.177  0.0497 -0.1247  0.3822
 2108TIP3    H127815   1.542   4.178  12.220 -0.6742  1.3473  1.2746
 2108TIP3    H227816   1.558   4.310  12.147  1.0810  0.2314 -0.4853
 2109TIP3   OH227817   2.156   4.976   5.658 -0.1503  0.0648 -0.6795
 2109TIP3    H127818   2.212   5.025   5.719  0.3880 -1.1040 -0.2135
 2109TIP3    H227819   2.153   4.887   5.693 -2.6874  0.1687 -0.4471
 2110TIP3   OH227820   1.701   1.979   0.320  0.0139 -0.5550 -0.3698
 2110TIP3    H127821   1.782   2.015   0.284 -1.8034  3.0990 -1.4044
 2110TIP3    H227822   1.719   1.967   0.413  2.2388 -1.6371 -0.8944
 2111TIP3   OH227823   4.017   5.926  14.577  0.5687  0.0238 -0.4452
 2111TIP3    H127824   4.043   5.862  14.511 -1.0880 -0.6958 -0.4419
 2111TIP3    H227825   4.059   5.895  14.658 -1.4613 -2.0416 -0.0816
 2112TIP3   OH227826   5.713   5.384  16.726  0.2861  0.6312  0.3895
 2112TIP3    H127827   5.701   5.461  16.671  2.0968  1.3349  0.9155
 2112TIP3    H227828   5.807   5.383  16.747  0.4128 -1.9256  0.0901
 2113TIP3   OH227829   6.545   3.939  13.819 -0.0518 -0.0088 -0.4070
 2113TIP3    H127830   6.584   4.010  13.769  0.3815 -1.3212 -2.0444
 2113TIP3    H227831   6.609   3.868  13.813 -0.1830 -0.3575  1.7196
 2114TIP3   OH227832   5.548   2.242  14.637 -0.0992 -0.3568 -0.6849
 2114TIP3    H127833   5.463   2.221  14.599  0.5525 -0.2474 -2.2707
 2114TIP3    H227834   5.556   2.337  14.626 -0.8416  0.0970  1.8478
 2115TIP3   OH227835   1.167   3.553   0.095  0.0853  0.1931  0.4791
 2115TIP3    H127836   1.245   3.526   0.047 -1.7522 -0.9340 -2.0872
 2115TIP3    H227837   1.148   3.641   0.064 -1.2028 -0.6006 -1.1402
 2116TIP3   OH227838   3.643   2.700   0.832 -0.0914 -0.1546  0.4283
 2116TIP3    H127839   3.571   2.748   0.871  0.2696  1.1270 -0.4040
 2116TIP3    H227840   3.711   2.766   0.817  0.0964 -0.7153 -1.5709
 2117TIP3   OH227841   5.862   5.120  16.474 -0.7686 -0.0578  0.8081
 2117TIP3    H127842   5.797   5.187  16.453 -0.6190  0.4613  1.9251
 2117TIP3    H227843   5.930   5.167  16.521 -0.1791 -0.8217  0.7314
 2118TIP3   OH227844   0.368   3.323  12.259 -0.1254  0.3104 -0.6883
 2118TIP3    H127845   0.311   3.371  12.320 -1.1713 -1.1804 -0.4440
 2118TIP3    H227846   0.319   3.321  12.177  0.9267  1.6049 -1.3917
 2119TIP3   OH227847   4.442   1.911  13.539 -0.0254 -0.2906  0.2262
 2119TIP3    H127848   4.465   1.974  13.471 -0.4069  1.6286  1.7819
 2119TIP3    H227849   4.346   1.913  13.542 -0.0754 -1.5355 -0.2130
 2120TIP3   OH227850   2.377   1.967  15.999  0.0990 -0.6051 -0.3908
 2120TIP3    H127851   2.466   1.984  16.031  0.1054 -0.1676 -0.6358
 2120TIP3    H227852   2.385   1.886  15.949  0.7525  0.4030 -1.9830
 2121TIP3   OH227853   1.035   2.791  17.103  0.5437  0.1054  0.2209
 2121TIP3    H127854   0.944   2.781  17.129  0.0978 -1.0203 -1.5875
 2121TIP3    H227855   1.038   2.759  17.013  2.5640  0.9177 -0.0624
 2122TIP3   OH227856   2.395   5.148   2.326  0.1669 -0.1810 -0.4721
 2122TIP3    H127857   2.374   5.056   2.313  2.2515 -0.5078 -1.9917
 2122TIP3    H227858   2.336   5.195   2.267 -0.1336 -0.6301 -0.5347
 2123TIP3   OH227859   4.932   5.335  11.620  0.0178 -0.3960 -0.7328
 2123TIP3    H127860   4.953   5.371  11.706 -0.7056  0.1899 -0.7924
 2123TIP3    H227861   4.953   5.406  11.559  0.1137 -0.6551 -1.0034
 2124TIP3   OH227862   5.457   1.235  15.887 -0.5184 -0.8085  0.4561
 2124TIP3    H127863   5.431   1.170  15.822  1.2296  0.4836 -1.7042
 2124TIP3    H227864   5.506   1.186  15.952  0.5512 -1.7575 -0.9949
 2125TIP3   OH227865   2.721   6.530   2.631  0.2259  0.6408 -0.0956
 2125TIP3    H127866   2.676   6.608   2.664 -0.4129 -0.4976  1.9294
 2125TIP3    H227867   2.779   6.504   2.703 -0.7667 -1.6169 -0.0100
 2126TIP3   OH227868   1.287   5.871  12.545 -0.5771 -0.7828  0.3059
 2126TIP3    H127869   1.225   5.808  12.581 -0.3323 -1.1068  0.1555
 2126TIP3    H227870   1.296   5.847  12.453 -1.7724  0.4957 -0.1819
 2127TIP3   OH227871   1.579   2.612   4.937 -0.3913  0.0146 -0.1237
 2127TIP3    H127872   1.628   2.537   4.970  1.1631  1.1440  0.2504
 2127TIP3    H227873   1.540   2.652   5.015 -0.1342  0.3218 -0.1486
 2128TIP3   OH227874   4.603   4.596  15.564 -0.4378  0.2694 -0.2960
 2128TIP3    H127875   4.676   4.600  15.502 -1.9946  0.0153 -2.2029
 2128TIP3    H227876   4.618   4.515  15.613  0.9688  0.6224 -0.0833
 2129TIP3   OH227877   0.456   0.220  16.288 -0.7069  0.3464  0.0870
 2129TIP3    H127878   0.468   0.126  16.276 -0.0610  0.3505  0.6582
 2129TIP3    H227879   0.361   0.232  16.294 -0.8159 -0.2003 -0.5097
 2130TIP3   OH227880   3.271   3.969   4.755 -0.0526  0.5946  0.3911
 2130TIP3    H127881   3.299   4.030   4.823  1.5826  0.7868 -0.3953
 2130TIP3    H227882   3.303   4.008   4.674  0.4943 -0.9905 -0.1999
 2131TIP3   OH227883   3.542   6.678  10.437 -0.5028 -0.0715 -0.2615
 2131TIP3    H127884   3.476   6.625  10.393  0.1910  0.2704 -1.7976
 2131TIP3    H227885   3.508   6.767  10.434 -0.1092  0.0682 -0.8367
 2132TIP3   OH227886   0.584   1.716  10.796  0.4884 -0.0975 -0.2615
 2132TIP3    H127887   0.658   1.746  10.743  0.0998 -0.0882 -0.8135
 2132TIP3    H227888   0.535   1.658  10.737  1.4009 -2.1382  0.8612
 2133TIP3   OH227889   4.285   2.486  10.480 -1.0725  0.1710  0.1213
 2133TIP3    H127890   4.332   2.565  10.454 -1.4240  0.3461  0.0269
 2133TIP3    H227891   4.218   2.474  10.413 -1.1384 -0.1063  0.2351
 2134TIP3   OH227892   4.761   6.498  14.576  0.1311  0.5054 -0.2650
 2134TIP3    H127893   4.808   6.437  14.519 -1.6167 -0.1327 -1.1129
 2134TIP3    H227894   4.672   6.497  14.542 -0.3540  2.1572  0.8705
 2135TIP3   OH227895   6.366   2.692   0.546  0.7607 -0.6080  0.1674
 2135TIP3    H127896   6.361   2.774   0.595 -1.2593 -1.3272  1.2862
 2135TIP3    H227897   6.383   2.625   0.613  1.5858 -1.2225 -0.6211
 2136TIP3   OH227898   6.306   6.542   4.255  0.5681  0.0793 -0.1892
 2136TIP3    H127899   6.328   6.511   4.342  2.3254  0.0343 -0.6046
 2136TIP3    H227900   6.244   6.613   4.269  1.6527  0.7913  1.1671
 2137TIP3   OH227901   3.401   6.508  13.283 -0.3268 -0.0546 -0.3267
 2137TIP3    H127902   3.378   6.600  13.275 -0.4681  0.0816  1.2969
 2137TIP3    H227903   3.319   6.465  13.309 -0.3735 -0.7318 -1.5063
 2138TIP3   OH227904   2.650   5.199   2.452 -0.3748  0.4185  0.3665
 2138TIP3    H127905   2.646   5.159   2.539  0.0122  0.8700  0.5998
 2138TIP3    H227906   2.566   5.176   2.411 -0.7756  0.6303  1.0501
 2139TIP3   OH227907   0.374   6.373  15.306 -0.1138  0.1068  0.0559
 2139TIP3    H127908   0.442   6.324  15.261 -0.9766  0.1525 -1.3819
 2139TIP3    H227909   0.419   6.447  15.346  0.4414  1.4372 -2.7946
 2140TIP3   OH227910   0.388   1.205   5.305  0.5876 -0.6043  0.3629
 2140TIP3    H127911   0.381   1.259   5.226 -1.2878 -0.6352  0.4590
 2140TIP3    H227912   0.470   1.157   5.294  0.8712  0.1431 -1.0756
 2141TIP3   OH227913   5.087   6.647  12.538 -0.3239  0.4789 -0.2367
 2141TIP3    H127914   5.170   6.600  12.541 -0.2731  0.5367 -0.6760
 2141TIP3    H227915   5.096   6.716  12.603  0.3657  1.1221 -0.9836
 2142TIP3   OH227916   2.885   0.817   6.390  0.1255 -0.4251 -0.1437
 2142TIP3    H127917   2.865   0.894   6.336  2.9497  1.1114  0.8331
 2142TIP3    H227918   2.931   0.758   6.331 -3.4478 -2.2984 -1.3591
 2143TIP3   OH227919   6.348   4.275   3.832  0.2308 -0.2338  0.7075
 2143TIP3    H127920   6.341   4.285   3.737  1.7325 -0.3012  0.5672
 2143TIP3    H227921   6.346   4.364   3.866 -0.3042 -0.2093  0.6264
 2144TIP3   OH227922   0.369   2.297  14.222  0.2117 -0.2304 -1.2341
 2144TIP3    H127923   0.339   2.388  14.222  0.0579 -0.2701 -0.0157
 2144TIP3    H227924   0.338   2.262  14.138 -2.3177  0.0132 -0.4886
 2145TIP3   OH227925   2.873   2.497  16.615 -0.0611  0.0971  0.1703
 2145TIP3    H127926   2.888   2.523  16.524  0.5229 -0.3823  0.1248
 2145TIP3    H227927   2.901   2.572  16.667  0.1566  0.1504 -0.0234
 2146TIP3   OH227928   3.893   2.980  11.182  0.3593 -0.4385 -0.2143
 2146TIP3    H127929   3.913   3.009  11.093 -0.7193 -0.2021 -0.3932
 2146TIP3    H227930   3.963   2.918  11.203  1.1049  0.1401 -0.8968
 2147TIP3   OH227931   6.434   2.573   4.612  0.3752 -0.4877 -0.2405
 2147TIP3    H127932   6.386   2.492   4.596  2.1154 -1.4458 -0.7974
 2147TIP3    H227933   6.498   2.578   4.541  0.7555  1.0322  0.1700
 2148TIP3   OH227934   5.478   1.265  16.850 -0.0788 -0.2632 -0.6118
 2148TIP3    H127935   5.402   1.211  16.828 -0.3001 -0.1758 -0.0824
 2148TIP3    H227936   5.532   1.265  16.770 -0.8595  0.0636 -1.1454
 2149TIP3   OH227937   2.217   4.566  12.015 -0.1672  0.3147  0.2378
 2149TIP3    H127938   2.203   4.648  12.062 -0.1114 -0.8041  2.3048
 2149TIP3    H227939   2.130   4.526  12.010 -0.4516  1.0999 -2.0295
 2150TIP3   OH227940   3.446   0.537  15.441 -0.6609 -0.4641 -0.3692
 2150TIP3    H127941   3.415   0.602  15.378  0.0871 -0.2593 -0.5367
 2150TIP3    H227942   3.400   0.457  15.418 -2.7747  0.3234  0.7871
 2151TIP3   OH227943   5.081   0.646   1.192 -0.2814  0.0106  0.7250
 2151TIP3    H127944   5.026   0.715   1.156  0.7333  0.8376  0.7074
 2151TIP3    H227945   5.169   0.665   1.158 -0.0792 -1.6665  0.1738
 2152TIP3   OH227946   6.421   1.777  11.711 -0.0317 -0.7764 -0.3893
 2152TIP3    H127947   6.448   1.814  11.795 -3.0458 -0.3945  0.5508
 2152TIP3    H227948   6.419   1.852  11.651  2.6193 -1.1356 -1.0377
 2153TIP3   OH227949   5.216   5.606   3.096 -0.0153 -0.0815  0.0592
 2153TIP3    H127950   5.311   5.608   3.082  0.0400 -1.2540  0.2201
 2153TIP3    H227951   5.180   5.586   3.010  0.0050 -1.5297  0.3647
 2154TIP3   OH227952   4.816   1.844   1.217 -0.2528 -0.0050 -0.5253
 2154TIP3    H127953   4.869   1.880   1.288  0.1081  0.6829 -1.1316
 2154TIP3    H227954   4.725   1.857   1.245 -0.1219 -1.4021  0.6249
 2155TIP3   OH227955   2.028   1.396  16.542  0.0271 -0.3664 -0.0042
 2155TIP3    H127956   2.053   1.410  16.634  2.9287 -3.7419 -0.0462
 2155TIP3    H227957   1.949   1.343  16.547  0.8125 -1.5155  0.6341
 2156TIP3   OH227958   1.306   1.303   5.396 -0.3776 -0.3006  0.0144
 2156TIP3    H127959   1.355   1.221   5.395  0.4971  0.2000 -1.0174
 2156TIP3    H227960   1.237   1.289   5.460  0.1771 -1.5909  0.3707
 2157TIP3   OH227961   1.163   5.320   1.052  0.0391 -0.2753  0.1256
 2157TIP3    H127962   1.172   5.376   1.129  1.6488  0.2160 -0.3728
 2157TIP3    H227963   1.239   5.341   0.998 -0.1998 -1.7629 -0.8589
 2158TIP3   OH227964   6.116   1.901  14.363 -0.3238  0.2820  0.0935
 2158TIP3    H127965   6.031   1.893  14.320 -1.0549 -2.8250  1.8570
 2158TIP3    H227966   6.095   1.926  14.453  0.5406 -1.2329  0.7419
 2159TIP3   OH227967   2.305   3.749  12.292 -0.0624 -0.1578  0.5525
 2159TIP3    H127968   2.353   3.819  12.249  0.7861 -0.9953  0.0834
 2159TIP3    H227969   2.253   3.792  12.360  0.1824  0.9437  0.0492
 2160TIP3   OH227970   1.239   1.696   0.285 -0.3702  0.7645  0.0623
 2160TIP3    H127971   1.236   1.631   0.356 -4.4198 -1.4310 -1.8238
 2160TIP3    H227972   1.262   1.646   0.207 -0.9600  2.1137 -1.0204
 2161TIP3   OH227973   3.082   5.832  15.659 -0.4435  0.4046 -0.1025
 2161TIP3    H127974   3.046   5.917  15.635  1.3011  1.4751  0.8414
 2161TIP3    H227975   3.075   5.828  15.754  0.4890 -0.0146 -0.0402
 2162TIP3   OH227976   3.370   0.653  14.992 -0.2917  0.3163 -0.5413
 2162TIP3    H127977   3.275   0.648  14.983 -0.2936 -1.5989  0.0036
 2162TIP3    H227978   3.403   0.621  14.908 -0.1279  1.1789 -0.8049
 2163TIP3   OH227979   3.788   4.027  11.895 -0.5257  0.1874 -0.0340
 2163TIP3    H127980   3.812   3.942  11.932 -0.6905 -0.6590 -1.7612
 2163TIP3    H227981   3.770   4.082  11.971 -0.3304 -1.2883  1.1308
 2164TIP3   OH227982   3.042   4.607   0.211  0.3254  0.2468 -0.3641
 2164TIP3    H127983   3.123   4.573   0.173 -0.1934 -2.6205  0.8334
 2164TIP3    H227984   2.974   4.579   0.150 -0.1428 -1.1720  0.7676
 2165TIP3   OH227985   1.471   5.560   4.740  0.4260 -0.4081 -0.1769
 2165TIP3    H127986   1.382   5.546   4.774  0.4470  0.8081  0.4502
 2165TIP3    H227987   1.468   5.530   4.650 -0.5043 -0.7920 -0.0252
 2166TIP3   OH227988   2.960   6.807  14.091 -0.1481 -0.4771  0.3705
 2166TIP3    H127989   2.902   6.797  14.015 -1.1306 -0.8644  1.1460
 2166TIP3    H227990   3.025   6.872  14.063  0.4716 -1.7603 -1.3484
 2167TIP3   OH227991   0.625   4.132  12.069  0.1161 -0.2641  0.0039
 2167TIP3    H127992   0.627   4.164  12.159  2.8649 -0.9174  0.2423
 2167TIP3    H227993   0.567   4.056  12.072 -1.5770  0.9630  0.6869
 2168TIP3   OH227994   5.143   3.631   5.778 -0.0008  0.4956 -0.1765
 2168TIP3    H127995   5.058   3.648   5.817 -0.5537  0.6678 -1.4100
 2168TIP3    H227996   5.201   3.697   5.816 -0.4299  0.4370  0.5945
 2169TIP3   OH227997   4.870   2.200   4.973 -0.4015  0.2863  0.3804
 2169TIP3    H127998   4.780   2.170   4.984 -0.2225  0.1701  1.7023
 2169TIP3    H227999   4.864   2.295   4.976 -0.4017  0.2694  1.3614
 2170TIP3   OH228000   4.671   2.061  11.192  0.3620 -0.0461 -0.5375
 2170TIP3    H128001   4.609   2.060  11.265  1.1030 -0.7795  0.0973
 2170TIP3    H228002   4.634   1.999  11.129 -0.8682  1.4170 -1.3227
 2171TIP3   OH228003   0.050   2.078  15.149  0.4109 -0.5665  0.0663
 2171TIP3    H128004   0.098   2.123  15.218  1.2956 -0.4102 -0.6347
 2171TIP3    H228005   0.083   1.988  15.152  2.1010 -0.0535 -1.5673
 2172TIP3   OH228006   3.299   5.298  15.141  0.0230 -0.1402 -0.6867
 2172TIP3    H128007   3.272   5.384  15.175 -1.1213 -0.7461 -0.0003
 2172TIP3    H228008   3.360   5.319  15.070 -0.1288  1.2423 -0.4467
 2173TIP3   OH228009   0.139   4.846   4.758 -0.7921 -0.0443  0.2262
 2173TIP3    H128010   0.063   4.801   4.721  0.6512 -1.8424 -0.7597
 2173TIP3    H228011   0.204   4.843   4.688 -0.8356  4.5899 -0.3134
 2174TIP3   OH228012   1.254   4.955   1.909 -0.0345  0.2136 -0.3459
 2174TIP3    H128013   1.211   5.040   1.906  0.3565  0.4696  0.7441
 2174TIP3    H228014   1.187   4.896   1.947  0.3832  0.5128  0.9130
 2175TIP3   OH228015   2.088   3.173  12.474  0.0738  0.0056 -0.2513
 2175TIP3    H128016   2.012   3.163  12.417  0.0491  0.1389 -0.2419
 2175TIP3    H228017   2.061   3.137  12.558  0.3879 -0.9741 -0.5609
 2176TIP3   OH228018   5.092   1.588  12.016 -0.0438  0.8488  0.0568
 2176TIP3    H128019   5.053   1.652  11.956  2.3008 -0.5155 -3.1930
 2176TIP3    H228020   5.160   1.636  12.062 -0.0152  1.2941 -0.4451
 2177TIP3   OH228021   4.149   0.859   4.263 -0.2530 -0.4522 -0.7065
 2177TIP3    H128022   4.125   0.940   4.217  0.8965  0.3317  0.0117
 2177TIP3    H228023   4.098   0.862   4.344 -1.8983 -1.5875 -1.6308
 2178TIP3   OH228024   4.752   1.692   3.037 -0.4138 -0.0045 -0.6146
 2178TIP3    H128025   4.678   1.642   3.004 -1.1149  0.5018  0.1721
 2178TIP3    H228026   4.757   1.670   3.130 -0.1471  0.6600 -0.4633
 2179TIP3   OH228027   1.683   0.941   0.598 -0.1302  0.2823 -0.0337
 2179TIP3    H128028   1.693   0.921   0.691 -0.5817 -1.0012 -0.2349
 2179TIP3    H228029   1.671   1.036   0.595  0.5711  0.4267  1.1492
 2180TIP3   OH228030   2.104   1.555   5.519 -0.0060  0.1999  0.0467
 2180TIP3    H128031   2.169   1.625   5.523 -1.7551  1.9388 -0.3600
 2180TIP3    H228032   2.025   1.593   5.556 -1.0518 -1.5546 -0.2477
 2181TIP3   OH228033   0.572   0.606  16.290  0.5535 -0.5460  0.2183
 2181TIP3    H128034   0.648   0.549  16.283  0.6463 -0.2757 -1.5710
 2181TIP3    H228035   0.607   0.694  16.304  0.5548 -0.4982 -0.0754
 2182TIP3   OH228036   1.551   3.107   5.455  0.0033  0.2525  0.1765
 2182TIP3    H128037   1.602   3.092   5.375  1.2496 -0.1314  1.0208
 2182TIP3    H228038   1.616   3.128   5.521 -0.9991  0.3409  1.1574
 2183TIP3   OH228039   3.407   3.686   5.140  0.1483 -0.4934 -0.1275
 2183TIP3    H128040   3.450   3.754   5.193 -0.1699  0.0836 -0.5908
 2183TIP3    H228041   3.313   3.705   5.150 -0.3987 -3.7400  3.6662
 2184TIP3   OH228042   6.708   5.395   0.037  0.5255 -0.3039 -0.1522
 2184TIP3    H128043   6.635   5.379  -0.022  0.9187 -0.8291 -0.4963
 2184TIP3    H228044   6.671   5.451   0.106 -0.2037 -0.5989 -0.3006
 2185TIP3   OH228045   5.046   2.872  13.375 -0.3322 -0.8605 -0.2661
 2185TIP3    H128046   5.050   2.861  13.470  0.3679  0.5476 -0.0972
 2185TIP3    H228047   5.125   2.829  13.342 -0.0399 -0.4615 -0.0951
 2186TIP3   OH228048   2.665   1.640  16.113  0.4129 -0.4121  0.9475
 2186TIP3    H128049   2.632   1.569  16.168  2.7200 -2.5134 -0.1985
 2186TIP3    H228050   2.686   1.599  16.030  1.0183  1.8323 -0.0942
 2187TIP3   OH228051   5.084   4.920  16.587 -0.3226  0.4618 -0.2655
 2187TIP3    H128052   5.046   4.951  16.505  1.2415  2.2027 -0.3768
 2187TIP3    H228053   5.064   4.989  16.651  1.3262  0.7098  0.0145
 2188TIP3   OH228054   3.870   4.850   6.123 -0.8870 -0.1461  0.1919
 2188TIP3    H128055   3.938   4.901   6.078  0.7350 -1.4693  0.9927
 2188TIP3    H228056   3.919   4.798   6.187 -2.7944 -0.5175  1.4150
 2189TIP3   OH228057   0.961   3.999   4.064 -0.3385  0.5010 -0.0300
 2189TIP3    H128058   0.957   3.914   4.021  0.7916  0.6998 -0.5499
 2189TIP3    H228059   0.944   3.980   4.157  0.7979 -0.4195  0.0093
 2190TIP3   OH228060   4.150   5.287   5.985  0.3022  0.4131  0.2868
 2190TIP3    H128061   4.055   5.290   6.001  0.2056 -1.9701  0.5470
 2190TIP3    H228062   4.171   5.374   5.951 -2.2510  0.5321 -1.2882
 2191TIP3   OH228063   4.975   3.235   1.797 -0.2610  0.4074 -0.0623
 2191TIP3    H128064   4.991   3.329   1.800 -0.9636  0.5068  0.8661
 2191TIP3    H228065   4.880   3.227   1.785 -0.2223 -0.1875 -0.0334
 2192TIP3   OH228066   4.336   1.201  15.445 -0.3476  0.4800 -0.1534
 2192TIP3    H128067   4.302   1.120  15.407 -0.7687  0.5439  0.0874
 2192TIP3    H228068   4.316   1.194  15.538  0.6298  0.3445  0.0674
 2193TIP3   OH228069   5.024   3.287   1.267  0.2384 -0.3600 -0.2570
 2193TIP3    H128070   5.096   3.226   1.282  1.5531  0.9294 -1.0428
 2193TIP3    H228071   5.001   3.318   1.355 -0.5913 -2.0780  0.1734
 2194TIP3   OH228072   4.079   3.308   4.099  0.0469  0.4921 -0.1141
 2194TIP3    H128073   4.055   3.241   4.035  2.5739 -1.0417  0.4237
 2194TIP3    H228074   4.084   3.261   4.183 -0.1842  1.8068  0.6672
 2195TIP3   OH228075   3.829   0.725  11.436 -0.2013  0.0931 -0.2341
 2195TIP3    H128076   3.812   0.816  11.464  0.0979  0.3634 -0.9171
 2195TIP3    H228077   3.824   0.728  11.341  2.3280 -0.0682 -0.4333
 2196TIP3   OH228078   2.680   5.662  10.788 -0.7040  0.0408  0.0720
 2196TIP3    H128079   2.608   5.702  10.836 -0.6492  0.6814 -0.3613
 2196TIP3    H228080   2.650   5.659  10.697 -0.0689  0.6123 -0.1674
 2197TIP3   OH228081   2.028   3.186  14.965 -0.1115 -0.2922 -0.1004
 2197TIP3    H128082   2.095   3.186  14.896  0.1422  0.7169  0.1321
 2197TIP3    H228083   1.985   3.101  14.956 -0.1200 -0.1610 -1.5350
 2198TIP3   OH228084   0.240   6.478  12.279 -0.4215 -0.4707  0.3417
 2198TIP3    H128085   0.151   6.467  12.312 -1.6507 -0.1605 -2.5353
 2198TIP3    H228086   0.251   6.406  12.217  0.1880  1.0836 -1.4596
 2199TIP3   OH228087   5.123   0.619   0.086  0.2377  0.8256 -0.3466
 2199TIP3    H128088   5.179   0.545   0.064 -1.0008  0.1899 -1.4979
 2199TIP3    H228089   5.069   0.632   0.009 -1.7863  0.8581  1.0018
 2200TIP3   OH228090   4.934   3.565  15.701  0.4646 -0.0402  0.5286
 2200TIP3    H128091   4.997   3.635  15.687 -1.2460  1.5760  0.4946
 2200TIP3    H228092   4.907   3.574  15.792  0.7973 -1.1854  0.7549
 2201TIP3   OH228093   3.787   4.441  13.890 -0.5322  0.4323  0.5714
 2201TIP3    H128094   3.704   4.431  13.937 -0.4488  0.6675  0.7740
 2201TIP3    H228095   3.851   4.459  13.959 -0.1354 -0.7328  0.5166
 2202TIP3   OH228096   6.341   0.982   0.708 -0.3959  0.2305  0.1884
 2202TIP3    H128097   6.392   0.927   0.648  0.4553  0.4814  0.6666
 2202TIP3    H228098   6.319   0.925   0.781 -0.0964  0.3258  0.3595
 2203TIP3   OH228099   4.186   5.815  10.655 -0.0169  0.7882 -0.2188
 2203TIP3    H128100   4.200   5.841  10.746  1.8756  0.3001 -0.3180
 2203TIP3    H228101   4.271   5.829  10.613 -0.2272 -1.0580 -1.3701
 2204TIP3   OH228102   6.174   4.614  11.241  0.4807 -0.1144  0.0061
 2204TIP3    H128103   6.124   4.691  11.214  1.2205 -0.1518 -1.5488
 2204TIP3    H228104   6.114   4.540  11.226  0.6402 -0.0668 -0.9408
 2205TIP3   OH228105   1.710   6.426   4.495  0.4847 -0.3784  0.1015
 2205TIP3    H128106   1.635   6.477   4.523  0.3087 -0.8424  0.4940
 2205TIP3    H228107   1.782   6.489   4.491  0.1450  0.0089  0.0128
 2206TIP3   OH228108   4.339   1.737   5.614  0.1017  0.5639 -0.6395
 2206TIP3    H128109   4.390   1.717   5.693  0.9301 -0.9224 -1.5116
 2206TIP3    H228110   4.396   1.793   5.562  0.6644 -0.6388 -1.3600
 2207TIP3   OH228111   2.806   2.404   0.236  0.0885 -0.2994 -0.1300
 2207TIP3    H128112   2.727   2.378   0.189 -0.3032  0.4663  0.0838
 2207TIP3    H228113   2.853   2.322   0.253  0.1520 -0.6258 -1.6929
 2208TIP3   OH228114   3.377   1.491  15.942  0.6200  0.5737  0.2478
 2208TIP3    H128115   3.470   1.491  15.963  0.5033  0.3449  0.7813
 2208TIP3    H228116   3.359   1.580  15.910  1.1689  0.3997 -0.5689
 2209TIP3   OH228117   5.574   6.280  13.409 -0.0607 -0.3933 -0.2201
 2209TIP3    H128118   5.577   6.192  13.446  1.4862 -0.0419  0.5670
 2209TIP3    H228119   5.626   6.274  13.329  1.1978  0.0807  0.5313
 2210TIP3   OH228120   4.386   3.208  15.231 -0.5776  0.2409 -0.1942
 2210TIP3    H128121   4.448   3.186  15.301  0.3570  0.0923 -1.0394
 2210TIP3    H228122   4.302   3.177  15.264 -0.1558  0.1384  0.8456
 2211TIP3   OH228123   4.440   5.492  15.353 -0.7774 -0.0508  0.3657
 2211TIP3    H128124   4.454   5.408  15.398  2.0829  0.1582  0.0727
 2211TIP3    H228125   4.475   5.558  15.413  2.3448  0.3114 -1.6098
 2212TIP3   OH228126   1.071   4.991  13.857 -0.2143  0.0165 -0.6069
 2212TIP3    H128127   1.075   5.042  13.938 -0.9393 -1.5492  0.4630
 2212TIP3    H228128   1.021   5.047  13.796 -1.0454  0.5725  0.5514
 2213TIP3   OH228129   3.855   4.558  11.474  0.0576 -0.2953 -0.6111
 2213TIP3    H128130   3.827   4.556  11.565 -0.4207  2.0353 -0.6623
 2213TIP3    H228131   3.804   4.488  11.433  0.9343 -1.9849  1.0324
 2214TIP3   OH228132   0.735   3.811   6.791  0.3404  0.2091  0.7489
 2214TIP3    H128133   0.689   3.894   6.781 -1.4788 -0.6413  1.5920
 2214TIP3    H228134   0.817   3.835   6.835  0.9626  1.8021 -1.1014
 2215TIP3   OH228135   6.646   3.328   2.418 -0.4772  0.2625 -0.8020
 2215TIP3    H128136   6.675   3.299   2.505  0.2701  1.2010 -0.7258
 2215TIP3    H228137   6.652   3.250   2.363 -1.0245 -0.3634 -0.0041
 2216TIP3   OH228138   3.101   2.940   1.158  0.0100 -1.2483 -0.2485
 2216TIP3    H128139   3.132   2.967   1.072  1.0972  1.2634  0.8307
 2216TIP3    H228140   3.013   2.978   1.165  0.0815 -1.1087 -0.1037
 2217TIP3   OH228141   2.759   0.240   2.597  0.7902 -0.2371 -0.0740
 2217TIP3    H128142   2.770   0.204   2.685  0.4837 -1.0751 -0.3636
 2217TIP3    H228143   2.810   0.321   2.597  1.1559 -0.4606  0.7335
 2218TIP3   OH228144   2.188   3.956   3.519 -0.3339 -0.0962  0.9810
 2218TIP3    H128145   2.147   3.944   3.604 -2.0509 -0.3566  0.1688
 2218TIP3    H228146   2.254   3.887   3.513 -1.0885 -0.8809  1.5782
 2219TIP3   OH228147   6.799   0.395   2.144  0.1459  0.2881 -0.4060
 2219TIP3    H128148   6.802   0.374   2.237 -0.2249  1.1945 -0.1829
 2219TIP3    H228149   6.726   0.457   2.135  0.7292  0.8910 -1.1512
 2220TIP3   OH228150   0.407   4.084   2.841  0.0459 -0.1031  0.6952
 2220TIP3    H128151   0.394   4.089   2.936  1.3982  2.8408  0.8323
 2220TIP3    H228152   0.497   4.111   2.828 -0.5596  1.0668 -1.5348
 2221TIP3   OH228153   6.066   3.564   2.276 -0.2254  0.4874 -0.1110
 2221TIP3    H128154   6.111   3.601   2.352  0.1600 -2.4370  1.2377
 2221TIP3    H228155   5.992   3.516   2.313 -1.1953  0.5965 -1.7996
 2222TIP3   OH228156   5.462   4.046  14.441  0.4810 -0.2331  0.2169
 2222TIP3    H128157   5.481   3.955  14.419 -2.5440 -0.4996 -1.8465
 2222TIP3    H228158   5.382   4.042  14.493 -0.0308  1.2560 -0.4038
 2223TIP3   OH228159   0.698   2.079   3.781  0.2071  0.3772 -0.1427
 2223TIP3    H128160   0.636   2.139   3.739  0.3297  0.7132  0.1430
 2223TIP3    H228161   0.655   2.054   3.863  0.3839  0.4957 -0.0133
 2224TIP3   OH228162   6.308   0.117  11.726 -0.1799 -0.5802  0.2146
 2224TIP3    H128163   6.365   0.042  11.743  1.0864  0.5166  0.9666
 2224TIP3    H228164   6.346   0.159  11.649 -0.0010  0.1188  0.6775
 2225TIP3   OH228165   6.123   4.263   1.251  0.0134 -0.0082  0.2362
 2225TIP3    H128166   6.091   4.175   1.229 -0.1482 -0.0582  0.6569
 2225TIP3    H228167   6.059   4.322   1.212 -0.3256 -0.0984  0.6444
 2226TIP3   OH228168   0.284   2.089  13.114 -0.1486 -0.1501  0.4157
 2226TIP3    H128169   0.363   2.113  13.161 -0.5884 -0.6672  1.4484
 2226TIP3    H228170   0.291   2.134  13.030 -0.0211  1.9765  1.4952
 2227TIP3   OH228171   6.533   5.003  16.888 -0.3980  0.0280 -0.0827
 2227TIP3    H128172   6.501   5.018  16.799 -0.6553  1.0392  0.1573
 2227TIP3    H228173   6.524   5.089  16.930  0.2284 -0.3090  0.7545
 2228TIP3   OH228174   1.766   2.973  11.148 -0.2647  0.1541  0.1974
 2228TIP3    H128175   1.774   3.062  11.114 -3.4499  0.2765 -0.5094
 2228TIP3    H228176   1.732   2.983  11.237  0.3450 -0.3595  0.4994
 2229TIP3   OH228177   6.327   3.125  16.537  0.5165 -0.8050  0.3836
 2229TIP3    H128178   6.419   3.111  16.558  0.2505 -0.9380  1.5264
 2229TIP3    H228179   6.295   3.184  16.605  0.0780  0.3457 -0.7828
 2230TIP3   OH228180   5.746   4.709  12.997 -0.1011  0.1563 -0.3441
 2230TIP3    H128181   5.695   4.742  12.923 -0.1322 -0.4462 -0.5978
 2230TIP3    H228182   5.757   4.616  12.978  0.1967  0.0729  0.2346
 2231TIP3   OH228183   6.795   5.087   4.607 -0.5563 -0.2240  0.0145
 2231TIP3    H128184   6.870   5.056   4.556  0.7434  0.8652  1.1751
 2231TIP3    H228185   6.732   5.015   4.602  1.2120 -1.8939  0.3440
 2232TIP3   OH228186   4.572   2.371  13.038  0.0809 -1.1376 -0.4020
 2232TIP3    H128187   4.665   2.369  13.059 -0.0021 -1.7552 -0.0586
 2232TIP3    H228188   4.563   2.443  12.975  0.5142  0.0040  0.8033
 2233TIP3   OH228189   2.460   1.976   4.266  0.0153 -0.4418 -0.2791
 2233TIP3    H128190   2.489   1.901   4.318 -2.5747 -1.2876  0.1102
 2233TIP3    H228191   2.503   1.965   4.181  1.3080 -1.1939  0.4579
 2234TIP3   OH228192   1.940   2.115   4.350 -0.1873 -0.0343 -0.0764
 2234TIP3    H128193   2.004   2.043   4.354 -0.6956 -0.6660 -2.0093
 2234TIP3    H228194   1.991   2.193   4.371  0.8511 -0.7085  0.0119
 2235TIP3   OH228195   2.355   5.456   2.444 -0.1670 -0.3114 -0.1655
 2235TIP3    H128196   2.266   5.422   2.434  0.7058 -2.2825 -2.2248
 2235TIP3    H228197   2.370   5.507   2.364  0.5507  0.0201  0.1692
 2236TIP3   OH228198   5.201   1.538   5.824 -0.6313 -0.3647  0.1462
 2236TIP3    H128199   5.245   1.619   5.851 -1.4512 -0.2392  1.1701
 2236TIP3    H228200   5.115   1.565   5.794 -1.0551 -0.8683  0.8468
 2237TIP3   OH228201   0.857   4.314   6.736 -0.2111 -0.5871  0.3907
 2237TIP3    H128202   0.767   4.322   6.767 -0.0734 -1.3938  1.0501
 2237TIP3    H228203   0.857   4.234   6.683  0.6990 -2.3154  2.7834
 2238TIP3   OH228204   5.096   0.546  13.781 -0.1796 -0.1755 -0.4565
 2238TIP3    H128205   5.187   0.573  13.797 -0.2584  0.6209 -1.2699
 2238TIP3    H228206   5.047   0.580  13.856  0.0469  0.1715 -0.4656
 2239TIP3   OH228207   0.586   6.418  16.964  0.0485  0.7463  0.5006
 2239TIP3    H128208   0.630   6.502  16.969  0.9738  0.4079 -1.2664
 2239TIP3    H228209   0.514   6.432  16.903  0.1800  0.2778  0.2323
 2240TIP3   OH228210   0.734   3.598  16.347  0.4175 -0.5369 -1.3142
 2240TIP3    H128211   0.776   3.684  16.358 -0.4637 -0.3465  1.4181
 2240TIP3    H228212   0.668   3.612  16.280 -0.1398  1.1574 -0.4897
 2241TIP3   OH228213   1.791   3.394  11.238  0.1410 -0.4381 -0.1352
 2241TIP3    H128214   1.761   3.304  11.252 -1.2415 -0.5467 -2.9634
 2241TIP3    H228215   1.756   3.443  11.312  1.7464 -2.2893  2.0172
 2242TIP3   OH228216   4.070   2.588  16.309  0.2554  0.1491 -0.2294
 2242TIP3    H128217   3.999   2.531  16.337  1.2505 -0.8759  0.2869
 2242TIP3    H228218   4.098   2.632  16.389 -0.4272  1.3113 -0.6047
 2243TIP3   OH228219   4.451   1.820  15.061 -0.3539  0.0483  0.1536
 2243TIP3    H128220   4.465   1.883  14.990  1.0413  1.0085  1.2277
 2243TIP3    H228221   4.363   1.839  15.093  0.1461  1.6755  0.6367
 2244TIP3   OH228222   6.181   4.549   5.860  0.1033 -0.3363 -0.2495
 2244TIP3    H128223   6.127   4.610   5.809  0.3176 -1.0258 -1.3330
 2244TIP3    H228224   6.206   4.482   5.798  1.4222 -0.5527  0.4822
 2245TIP3   OH228225   3.291   1.371   3.794  0.5250 -0.1133 -0.7398
 2245TIP3    H128226   3.298   1.317   3.873  1.1210 -0.2492 -0.8777
 2245TIP3    H228227   3.372   1.422   3.794  1.4502 -1.4767 -2.2545
 2246TIP3   OH228228   6.338   6.040   1.005  0.4455  0.2775  0.3802
 2246TIP3    H128229   6.318   6.074   1.092  1.6519 -0.2981  0.8966
 2246TIP3    H228230   6.266   5.981   0.984  0.1425  0.4344  0.9805
 2247TIP3   OH228231   3.764   3.147   4.672 -0.5192  0.3046 -0.0936
 2247TIP3    H128232   3.671   3.135   4.653 -0.6095  2.0247 -0.8734
 2247TIP3    H228233   3.794   3.211   4.608  1.5851 -1.3511 -0.8677
 2248TIP3   OH228234   0.469   0.924   0.770 -0.2418  0.6402  0.2157
 2248TIP3    H128235   0.410   0.860   0.811 -0.3684 -0.2942 -1.3401
 2248TIP3    H228236   0.413   0.999   0.751 -0.3359  0.8028  1.0964
 2249TIP3   OH228237   3.791   4.798  16.298 -0.3151  0.4533 -0.4532
 2249TIP3    H128238   3.786   4.714  16.343 -0.8865  0.6979 -0.0479
 2249TIP3    H228239   3.875   4.796  16.252  1.6428  1.2750  2.7636
 2250TIP3   OH228240   3.223   3.301   3.401  0.4108  0.3443  0.0802
 2250TIP3    H128241   3.307   3.256   3.399  1.2606  1.8709  0.0161
 2250TIP3    H228242   3.243   3.392   3.380 -1.4062  0.5371 -1.1248
 2251TIP3   OH228243   6.673   5.634  12.123 -0.3849  0.3860 -0.5529
 2251TIP3    H128244   6.763   5.634  12.156 -1.2771  0.0782  2.1044
 2251TIP3    H228245   6.642   5.544  12.138 -1.4686  0.7673 -0.4209
 2252TIP3   OH228246   0.857   1.770   3.574 -0.1983  0.2772 -0.1066
 2252TIP3    H128247   0.826   1.820   3.499 -0.5657 -0.1441 -0.2418
 2252TIP3    H228248   0.856   1.679   3.544  1.0839  0.2366 -0.0857
 2253TIP3   OH228249   2.083   2.011  16.051  0.2305 -0.1042  0.0431
 2253TIP3    H128250   2.161   2.065  16.064  0.6993 -1.0301  1.2383
 2253TIP3    H228251   2.074   2.004  15.956  1.4326  0.2456 -0.1094
 2254TIP3   OH228252   3.803   6.815  11.429  0.4358  0.4249  0.1398
 2254TIP3    H128253   3.867   6.833  11.497  1.3206 -0.0072 -0.5584
 2254TIP3    H228254   3.756   6.898  11.417  2.4136  1.4618 -0.9326
 2255TIP3   OH228255   2.611   6.086  11.763 -0.4662 -0.1742 -0.1325
 2255TIP3    H128256   2.523   6.051  11.777  0.0868 -1.0751  1.4075
 2255TIP3    H228257   2.632   6.064  11.672 -0.1351 -4.1172  0.7029
 2256TIP3   OH228258   6.090   5.155  16.134  0.0632 -0.5350 -0.4318
 2256TIP3    H128259   6.133   5.205  16.064  0.5679 -0.4631 -0.0717
 2256TIP3    H228260   6.059   5.222  16.195  0.4823 -0.6411 -0.0976
 2257TIP3   OH228261   5.419   2.213   0.910 -0.6237  0.2580  0.1624
 2257TIP3    H128262   5.366   2.232   0.832  0.5519 -0.6714 -0.8989
 2257TIP3    H228263   5.356   2.185   0.976 -1.5211 -0.2530 -0.8836
 2258TIP3   OH228264   6.729   6.735   3.303 -0.0286 -0.1284 -0.0531
 2258TIP3    H128265   6.760   6.788   3.376 -0.4906  1.4764 -0.9777
 2258TIP3    H228266   6.800   6.673   3.286  0.4693  0.0967  1.1281
 2259TIP3   OH228267   2.470   3.823   0.286  0.2169  0.2298 -0.1867
 2259TIP3    H128268   2.375   3.836   0.290  0.3577  1.2791  0.2400
 2259TIP3    H228269   2.485   3.779   0.203 -0.9413 -3.1141  1.2135
 2260TIP3   OH228270   4.275   2.592   4.855  0.1170  0.1613 -0.1933
 2260TIP3    H128271   4.280   2.652   4.781 -1.9658  0.9146  0.1987
 2260TIP3    H228272   4.233   2.513   4.819 -0.2035  0.2373  0.0081
 2261TIP3   OH228273   3.792   6.267   3.132  0.1117  0.6867 -0.1550
 2261TIP3    H128274   3.740   6.346   3.148 -0.3105  0.1760  1.0694
 2261TIP3    H228275   3.883   6.296   3.136 -0.0032  1.6285 -2.4761
 2262TIP3   OH228276   3.748   6.777   0.407  0.0006 -0.1228 -0.2951
 2262TIP3    H128277   3.673   6.729   0.442 -0.9925  2.0295  0.6773
 2262TIP3    H228278   3.753   6.857   0.459  1.8227  0.6907 -1.5834
 2263TIP3   OH228279   5.921   2.520  15.317  0.3468 -0.1563  0.0797
 2263TIP3    H128280   5.941   2.598  15.265  0.7842  0.2206  0.7949
 2263TIP3    H228281   5.925   2.448  15.254  1.1671  0.2499 -0.3516
 2264TIP3   OH228282   4.044   6.375   6.278 -0.2170 -0.3547 -0.6906
 2264TIP3    H128283   4.132   6.399   6.307 -0.4466 -0.6189  0.2505
 2264TIP3    H228284   3.987   6.402   6.350 -1.2414  2.1584 -2.3090
 2265TIP3   OH228285   2.245   0.888  11.223 -0.2506 -0.1697 -0.3019
 2265TIP3    H128286   2.257   0.804  11.266 -1.5082 -0.5921 -0.7248
 2265TIP3    H228287   2.330   0.931  11.229  0.3883 -1.4393 -0.0153
 2266TIP3   OH228288   1.050   3.454  11.961  0.4162  0.0604 -0.0650
 2266TIP3    H128289   1.000   3.400  11.900  1.0642  2.7731 -3.3185
 2266TIP3    H228290   0.986   3.480  12.028 -0.9443 -1.2671 -0.7951
 2267TIP3   OH228291   4.621   2.625  12.535 -0.0676 -0.8525 -0.4726
 2267TIP3    H128292   4.670   2.544  12.523 -1.1892 -1.6834  0.4424
 2267TIP3    H228293   4.534   2.598  12.564  0.0079  0.7052  1.4257
 2268TIP3   OH228294   3.130   5.792   1.750  0.0602  0.2422 -0.0888
 2268TIP3    H128295   3.090   5.718   1.704 -2.5744  0.6545  1.3678
 2268TIP3    H228296   3.193   5.751   1.810 -1.7231 -0.9304  1.0730
 2269TIP3   OH228297   5.675   1.931   1.974  0.3490  0.0507  0.1180
 2269TIP3    H128298   5.741   1.900   2.035  0.6185  0.8403  0.2416
 2269TIP3    H228299   5.641   2.012   2.014  2.4839  2.1779 -2.0225
 2270TIP3   OH228300   2.905   4.933   2.647  0.3390 -0.5122 -0.7048
 2270TIP3    H128301   2.970   4.868   2.674  0.5083 -0.7986 -1.7469
 2270TIP3    H228302   2.865   4.896   2.568  0.2322  0.5057 -1.1488
 2271TIP3   OH228303   4.636   1.935  15.344 -0.1145  0.0528 -0.4510
 2271TIP3    H128304   4.689   1.867  15.385  0.5291 -0.1236 -1.5582
 2271TIP3    H228305   4.562   1.946  15.404  0.8394 -0.1247  0.8168
 2272TIP3   OH228306   0.555   6.080  11.177  0.0071  0.0401 -0.3032
 2272TIP3    H128307   0.573   6.174  11.170  2.1572 -0.1576  1.5176
 2272TIP3    H228308   0.639   6.038  11.159 -0.4845 -1.4356  0.6733
 2273TIP3   OH228309   2.093   3.911  13.338  0.7349 -0.1618 -0.1424
 2273TIP3    H128310   2.169   3.874  13.293  1.7384  0.7340  0.7529
 2273TIP3    H228311   2.066   3.843  13.400  0.5925 -0.6135 -0.6928
 2274TIP3   OH228312   0.684   3.644   4.202  0.5025 -0.2111 -0.0688
 2274TIP3    H128313   0.633   3.581   4.253 -0.9176  0.4509 -0.6083
 2274TIP3    H228314   0.772   3.640   4.239  0.4076 -2.3566  0.0370
 2275TIP3   OH228315   6.054   1.835   0.467  0.0426  0.4971  0.4944
 2275TIP3    H128316   5.975   1.786   0.444  0.9824 -1.2443  0.8088
 2275TIP3    H228317   6.099   1.780   0.531  1.2838  1.6694  0.6740
 2276TIP3   OH228318   3.299   4.468   1.158  0.6983  0.6544 -0.1912
 2276TIP3    H128319   3.272   4.456   1.067 -0.5882 -0.5881  0.3263
 2276TIP3    H228320   3.275   4.559   1.178 -0.1997  0.5432 -0.7130
 2277TIP3   OH228321   5.308   4.898   4.114 -0.3783  0.3663  0.4400
 2277TIP3    H128322   5.400   4.894   4.140  0.3580 -1.9951 -2.0237
 2277TIP3    H228323   5.310   4.931   4.024 -1.8961  0.1629  0.3023
 2278TIP3   OH228324   6.459   0.990   4.171  0.0834  0.0643  0.2749
 2278TIP3    H128325   6.500   0.903   4.172  0.2204  0.1091 -0.8217
 2278TIP3    H228326   6.437   1.006   4.079 -2.0440  0.2150  0.7483
 2279TIP3   OH228327   6.152   6.786  16.911 -0.5178  0.3614  0.7868
 2279TIP3    H128328   6.146   6.874  16.872  0.2743 -0.3191 -1.0153
 2279TIP3    H228329   6.141   6.727  16.836  1.3181 -1.0336  1.5438
 2280TIP3   OH228330   2.792   5.667   0.118 -0.2407 -0.1136  0.0090
 2280TIP3    H128331   2.700   5.683   0.097  0.2027  1.5177 -0.8607
 2280TIP3    H228332   2.804   5.574   0.100 -1.9473 -0.5874  1.1188
 2281TIP3   OH228333   4.944   3.619   4.106 -0.2330  0.3616 -0.3554
 2281TIP3    H128334   4.990   3.638   4.188 -1.5859 -0.1773  0.5597
 2281TIP3    H228335   4.894   3.540   4.124 -1.8239  1.1298 -1.1654
 2282TIP3   OH228336   5.675   2.139   2.704  1.0083  0.3325 -0.4551
 2282TIP3    H128337   5.706   2.114   2.617  0.2178 -0.5780 -0.4975
 2282TIP3    H228338   5.592   2.092   2.713  1.0465  0.4896  0.7636
 2283TIP3   OH228339   1.709   5.350   6.147 -0.3691 -0.4790  0.5830
 2283TIP3    H128340   1.768   5.397   6.205  0.5000 -1.2286  0.3418
 2283TIP3    H228341   1.622   5.364   6.184 -0.2816  2.0424  0.0113
 2284TIP3   OH228342   6.697   1.488   0.222  0.0499  0.2517  0.2650
 2284TIP3    H128343   6.623   1.514   0.276 -0.0731 -0.3137  0.3800
 2284TIP3    H228344   6.678   1.398   0.197 -0.3541  0.7908 -1.5016
 2285TIP3   OH228345   2.518   4.866   0.440  0.5683 -0.2624 -0.0489
 2285TIP3    H128346   2.424   4.849   0.432  0.8723 -1.9160 -0.5733
 2285TIP3    H228347   2.548   4.879   0.350  0.8481  0.2715  0.1164
 2286TIP3   OH228348   4.602   3.939   0.127  0.1277 -0.4934 -0.2859
 2286TIP3    H128349   4.540   3.959   0.056 -1.2906  2.5151  1.5785
 2286TIP3    H228350   4.555   3.879   0.184 -0.4404  0.3745  0.1927
 2287TIP3   OH228351   5.974   0.076  11.955 -0.2113  0.2000 -0.1290
 2287TIP3    H128352   5.969   0.043  11.866  0.8129  0.4873 -0.3022
 2287TIP3    H228353   5.883   0.091  11.981 -0.5386 -0.3785 -0.9345
 2288TIP3   OH228354   5.515   6.659  15.777 -0.0652  0.3312  0.4788
 2288TIP3    H128355   5.559   6.729  15.824 -0.6279  0.6379  0.5612
 2288TIP3    H228356   5.547   6.579  15.817  0.0228  0.5658  0.8836
 2289TIP3   OH228357   6.143   1.515  13.218  0.1970 -0.2687 -0.0565
 2289TIP3    H128358   6.108   1.433  13.255 -0.6295 -0.1415 -0.5430
 2289TIP3    H228359   6.161   1.494  13.126 -0.7526  0.3154 -0.3773
 2290TIP3   OH228360   0.444   6.239   3.246  0.0174  0.0912  0.2298
 2290TIP3    H128361   0.489   6.228   3.329  1.8077 -0.8475 -0.8141
 2290TIP3    H228362   0.477   6.168   3.191 -0.9920  0.7914 -1.3496
 2291TIP3   OH228363   4.710   4.974   2.472 -0.2819 -0.3074 -0.2581
 2291TIP3    H128364   4.741   5.011   2.555  0.4109 -0.4881 -0.4347
 2291TIP3    H228365   4.781   4.989   2.411 -0.2129 -1.4292 -0.4763
 2292TIP3   OH228366   1.960   0.179  13.527 -0.0013 -0.1821 -0.0286
 2292TIP3    H128367   1.996   0.145  13.609  0.0979  0.6325  0.2768
 2292TIP3    H228368   2.034   0.226  13.487 -0.4855  0.7701  0.1856
 2293TIP3   OH228369   3.042   4.169   1.141 -0.2916  0.1247  0.1779
 2293TIP3    H128370   2.971   4.158   1.204 -0.1699 -2.9333 -0.0359
 2293TIP3    H228371   3.011   4.124   1.062  2.2380 -2.5286  0.5037
 2294TIP3   OH228372   6.194   6.441  12.085  0.1215  0.3026 -0.8810
 2294TIP3    H128373   6.153   6.403  12.007 -0.8724  0.7752 -0.6102
 2294TIP3    H228374   6.134   6.511  12.111  0.3868  0.0831  0.3781
 2295TIP3   OH228375   4.423   4.795   1.611 -0.2064  0.0934 -0.2039
 2295TIP3    H128376   4.458   4.825   1.695 -1.5686 -2.3818  1.3629
 2295TIP3    H228377   4.488   4.732   1.579 -0.7496 -0.6586  0.1499
 2296TIP3   OH228378   5.936   6.447   0.842 -0.0635  0.4615 -0.2663
 2296TIP3    H128379   5.912   6.535   0.868 -0.2004  0.5729 -0.7647
 2296TIP3    H228380   6.016   6.458   0.791  0.2616  0.2345  0.1858
 2297TIP3   OH228381   3.881   4.345   3.845  0.1747 -0.1716 -0.1077
 2297TIP3    H128382   3.854   4.399   3.919  1.7892 -0.7547  0.9589
 2297TIP3    H228383   3.830   4.378   3.772 -1.9814 -0.0015  1.3730
 2298TIP3   OH228384   5.552   4.234  14.256  0.4259  0.4621  0.0612
 2298TIP3    H128385   5.515   4.182  14.327  0.0097  0.1050 -0.4115
 2298TIP3    H228386   5.483   4.298  14.235  0.4565  0.4180 -0.1765
 2299TIP3   OH228387   1.848   2.542  15.757 -0.8380  0.2260  0.4422
 2299TIP3    H128388   1.847   2.610  15.689  0.0254  0.1250  0.3177
 2299TIP3    H228389   1.930   2.557  15.804 -1.3646  0.2051  1.3815
 2300TIP3   OH228390   4.155   3.448  16.024 -0.1625  0.3653 -0.3984
 2300TIP3    H128391   4.239   3.476  15.987 -0.1329  0.4274 -0.2835
 2300TIP3    H228392   4.103   3.423  15.947 -0.5763  1.7548 -0.5926
 2301TIP3   OH228393   2.211   0.514   5.727 -0.3621  0.5105  0.6064
 2301TIP3    H128394   2.296   0.488   5.761  0.2965  0.9443 -0.6650
 2301TIP3    H228395   2.202   0.606   5.753  0.4772  1.0704 -0.9620
 2302TIP3   OH228396   0.256   5.946  16.524 -0.6984 -0.0832 -0.1196
 2302TIP3    H128397   0.338   5.902  16.502 -0.4033 -0.4950  1.7016
 2302TIP3    H228398   0.265   6.033  16.486  1.7274  0.7862  2.1822
 2303TIP3   OH228399   5.795   5.841   3.749  0.5398 -0.3917 -1.1828
 2303TIP3    H128400   5.806   5.859   3.842  1.1687 -1.4579 -1.0384
 2303TIP3    H228401   5.713   5.793   3.744 -2.1808  3.7967 -1.7769
 2304TIP3   OH228402   0.962   3.028  15.493 -0.3726 -0.2346  0.1388
 2304TIP3    H128403   1.035   3.078  15.457  0.8126 -1.8384  0.1634
 2304TIP3    H228404   1.001   2.975  15.562 -1.1649 -2.3528 -0.9325
 2305TIP3   OH228405   0.064   1.942  15.970 -0.2698 -0.3796 -0.8444
 2305TIP3    H128406   0.148   1.903  15.946  0.4550  1.3018 -1.1904
 2305TIP3    H228407   0.062   2.024  15.922 -2.5485 -0.7991 -1.5455
 2306TIP3   OH228408   4.872   3.464  11.526  0.0885  0.2616  0.2885
 2306TIP3    H128409   4.896   3.489  11.615 -1.6641 -0.1998  0.9288
 2306TIP3    H228410   4.872   3.368  11.527 -0.7107  0.2556  0.0165
 2307TIP3   OH228411   2.732   4.116   3.125 -0.0375  0.0003  0.1756
 2307TIP3    H128412   2.642   4.089   3.140 -0.5589  0.9088 -1.1727
 2307TIP3    H228413   2.742   4.115   3.030  1.2014  0.4468  0.2832
 2308TIP3   OH228414   0.219   4.103  11.699 -0.5858 -0.0832  0.0056
 2308TIP3    H128415   0.277   4.111  11.623  0.6014  0.6789  0.9446
 2308TIP3    H228416   0.264   4.041  11.757 -2.5425 -2.3753 -0.7972
 2309TIP3   OH228417   2.321   0.341  16.017  0.2408  0.4206 -0.0769
 2309TIP3    H128418   2.298   0.425  15.978  1.0884  0.4122 -0.6172
 2309TIP3    H228419   2.416   0.343  16.024  0.3674 -0.8877 -1.0407
 2310TIP3   OH228420   6.048   1.313   0.589 -0.3394 -0.0675 -0.4233
 2310TIP3    H128421   5.954   1.317   0.576 -0.5045 -1.7010  0.0280
 2310TIP3    H228422   6.061   1.243   0.653  1.1681  0.1552 -0.4357
 2311TIP3   OH228423   1.654   2.213  16.052 -0.5542 -0.6621  0.2843
 2311TIP3    H128424   1.652   2.273  16.126  1.0126  0.5801 -0.6155
 2311TIP3    H228425   1.683   2.130  16.089  0.1128 -0.0862  1.0760
 2312TIP3   OH228426   0.292   2.723   6.096  0.1399 -0.2653  0.0281
 2312TIP3    H128427   0.283   2.737   6.190 -0.7084  0.5432 -0.1566
 2312TIP3    H228428   0.318   2.632   6.088 -2.8508 -1.3026  0.9398
 2313TIP3   OH228429   5.527   4.008  12.215 -0.0639  0.1839  0.4562
 2313TIP3    H128430   5.555   4.100  12.221  1.7012 -0.2445 -0.5680
 2313TIP3    H228431   5.554   3.981  12.127 -0.2295 -1.4242  0.8797
 2314TIP3   OH228432   5.491   4.722   5.997 -0.3415 -0.1126 -0.3990
 2314TIP3    H128433   5.466   4.700   5.907 -2.7063  1.2634 -0.1528
 2314TIP3    H228434   5.437   4.798   6.019 -0.2372 -0.7465  2.3821
 2315TIP3   OH228435   2.627   0.920  12.312  0.2298 -0.3550  0.2720
 2315TIP3    H128436   2.605   0.938  12.221 -0.5183  2.9084  0.9446
 2315TIP3    H228437   2.543   0.901  12.354  0.3464 -0.2454  0.5578
 2316TIP3   OH228438   2.165   5.352   2.948  0.5060 -0.7111  0.0065
 2316TIP3    H128439   2.250   5.340   2.989  0.5566  1.1928  0.5397
 2316TIP3    H228440   2.114   5.403   3.011  0.4941  2.0775 -2.0450
 2317TIP3   OH228441   3.741   4.889  13.375  0.4352  0.1427  0.4289
 2317TIP3    H128442   3.828   4.859  13.404  0.5533  1.3020  1.3459
 2317TIP3    H228443   3.754   4.916  13.284  0.7870 -0.6350  0.2360
 2318TIP3   OH228444   3.198   0.875  11.867 -0.2562 -0.8032  0.2548
 2318TIP3    H128445   3.270   0.819  11.838  0.0776  0.6737 -1.9769
 2318TIP3    H228446   3.128   0.814  11.889  0.8041 -2.1585  0.0079
 2319TIP3   OH228447   4.801   5.845   3.156  0.0055  0.0269  0.2840
 2319TIP3    H128448   4.834   5.817   3.071 -0.7831 -0.3851  0.1139
 2319TIP3    H228449   4.711   5.872   3.140 -0.0953  0.1094  0.9593
 2320TIP3   OH228450   2.572   0.663  12.852  0.2916 -0.0349 -0.3032
 2320TIP3    H128451   2.598   0.571  12.859 -0.9936 -0.3022  1.9505
 2320TIP3    H228452   2.481   0.659  12.824 -0.8077  0.3024  2.8204
 2321TIP3   OH228453   5.222   2.212   5.365  0.2983 -0.1507 -0.1667
 2321TIP3    H128454   5.173   2.191   5.285 -1.3505 -1.1251  1.0236
 2321TIP3    H228455   5.174   2.166   5.435  2.0376  0.1559  1.3065
 2322TIP3   OH228456   3.375   0.360   4.186 -0.0142  0.1656  0.0667
 2322TIP3    H128457   3.386   0.441   4.137 -1.6757  0.0716 -0.5131
 2322TIP3    H228458   3.338   0.299   4.123  0.7794 -0.9233  0.6255
 2323TIP3   OH228459   3.900   6.518   5.790 -0.6904 -0.6524  0.2387
 2323TIP3    H128460   3.837   6.483   5.854  0.5251 -0.9085  1.3345
 2323TIP3    H228461   3.917   6.607   5.820 -0.6205 -0.5411 -0.1278
 2324TIP3   OH228462   3.517   1.879   1.543  0.4026  0.9753 -0.3695
 2324TIP3    H128463   3.545   1.917   1.460 -0.8646  1.1642 -0.7172
 2324TIP3    H228464   3.424   1.863   1.533  0.4490 -0.0260  0.6351
 2325TIP3   OH228465   3.551   2.216  14.176 -0.2100 -0.5870  0.3848
 2325TIP3    H128466   3.472   2.253  14.137 -0.1132  0.2081  0.9286
 2325TIP3    H228467   3.613   2.212  14.103 -1.1954 -2.6142 -0.3998
 2326TIP3   OH228468   4.791   3.405   0.612 -1.0033  0.0787 -0.1586
 2326TIP3    H128469   4.740   3.326   0.593 -1.9510  0.8955 -1.1080
 2326TIP3    H228470   4.745   3.448   0.683 -0.0892 -0.5508  0.8522
 2327TIP3   OH228471   1.820   5.654   5.457  0.5588  0.3071 -0.0479
 2327TIP3    H128472   1.773   5.706   5.522  0.4124  2.3730 -1.6883
 2327TIP3    H228473   1.872   5.592   5.508 -1.2985  0.2641  1.9274
 2328TIP3   OH228474   4.352   6.808  17.004  0.5486 -0.2832 -0.2635
 2328TIP3    H128475   4.395   6.738  17.054  1.2783 -0.3117 -0.9126
 2328TIP3    H228476   4.271   6.769  16.972 -0.3010 -0.0490  1.4854
 2329TIP3   OH228477   6.024   3.760   6.508 -1.1259  0.2809  0.4534
 2329TIP3    H128478   5.976   3.749   6.590 -0.2062  0.2104  0.9924
 2329TIP3    H228479   6.095   3.820   6.529  1.3859 -2.5087  0.7350
 2330TIP3   OH228480   6.121   3.454  13.178  0.5710  0.0553  0.6469
 2330TIP3    H128481   6.181   3.478  13.108 -0.4499 -1.8183 -0.9743
 2330TIP3    H228482   6.034   3.468  13.141 -0.0019 -2.0010  1.1054
 2331TIP3   OH228483   2.012   0.330   1.682 -0.1012  0.2656  0.1980
 2331TIP3    H128484   1.943   0.368   1.628 -1.1975 -0.6917  0.8764
 2331TIP3    H228485   2.020   0.239   1.653  1.0719  0.4234 -0.0425
 2332TIP3   OH228486   1.006   5.734   1.085  0.3839 -0.8526 -0.5849
 2332TIP3    H128487   1.070   5.796   1.120 -1.3435  0.8206 -0.1791
 2332TIP3    H228488   1.044   5.648   1.101  1.5533 -0.0096  1.6546
 2333TIP3   OH228489   1.374   3.262   1.377 -0.6594  0.2968  0.6954
 2333TIP3    H128490   1.463   3.289   1.358 -1.1899  2.4246  0.9870
 2333TIP3    H228491   1.319   3.321   1.325 -1.9172 -2.1776 -0.9747
 2334TIP3   OH228492   5.432   6.186  12.269  0.5724  0.5537 -0.2416
 2334TIP3    H128493   5.474   6.176  12.184 -0.3609 -0.2840 -0.6247
 2334TIP3    H228494   5.390   6.101  12.286 -2.6607  1.8767 -0.8322
 2335TIP3   OH228495   3.718   5.991   0.322 -0.3885 -0.2180  0.6383
 2335TIP3    H128496   3.685   6.081   0.318 -0.8828 -0.3818  0.9670
 2335TIP3    H228497   3.801   5.998   0.370  0.5921  0.3389 -1.0667
 2336TIP3   OH228498   6.811   2.352  10.434 -0.4812  0.4984  0.3236
 2336TIP3    H128499   6.742   2.308  10.385 -2.4819  3.0551  0.6705
 2336TIP3    H228500   6.827   2.294  10.509 -1.9204 -0.3745  0.0015
 2337TIP3   OH228501   1.575   2.081  15.433  1.0488  0.0269 -0.0018
 2337TIP3    H128502   1.548   2.086  15.342  0.0630  0.9897  0.3285
 2337TIP3    H228503   1.592   2.172  15.459 -0.2012 -0.0488  1.2017
 2338TIP3   OH228504   5.956   3.646   2.618 -0.1811 -0.4005 -0.0164
 2338TIP3    H128505   5.861   3.655   2.625 -0.2905 -1.4794  0.0056
 2338TIP3    H228506   5.981   3.710   2.551 -0.9193 -0.1514 -0.0643
 2339TIP3   OH228507   3.504   2.530   4.741 -0.1648 -0.4073 -0.6427
 2339TIP3    H128508   3.442   2.463   4.714 -5.0507  3.3227  0.0520
 2339TIP3    H228509   3.522   2.510   4.833 -3.6322  0.3280  0.3529
 2340TIP3   OH228510   3.846   4.299  14.271 -0.1396  0.4919 -0.1522
 2340TIP3    H128511   3.834   4.327  14.362 -0.1765 -1.3288  0.4497
 2340TIP3    H228512   3.807   4.212  14.268 -0.2363  0.5711 -1.9576
 2341TIP3   OH228513   3.409   0.562  12.008 -0.0721  0.4650  0.0281
 2341TIP3    H128514   3.317   0.543  12.024 -0.4626  1.4078 -0.9788
 2341TIP3    H228515   3.409   0.622  11.934  1.2541  1.8604  1.0730
 2342TIP3   OH228516   2.734   4.693   6.284 -0.2718  0.2382  0.2251
 2342TIP3    H128517   2.679   4.622   6.253 -0.3808  0.4729 -0.1268
 2342TIP3    H228518   2.823   4.661   6.273 -0.3030  0.3741 -0.4789
 2343TIP3   OH228519   0.666   6.134   3.750  0.4412  0.2045  0.2302
 2343TIP3    H128520   0.682   6.067   3.816 -0.9591 -1.9491 -1.4798
 2343TIP3    H228521   0.749   6.180   3.741  1.9192 -2.2595  0.5070
 2344TIP3   OH228522   1.079   2.527  16.920  0.1836 -0.3649  0.0251
 2344TIP3    H128523   0.984   2.537  16.918  0.1714  2.5854  3.8546
 2344TIP3    H228524   1.112   2.601  16.869  0.5043 -1.2487 -1.0977
 2345TIP3   OH228525   0.326   6.626   2.542 -0.3217 -0.5178  0.1379
 2345TIP3    H128526   0.335   6.701   2.483 -1.9001 -0.6554 -0.3501
 2345TIP3    H228527   0.232   6.608   2.543  0.0411 -2.8065 -0.1732
 2346TIP3   OH228528   2.818   0.475  13.108  0.4894  0.4985  0.3087
 2346TIP3    H128529   2.746   0.428  13.066  1.2156 -3.6752  3.2211
 2346TIP3    H228530   2.846   0.538  13.041 -3.1297 -0.4490 -2.4743
 2347TIP3   OH228531   5.568   4.652   5.746 -0.0881  0.2732  0.1861
 2347TIP3    H128532   5.582   4.615   5.658  2.6018 -1.8579  1.3439
 2347TIP3    H228533   5.613   4.737   5.743 -3.2701  2.0935 -1.4631
 2348TIP3   OH228534   0.604   4.757  12.438 -0.5248  0.3470 -0.5998
 2348TIP3    H128535   0.620   4.726  12.348 -1.1321  0.4750 -0.7557
 2348TIP3    H228536   0.511   4.737  12.454 -0.3002 -0.1204  0.1782
 2349TIP3   OH228537   4.967   1.946  16.055  0.2051  0.4257 -0.0210
 2349TIP3    H128538   4.907   1.887  16.009 -0.7742  0.7813  0.7569
 2349TIP3    H228539   5.006   1.893  16.124  1.1444  0.0776 -0.7951
 2350TIP3   OH228540   3.989   2.763   0.019 -0.2414 -0.1003 -0.2613
 2350TIP3    H128541   3.909   2.711   0.022 -0.7408  0.6120 -0.8741
 2350TIP3    H228542   4.004   2.788   0.110  0.0568 -1.3592  0.0590
 2351TIP3   OH228543   1.977   0.769  10.242  0.0615  0.1716 -0.8217
 2351TIP3    H128544   1.921   0.719  10.303  0.1153  1.0296 -0.0427
 2351TIP3    H228545   2.007   0.704  10.179 -2.7349 -0.1548 -1.9821
 2352TIP3   OH228546   2.244   3.023  11.444  1.1242 -0.0944  0.1027
 2352TIP3    H128547   2.283   2.965  11.379  1.4925 -0.4479  0.6352
 2352TIP3    H228548   2.319   3.070  11.482  1.0068 -0.5567  0.9152
 2353TIP3   OH228549   2.491   5.017  12.010  0.4986  0.3852 -0.1652
 2353TIP3    H128550   2.557   4.993  11.944  0.8742 -1.1189  0.6904
 2353TIP3    H228551   2.514   5.106  12.036  2.2263 -0.0955  0.1017
 2354TIP3   OH228552   1.512   4.070   1.302  0.1882 -0.8774  0.2071
 2354TIP3    H128553   1.501   4.070   1.397 -0.7654 -1.4713  0.1108
 2354TIP3    H228554   1.544   3.982   1.281  0.7988 -0.6201  0.0036
 2355TIP3   OH228555   3.797   3.377  13.273 -0.0543 -0.5133  0.2390
 2355TIP3    H128556   3.725   3.439  13.266 -0.3841 -1.0801 -2.6938
 2355TIP3    H228557   3.876   3.431  13.276 -0.3823  0.1181 -1.4191
 2356TIP3   OH228558   4.724   0.621   4.486 -0.1731  0.6024 -0.3992
 2356TIP3    H128559   4.728   0.599   4.393  1.0597 -2.0089  0.1863
 2356TIP3    H228560   4.651   0.568   4.520  0.2290  0.5193  0.3537
 2357TIP3   OH228561   1.092   2.148  12.556  0.3437  0.2815  0.1664
 2357TIP3    H128562   1.102   2.105  12.640 -1.8856 -0.7294 -0.0101
 2357TIP3    H228563   1.181   2.169  12.528  1.2366 -0.9696  1.9336
 2358TIP3   OH228564   6.089   3.083   6.723  0.1180  0.2187 -0.9448
 2358TIP3    H128565   6.024   3.052   6.661  0.0693  1.2762 -1.4457
 2358TIP3    H228566   6.095   3.014   6.789 -0.0968 -0.7447 -1.9247
 2359TIP3   OH228567   0.219   1.584  17.149 -0.3929 -0.0464  0.5157
 2359TIP3    H128568   0.279   1.516  17.181  0.2661  1.0750  1.7851
 2359TIP3    H228569   0.242   1.662  17.200  1.6504  2.3370 -3.5126
 2360TIP3   OH228570   6.708   2.748  12.810 -0.1385 -0.8864 -0.2550
 2360TIP3    H128571   6.737   2.730  12.900 -0.0695 -2.6464 -0.5968
 2360TIP3    H228572   6.775   2.708  12.755  1.0438  2.0958 -1.1895
 2361TIP3   OH228573   5.561   5.496   1.613 -0.8007 -0.5868 -0.3344
 2361TIP3    H128574   5.610   5.528   1.537 -2.5115 -0.2380 -1.3586
 2361TIP3    H228575   5.616   5.516   1.688  1.7412 -2.4442 -1.5477
 2362TIP3   OH228576   4.543   3.726  13.179 -0.2405  0.3548 -0.8277
 2362TIP3    H128577   4.486   3.673  13.235 -0.5294  1.4872  0.0038
 2362TIP3    H228578   4.482   3.781  13.129  0.0931  1.3481 -0.1664
 2363TIP3   OH228579   1.362   2.250   2.213 -0.5278  0.2961 -0.0198
 2363TIP3    H128580   1.410   2.209   2.284  0.6411  1.0911 -0.3307
 2363TIP3    H228581   1.372   2.191   2.138 -0.4698  0.2126  0.0556
 2364TIP3   OH228582   4.863   4.151  15.233  0.4209 -0.3031 -0.6365
 2364TIP3    H128583   4.825   4.064  15.246 -1.4980  0.1809 -2.4471
 2364TIP3    H228584   4.845   4.171  15.141  1.3913  1.7479 -0.4272
 2365TIP3   OH228585   1.388   1.568  13.526 -0.4471 -0.3227 -0.5081
 2365TIP3    H128586   1.452   1.512  13.481 -2.2090 -2.9304 -0.0138
 2365TIP3    H228587   1.313   1.570  13.466 -1.1326 -0.1024  0.3361
 2366TIP3   OH228588   1.494   3.897   4.903 -0.4715 -0.3473  0.1301
 2366TIP3    H128589   1.574   3.881   4.954 -0.2298  0.4504  0.0152
 2366TIP3    H228590   1.511   3.855   4.819  1.0792  2.2483 -0.9845
 2367TIP3   OH228591   0.243   6.646   0.823  0.0548 -0.1802 -0.5095
 2367TIP3    H128592   0.304   6.574   0.806  1.1042  0.6321 -0.2860
 2367TIP3    H228593   0.173   6.634   0.759  1.4411 -0.0085 -2.1196
 2368TIP3   OH228594   6.504   4.360  13.927 -0.1590  0.0748 -0.0687
 2368TIP3    H128595   6.512   4.456  13.923  1.9244 -0.0405  0.1971
 2368TIP3    H228596   6.434   4.339  13.865 -0.9884  1.7954  0.2264
 2369TIP3   OH228597   5.982   1.664  13.949  0.0805  0.2909 -0.0618
 2369TIP3    H128598   5.989   1.569  13.951 -0.5984  0.2516  1.4206
 2369TIP3    H228599   6.072   1.695  13.934  0.2813 -0.5664 -0.6811
 2370TIP3   OH228600   5.579   3.880   0.240 -0.5840 -0.3325  0.7987
 2370TIP3    H128601   5.530   3.924   0.170  0.9047 -0.0454 -0.0973
 2370TIP3    H228602   5.567   3.937   0.316 -0.9959  0.1389  0.3920
 2371TIP3   OH228603   6.499   5.123   5.680 -0.0618 -0.0876  0.5198
 2371TIP3    H128604   6.545   5.157   5.604  0.0775 -0.8857  0.2393
 2371TIP3    H228605   6.568   5.087   5.736 -0.3729 -2.2096 -0.3641
 2372TIP3   OH228606   0.954   1.897   3.288 -0.3235  0.1272 -0.9092
 2372TIP3    H128607   0.983   1.985   3.311  2.1328 -0.6926 -0.5565
 2372TIP3    H228608   0.864   1.892   3.320  0.1277  1.8661  0.8049
 2373TIP3   OH228609   1.900   6.249  14.494 -0.0555 -0.1842  0.2006
 2373TIP3    H128610   1.953   6.240  14.415  0.7941 -0.8849  0.8296
 2373TIP3    H228611   1.952   6.209  14.563 -1.4713 -1.0498  0.8186
 2374TIP3   OH228612   6.810   0.537  12.399  0.0193 -0.1685 -0.0916
 2374TIP3    H128613   6.742   0.601  12.379 -0.1195 -0.2192  0.2058
 2374TIP3    H228614   6.830   0.496  12.315  1.4686  1.5709 -0.6746
 2375TIP3   OH228615   5.945   1.364  14.519  0.5374 -0.5687 -0.3541
 2375TIP3    H128616   5.873   1.303  14.504  0.3742 -0.2146 -1.0754
 2375TIP3    H228617   5.981   1.380  14.431  2.1509 -1.5275  0.0901
 2376TIP3   OH228618   0.919   5.017   1.895 -0.5521  0.0636 -0.0084
 2376TIP3    H128619   0.957   5.090   1.944  1.4371 -0.7405 -0.2861
 2376TIP3    H228620   0.861   4.974   1.958 -0.1237  0.6391  0.7999
 2377TIP3   OH228621   5.740   4.294  14.616 -0.3132 -0.0847  0.6435
 2377TIP3    H128622   5.794   4.267  14.542 -1.4802  1.2210 -0.7492
 2377TIP3    H228623   5.704   4.212  14.651 -0.2209 -0.6860 -0.6194
 2378TIP3   OH228624   2.034   5.946   1.581  0.2254  0.1092 -0.5616
 2378TIP3    H128625   2.084   6.007   1.635  2.1807 -0.7673 -1.2818
 2378TIP3    H228626   2.100   5.903   1.526 -1.1775 -2.0161 -0.6963
 2379TIP3   OH228627   4.408   1.055   3.896  0.3962  0.3141 -0.3309
 2379TIP3    H128628   4.480   1.055   3.959  0.3216 -0.7773 -0.2204
 2379TIP3    H228629   4.404   1.145   3.864  0.7046  0.7897  0.9121
 2380TIP3   OH228630   3.397   1.982   4.961  0.4243  0.2064 -0.1164
 2380TIP3    H128631   3.482   1.973   5.004  0.3482 -0.0748 -0.0264
 2380TIP3    H228632   3.371   2.072   4.980  0.4230  0.1042  0.3687
 2381TIP3   OH228633   0.006   4.565   1.273  0.0296 -0.2482 -0.6304
 2381TIP3    H128634  -0.033   4.641   1.230  1.1168 -0.1551 -1.4764
 2381TIP3    H228635   0.093   4.557   1.235  0.9260 -0.3557  1.3118
 2382TIP3   OH228636   5.788   5.679  12.114 -0.6711 -0.0059 -0.0691
 2382TIP3    H128637   5.788   5.756  12.172 -0.4178  0.9268 -1.2819
 2382TIP3    H228638   5.711   5.691  12.058 -1.1410 -1.1081  0.3033
 2383TIP3   OH228639   5.695   2.004  14.664  0.3356  0.6133  0.2770
 2383TIP3    H128640   5.626   2.070  14.655  0.1982  0.4029 -0.2412
 2383TIP3    H228641   5.689   1.975  14.755 -2.0985 -1.4001 -0.4285
 2384TIP3   OH228642   4.314   2.199  15.401  0.1458  0.1970  0.0966
 2384TIP3    H128643   4.383   2.265  15.391  0.1860  0.4283  1.6129
 2384TIP3    H228644   4.240   2.248  15.437 -0.2466 -0.3621  0.0613
 2385TIP3   OH228645   4.242   3.104   3.772  0.7198  0.1246  0.2236
 2385TIP3    H128646   4.269   3.096   3.680  0.9299 -1.8724  0.4191
 2385TIP3    H228647   4.186   3.182   3.773  0.2857 -0.0905 -1.7070
 2386TIP3   OH228648   2.959   6.105  14.451 -0.0033  0.1830  0.5398
 2386TIP3    H128649   3.051   6.121  14.430  0.6432 -1.8097  1.6042
 2386TIP3    H228650   2.924   6.191  14.473  1.9490  0.8071  1.3915
 2387TIP3   OH228651   3.286   6.006  14.647  0.2975  0.7673  0.2680
 2387TIP3    H128652   3.247   5.934  14.697  1.3637  0.0195  0.0536
 2387TIP3    H228653   3.379   5.985  14.644  0.3116  0.9772 -1.7225
 2388TIP3   OH228654   2.659   3.549  16.125  0.3892  0.6055  0.3778
 2388TIP3    H128655   2.653   3.456  16.107  0.6336  0.8032 -0.7861
 2388TIP3    H228656   2.594   3.565  16.193 -1.0903 -0.0596 -0.8352
 2389TIP3   OH228657   0.428   6.097   1.843 -0.0543  0.4678  0.1939
 2389TIP3    H128658   0.434   6.159   1.770 -0.7574 -0.4111 -0.6347
 2389TIP3    H228659   0.454   6.013   1.805  2.1907  0.4301  1.6112
 2390TIP3   OH228660   1.207   4.401   2.033  0.1793 -0.4115  0.3184
 2390TIP3    H128661   1.290   4.440   2.060 -0.0958 -0.5226  1.3785
 2390TIP3    H228662   1.182   4.345   2.106 -0.4480 -0.9844 -0.3190
 2391TIP3   OH228663   4.780   6.652  12.940 -0.4580 -0.0905  0.5088
 2391TIP3    H128664   4.813   6.567  12.911  2.1018  1.3648 -1.2725
 2391TIP3    H228665   4.831   6.716  12.890 -1.9330  2.5333  2.1169
 2392TIP3   OH228666   6.077   3.603   1.984 -0.0012  0.3532 -0.1971
 2392TIP3    H128667   6.005   3.541   1.973  0.9383 -0.7186 -0.5172
 2392TIP3    H228668   6.091   3.607   2.079 -2.2556  2.7258  0.1457
 2393TIP3   OH228669   2.495   4.228   5.153  0.2653 -0.6856  0.4120
 2393TIP3    H128670   2.562   4.286   5.118  0.2623 -0.8536  0.1283
 2393TIP3    H228671   2.418   4.283   5.165  0.6649 -0.3191  1.4302
 2394TIP3   OH228672   4.774   0.918  14.044  0.0381  0.0298  0.2253
 2394TIP3    H128673   4.733   0.974  14.111 -1.2309 -1.2648  0.5732
 2394TIP3    H228674   4.735   0.948  13.961 -0.1309  0.1029  0.3310
 2395TIP3   OH228675   1.404   0.255  13.913 -0.1016 -0.2452 -0.1502
 2395TIP3    H128676   1.308   0.252  13.921 -0.1753 -1.8523 -1.1657
 2395TIP3    H228677   1.436   0.227  13.999 -0.5070  1.0996  0.4640
 2396TIP3   OH228678   3.362   2.591   3.619 -0.7047  0.2698 -0.3615
 2396TIP3    H128679   3.448   2.565   3.653 -0.0626  0.3388 -1.8686
 2396TIP3    H228680   3.369   2.686   3.608  1.1330 -0.1279 -5.6345
 2397TIP3   OH228681   6.739   2.410   0.974 -0.5389  0.0643 -0.0829
 2397TIP3    H128682   6.791   2.330   0.984 -2.0401 -1.3980 -2.8507
 2397TIP3    H228683   6.660   2.395   1.026 -0.2198  0.3710  0.5032
 2398TIP3   OH228684   6.109   2.172  12.906 -0.4460  0.1060  0.2946
 2398TIP3    H128685   6.128   2.168  12.999  2.7282 -0.1946 -0.2495
 2398TIP3    H228686   6.068   2.257  12.892  3.2538  2.2755  1.4212
 2399TIP3   OH228687   3.814   1.530   0.932 -0.2507 -0.1686 -0.5688
 2399TIP3    H128688   3.735   1.521   0.986 -1.3101  0.0365 -2.0039
 2399TIP3    H228689   3.839   1.622   0.941  0.3038 -0.4151  0.5056
 2400TIP3   OH228690   0.392   2.068  13.900 -0.6644 -0.1968 -0.1973
 2400TIP3    H128691   0.442   2.082  13.820  0.4288 -0.1230  0.4868
 2400TIP3    H228692   0.303   2.048  13.870 -0.3050  0.0025 -1.4136
 2401TIP3   OH228693   1.850   2.900   0.952  0.7725 -0.5268  0.9919
 2401TIP3    H128694   1.807   2.968   1.003  0.4225 -1.8483  2.5449
 2401TIP3    H228695   1.809   2.904   0.866  0.1082  0.5864  1.3432
 2402TIP3   OH228696   5.621   4.040   2.025 -0.3914  0.2463  0.9182
 2402TIP3    H128697   5.578   3.999   1.949  2.5438 -0.4569 -0.4946
 2402TIP3    H228698   5.578   4.125   2.033 -2.8898 -0.8760  0.4665
 2403TIP3   OH228699   1.443   0.299   2.334 -0.0943 -0.6573 -0.0982
 2403TIP3    H128700   1.470   0.222   2.283 -2.0382 -0.8894 -0.8778
 2403TIP3    H228701   1.454   0.373   2.275  1.7965 -0.2927  0.6603
 2404TIP3   OH228702   1.289   5.360  15.702  0.7168  0.0570 -0.9515
 2404TIP3    H128703   1.312   5.426  15.637  0.5007  0.2791 -0.8078
 2404TIP3    H228704   1.210   5.395  15.744 -1.2419 -1.6894 -2.9344
 2405TIP3   OH228705   3.065   3.671  13.156  0.6501  0.1395 -0.0437
 2405TIP3    H128706   3.037   3.643  13.068 -0.5865 -0.3457  0.4760
 2405TIP3    H228707   3.018   3.753  13.170  0.0570 -0.2964  0.5520
 2406TIP3   OH228708   3.441   4.460   2.785  0.0633 -0.0089 -0.3128
 2406TIP3    H128709   3.517   4.412   2.819  0.7452  0.8568 -0.5627
 2406TIP3    H228710   3.454   4.550   2.816 -0.7635  0.1925 -0.5298
 2407TIP3   OH228711   4.933   2.748  15.042  0.8271 -0.1564  0.2166
 2407TIP3    H128712   4.912   2.684  15.109  1.9478  0.2060  0.9409
 2407TIP3    H228713   4.864   2.814  15.049  0.3905 -0.6241  0.3412
 2408TIP3   OH228714   1.367   5.971  13.604 -0.5043 -0.0064 -0.3254
 2408TIP3    H128715   1.447   6.010  13.639  0.3563 -1.1632 -0.9524
 2408TIP3    H228716   1.351   6.018  13.522 -0.9633  0.7960  0.2045
 2409TIP3   OH228717   1.439   5.908   2.803  0.4893 -0.5758 -0.0892
 2409TIP3    H128718   1.469   5.832   2.754 -1.3290 -1.5790  0.2650
 2409TIP3    H228719   1.363   5.939   2.755  1.0309  0.8615 -0.0603
 2410TIP3   OH228720   6.576   3.975   0.998 -0.0255  0.1397  0.0123
 2410TIP3    H128721   6.544   3.911   0.934 -0.9790 -0.6856  1.2593
 2410TIP3    H228722   6.496   4.010   1.038  0.3586  3.2010 -1.5656
 2411TIP3   OH228723   1.928   5.317  15.501  0.0347 -0.2722  0.1152
 2411TIP3    H128724   1.838   5.330  15.471  0.4367 -0.3097 -1.1605
 2411TIP3    H228725   1.976   5.294  15.422  1.1499 -0.3655  0.8058
 2412TIP3   OH228726   1.472   4.779  15.888 -0.2414 -0.1120  0.2552
 2412TIP3    H128727   1.453   4.827  15.808 -1.8916  1.1501  1.3192
 2412TIP3    H228728   1.441   4.837  15.958  1.1683 -1.1596  1.8106
 2413TIP3   OH228729   5.666   6.090   1.982 -0.3010  0.0631 -0.1556
 2413TIP3    H128730   5.592   6.037   1.954  1.2019 -2.2570  0.0074
 2413TIP3    H228731   5.627   6.159   2.036 -2.4224 -0.2722 -1.1524
 2414TIP3   OH228732   4.687   4.800  13.821  0.8478 -0.1965  0.3915
 2414TIP3    H128733   4.636   4.831  13.896 -0.9901 -0.7486 -0.5788
 2414TIP3    H228734   4.677   4.868  13.755  1.0791 -0.4836  0.0596
 2415TIP3   OH228735   3.666   5.118  17.152  1.1202  0.1743 -0.2209
 2415TIP3    H128736   3.707   5.035  17.177  0.9152  0.1841  0.1529
 2415TIP3    H228737   3.572   5.100  17.154  1.1089  0.0200 -1.5464
 2416TIP3   OH228738   0.391   0.697  10.585 -0.1934 -0.1800 -0.2026
 2416TIP3    H128739   0.329   0.683  10.514 -0.2419 -2.0661  0.1626
 2416TIP3    H228740   0.343   0.748  10.650 -0.4496  0.7354 -1.0903
 2417TIP3   OH228741   2.419   0.499  16.528  0.0047  0.1352  0.3202
 2417TIP3    H128742   2.466   0.540  16.456  2.1497 -0.9230  1.0497
 2417TIP3    H228743   2.358   0.439  16.485 -0.9619  1.7365 -0.6487
 2418TIP3   OH228744   6.479   3.254  13.135  0.5290 -0.3276 -0.3068
 2418TIP3    H128745   6.559   3.305  13.135  0.8538 -0.8086  0.5676
 2418TIP3    H228746   6.453   3.250  13.227 -0.8547  0.3486 -0.6380
 2419TIP3   OH228747   1.522   4.946   5.601 -0.2578 -0.3417  0.1019
 2419TIP3    H128748   1.491   4.890   5.672 -2.0437 -1.2194 -1.2983
 2419TIP3    H228749   1.483   4.909   5.522 -0.3363  2.0372 -1.0699
 2420TIP3   OH228750   4.763   0.996   5.370  0.4620 -0.1145 -0.3516
 2420TIP3    H128751   4.702   0.993   5.444  0.5540 -0.2600 -0.2803
 2420TIP3    H228752   4.810   0.913   5.375 -0.3181 -0.6232 -1.2415
 2421TIP3   OH228753   4.646   6.276  15.221 -0.1096  0.0654  0.1482
 2421TIP3    H128754   4.572   6.336  15.235  0.1417  0.1907  1.0107
 2421TIP3    H228755   4.624   6.199  15.273 -1.4932 -1.5892 -2.6645
 2422TIP3   OH228756   3.476   4.119   4.028  0.1019 -0.6308  0.0528
 2422TIP3    H128757   3.495   4.029   3.999 -2.2262 -0.9856 -0.6332
 2422TIP3    H228758   3.461   4.167   3.947  1.0146  0.3358  0.4359
 2423TIP3   OH228759   3.669   0.039  12.371 -0.0715 -0.1863  0.2049
 2423TIP3    H128760   3.663  -0.008  12.287 -1.2280  1.4786 -0.6930
 2423TIP3    H228761   3.763   0.054  12.383  0.0706  0.3098 -1.2599
 2424TIP3   OH228762   2.469   6.481  11.393  0.1414 -0.4916 -0.3001
 2424TIP3    H128763   2.554   6.524  11.406  0.1330 -0.7762  0.7567
 2424TIP3    H228764   2.464   6.416  11.462 -0.8380 -0.6496 -0.5085
 2425TIP3   OH228765   3.761   0.648  13.322 -0.0536  0.0302  0.0508
 2425TIP3    H128766   3.815   0.677  13.396  0.1367 -0.3082  0.0472
 2425TIP3    H228767   3.794   0.561  13.301 -1.8618 -0.9801  1.2539
 2426TIP3   OH228768   5.008   2.708  12.709 -0.0566 -0.4873  0.3408
 2426TIP3    H128769   5.101   2.693  12.695  0.0125  0.3567 -0.1553
 2426TIP3    H228770   4.994   2.687  12.802  0.3059 -2.1106  0.0522
 2427TIP3   OH228771   2.940   3.641   4.411 -0.1381  0.3249 -0.5289
 2427TIP3    H128772   2.933   3.655   4.506 -0.1899 -1.7265 -0.1817
 2427TIP3    H228773   3.029   3.670   4.390 -0.2016  1.0069  0.1087
 2428TIP3   OH228774   6.678   4.868  15.595  0.0708  0.2100 -0.0427
 2428TIP3    H128775   6.759   4.832  15.556  0.4732 -0.3960  1.3000
 2428TIP3    H228776   6.708   4.920  15.669 -0.8023 -0.5827  0.8878
 2429TIP3   OH228777   3.648   3.149  12.648  0.5190 -0.2437  0.6801
 2429TIP3    H128778   3.697   3.231  12.645  0.5007 -0.1122  2.8253
 2429TIP3    H228779   3.710   3.085  12.684 -0.2817 -0.5290  1.5831
 2430TIP3   OH228780   1.382   0.858   2.871  0.4032 -0.0628 -0.6701
 2430TIP3    H128781   1.373   0.928   2.935 -0.3934  0.0623 -0.9134
 2430TIP3    H228782   1.454   0.886   2.814  1.0665 -0.1453  0.1188
 2431TIP3   OH228783   0.228   4.793  14.423  0.3649  0.7593  0.1492
 2431TIP3    H128784   0.242   4.716  14.369 -0.6824 -0.0928  1.0478
 2431TIP3    H228785   0.151   4.836  14.384 -1.4702 -0.7687  1.8365
 2432TIP3   OH228786   6.236   4.021  17.049 -0.4872  0.1022 -0.6783
 2432TIP3    H128787   6.230   3.932  17.085  0.2536  0.8451  1.4094
 2432TIP3    H228788   6.280   4.010  16.965  0.0150 -1.4650 -0.2455
 2433TIP3   OH228789   3.573   1.474   0.277  0.0909  0.1354 -0.2658
 2433TIP3    H128790   3.646   1.429   0.320 -0.7601 -3.5928 -2.3149
 2433TIP3    H228791   3.513   1.495   0.349  2.0030  1.1075  1.1574
 2434TIP3   OH228792   2.997   3.457  14.741  0.1384 -0.4187  0.0836
 2434TIP3    H128793   3.035   3.543  14.761 -0.4700  0.5136 -2.4057
 2434TIP3    H228794   2.949   3.433  14.820  2.4213  0.3019  1.7802
 2435TIP3   OH228795   5.241   4.228  14.363  0.3491 -0.1166  0.1127
 2435TIP3    H128796   5.264   4.321  14.353  1.1696 -0.3895 -0.6258
 2435TIP3    H228797   5.273   4.205  14.450  0.6303  0.1577  0.0837
 2436TIP3   OH228798   2.178   4.935  15.385  0.4425 -0.0839 -0.4299
 2436TIP3    H128799   2.188   4.859  15.328  0.3667 -0.5211  0.1304
 2436TIP3    H228800   2.108   4.911  15.445 -0.8738  1.1518 -1.4002
 2437TIP3   OH228801   5.425   6.683  16.391  0.0208  0.0017 -0.0493
 2437TIP3    H128802   5.405   6.755  16.331 -0.5907 -0.6662 -0.6764
 2437TIP3    H228803   5.363   6.614  16.366 -0.1370 -0.3486  1.2535
 2438TIP3   OH228804   6.117   5.516  12.367  0.1527 -0.0953 -0.0314
 2438TIP3    H128805   6.147   5.467  12.444  2.1366 -0.3304 -0.9085
 2438TIP3    H228806   6.132   5.607  12.390 -1.5826  0.0420  0.7737
 2439TIP3   OH228807   1.168   6.007  12.185  0.5215 -0.1782  0.0393
 2439TIP3    H128808   1.189   6.071  12.253 -0.2317 -0.6021  0.6845
 2439TIP3    H228809   1.154   6.061  12.106  0.8408  0.3653  0.3442
 2440TIP3   OH228810   0.218   3.122   2.278 -0.6750  0.2502 -0.5909
 2440TIP3    H128811   0.187   3.200   2.324 -0.7619 -0.4590  0.5984
 2440TIP3    H228812   0.278   3.156   2.212  0.5488  1.2599  0.9350
 2441TIP3   OH228813   5.859   3.345  14.444  0.3156  0.1357 -0.3152
 2441TIP3    H128814   5.877   3.292  14.523 -2.2179  0.7036  0.7260
 2441TIP3    H228815   5.900   3.429  14.462 -0.1811  0.2353  0.3814
 2442TIP3   OH228816   0.310   0.946   1.040  0.1284  0.0731 -0.1757
 2442TIP3    H128817   0.296   0.889   0.964  1.4358  1.1333 -1.2615
 2442TIP3    H228818   0.251   1.019   1.027  0.1145  0.0960  0.0093
 2443TIP3   OH228819   3.738   1.041  14.525  0.4506  0.1266 -0.1085
 2443TIP3    H128820   3.658   0.989  14.522  2.3166 -3.0357 -3.0496
 2443TIP3    H228821   3.785   1.010  14.603  0.8013 -1.5450 -0.9394
 2444TIP3   OH228822   4.354   2.389  12.376 -0.3512 -0.8157 -0.0026
 2444TIP3    H128823   4.382   2.418  12.463 -0.8026 -0.5758  0.0637
 2444TIP3    H228824   4.262   2.413  12.371 -0.0329  0.3094 -1.0093
 2445TIP3   OH228825   6.295   1.167   3.127 -0.2552  0.3203  0.4339
 2445TIP3    H128826   6.318   1.260   3.117  0.0656  0.1076 -0.9749
 2445TIP3    H228827   6.372   1.120   3.095 -1.0468 -0.4272 -0.4269
 2446TIP3   OH228828   5.359   2.089   4.972 -0.3617  0.1001  0.0275
 2446TIP3    H128829   5.451   2.108   4.992 -0.8112  1.9902  0.4244
 2446TIP3    H228830   5.315   2.094   5.057 -1.1509  1.2227 -0.4349
 2447TIP3   OH228831   6.804   5.817  14.434 -0.1291 -0.2307 -0.5130
 2447TIP3    H128832   6.738   5.886  14.420  0.4572  0.0263 -2.3492
 2447TIP3    H228833   6.815   5.777  14.348  1.6194 -0.7233 -0.1043
 2448TIP3   OH228834   5.321   1.839   4.875 -0.2144 -0.1839  0.1610
 2448TIP3    H128835   5.325   1.934   4.870 -0.3380 -0.1792  0.1280
 2448TIP3    H228836   5.230   1.818   4.854  0.4003 -0.4748 -2.6209
 2449TIP3   OH228837   5.645   1.512  12.276 -0.4274  0.1613  0.6697
 2449TIP3    H128838   5.590   1.578  12.320 -3.0529 -1.7243  0.4345
 2449TIP3    H228839   5.656   1.545  12.187 -0.6814  0.8429  0.8850
 2450TIP3   OH228840   6.450   1.098   0.008  0.0131 -1.1828 -0.0325
 2450TIP3    H128841   6.528   1.047  -0.012  0.1428 -1.0697  0.1844
 2450TIP3    H228842   6.481   1.168   0.065  0.3010  0.6236 -2.2668
 2451TIP3   OH228843   2.893   1.075   0.457 -0.3671 -0.6263 -0.3405
 2451TIP3    H128844   2.867   1.017   0.528 -0.5350 -0.1361  0.0002
 2451TIP3    H228845   2.980   1.043   0.431  0.1417 -0.1783  0.7651
 2452TIP3   OH228846   1.919   5.188   4.830  0.6501 -0.0072 -0.2010
 2452TIP3    H128847   1.825   5.196   4.846  0.5179 -1.9266  0.2380
 2452TIP3    H228848   1.952   5.278   4.833 -0.8236  0.5410  1.9177
 2453TIP3   OH228849   1.606   0.585   2.833 -0.1572 -0.2418 -0.0016
 2453TIP3    H128850   1.658   0.587   2.752  0.1387 -1.7473  0.1243
 2453TIP3    H228851   1.519   0.616   2.806  0.6645  2.0656 -0.2651
 2454TIP3   OH228852   3.899   2.882   4.168 -0.0984 -0.4205 -0.3450
 2454TIP3    H128853   3.827   2.825   4.196 -0.1060  0.2530  1.0594
 2454TIP3    H228854   3.856   2.960   4.133 -0.0605 -0.3965 -0.3381
 2455TIP3   OH228855   1.412   1.436   1.244  0.0335 -0.4509  0.2386
 2455TIP3    H128856   1.421   1.343   1.223 -0.1705 -0.7683  1.4409
 2455TIP3    H228857   1.330   1.441   1.294 -0.9923  0.6965 -1.4695
 2456TIP3   OH228858   1.008   6.658   0.654 -0.3559 -0.2598 -0.4210
 2456TIP3    H128859   0.919   6.690   0.667  0.2370  1.1590  0.3690
 2456TIP3    H228860   1.049   6.724   0.597  0.0754 -1.1185 -1.1235
 2457TIP3   OH228861   2.763   5.993   5.170  0.0007  0.0277 -0.0285
 2457TIP3    H128862   2.784   5.904   5.197 -0.8563 -0.2087 -0.1049
 2457TIP3    H228863   2.670   5.990   5.150 -0.3178  1.2266  1.1168
 2458TIP3   OH228864   5.605   1.881   2.902  0.5181  0.0594 -0.4030
 2458TIP3    H128865   5.599   1.956   2.961 -0.1413 -1.7843  2.0911
 2458TIP3    H228866   5.527   1.888   2.847 -3.6345 -2.0352  4.2996
 2459TIP3   OH228867   4.311   1.840  12.437  0.3999  1.3743 -0.3800
 2459TIP3    H128868   4.282   1.905  12.502 -0.5830  1.8035 -1.2226
 2459TIP3    H228869   4.358   1.774  12.488 -2.7501  0.1820  1.2269
 2460TIP3   OH228870   1.083   0.281   5.638 -0.1558 -0.1276 -0.0380
 2460TIP3    H128871   1.004   0.311   5.593 -1.4152 -1.2328  1.3249
 2460TIP3    H228872   1.068   0.304   5.730  0.5104 -1.5011  0.4415
 2461TIP3   OH228873   2.707   3.247  13.863  0.2554  0.1143 -0.1417
 2461TIP3    H128874   2.700   3.340  13.884 -1.9258  0.6711 -2.8308
 2461TIP3    H228875   2.732   3.206  13.946  0.5635  2.9657  1.3053
 2462TIP3   OH228876   1.359   3.002   0.611  0.3170  0.1162 -0.3970
 2462TIP3    H128877   1.454   3.005   0.606  0.3435 -1.2603 -1.1421
 2462TIP3    H228878   1.340   2.984   0.703  0.8453 -1.1684 -0.5226
 2463TIP3   OH228879   5.518   2.930  12.859  0.0371  0.0029 -0.2193
 2463TIP3    H128880   5.507   3.024  12.847 -2.0744  0.0690  1.6329
 2463TIP3    H228881   5.507   2.894  12.771 -0.6749  1.3836 -0.7376
 2464TIP3   OH228882   4.826   2.883  12.657 -0.0829 -0.1631  0.1421
 2464TIP3    H128883   4.894   2.816  12.653  0.3986  0.2628  0.9781
 2464TIP3    H228884   4.775   2.870  12.577  1.6004  0.1743 -1.0379
 2465TIP3   OH228885   3.554   3.692   0.216 -0.2000 -0.7799 -0.0760
 2465TIP3    H128886   3.548   3.710   0.122  0.0188 -1.2500 -0.1790
 2465TIP3    H228887   3.606   3.613   0.222 -0.8894 -1.2040  0.4060
 2466TIP3   OH228888   5.725   1.203  14.436  0.3193  0.0588  0.0003
 2466TIP3    H128889   5.652   1.197  14.374  0.5714  0.6219 -0.3566
 2466TIP3    H228890   5.783   1.131  14.412  0.1058 -0.1124 -0.0066
 2467TIP3   OH228891   1.749   3.581   5.933  0.0197  0.0918  0.0525
 2467TIP3    H128892   1.692   3.578   5.856 -1.3305  2.3436  0.8495
 2467TIP3    H228893   1.813   3.649   5.913 -0.4519  0.8256  0.9293
 2468TIP3   OH228894   0.304   1.556  14.203  0.0327  0.1215  0.4428
 2468TIP3    H128895   0.353   1.595  14.276  2.3234 -1.7349  0.0056
 2468TIP3    H228896   0.366   1.557  14.130 -0.0426 -3.4909  0.1906
 2469TIP3   OH228897   6.678   1.771  15.790 -0.1740  0.4700  0.3479
 2469TIP3    H128898   6.746   1.837  15.776 -0.2011  0.7600  1.5441
 2469TIP3    H228899   6.633   1.799  15.869 -1.1822 -0.1582  0.0148
 2470TIP3   OH228900   4.409   6.134   3.352  0.8281 -0.0270 -0.5810
 2470TIP3    H128901   4.384   6.207   3.409  0.3740  1.4927 -2.6168
 2470TIP3    H228902   4.342   6.134   3.284 -1.2509 -4.5695  1.0768
 2471TIP3   OH228903   4.232   1.634   2.818 -0.4145  0.1717  0.6316
 2471TIP3    H128904   4.153   1.688   2.816 -0.3603  0.2436  0.4525
 2471TIP3    H228905   4.284   1.665   2.744 -0.3529 -0.0798  0.5690
 2472TIP3   OH228906   2.920   2.490  17.050 -0.5071  0.7287  0.4716
 2472TIP3    H128907   2.833   2.496  17.089  0.3243 -0.3566  2.7084
 2472TIP3    H228908   2.956   2.579  17.059 -1.5609  1.3473 -1.0651
 2473TIP3   OH228909   3.264   3.850  13.247 -1.0294  0.2410  0.3114
 2473TIP3    H128910   3.195   3.787  13.225 -1.6975  0.1719  2.3942
 2473TIP3    H228911   3.319   3.854  13.169 -2.1628 -1.3417 -0.6193
 2474TIP3   OH228912   3.280   5.173  14.636 -0.3978 -0.1553  0.0243
 2474TIP3    H128913   3.257   5.244  14.576  0.8299 -0.2447 -0.5878
 2474TIP3    H228914   3.275   5.094  14.583  0.9658 -0.2064 -0.0607
 2475TIP3   OH228915   0.278   4.641  11.051 -0.5628 -0.4985 -0.4125
 2475TIP3    H128916   0.290   4.546  11.054 -2.0654 -0.6858  0.9927
 2475TIP3    H228917   0.184   4.653  11.060 -0.3683  1.1430 -0.3203
 2476TIP3   OH228918   5.208   0.207  15.750  0.6028  0.8092 -0.6017
 2476TIP3    H128919   5.242   0.204  15.840 -1.7987 -0.8657  0.3652
 2476TIP3    H228920   5.237   0.125  15.711 -0.9363  0.0425 -0.2380
 2477TIP3   OH228921   5.229   0.997  14.919 -0.2900 -0.7493  0.5528
 2477TIP3    H128922   5.245   0.981  15.012 -0.6707  0.7048  0.8978
 2477TIP3    H228923   5.135   0.977  14.908 -0.7007  0.8579  0.9240
 2478TIP3   OH228924   1.610   6.620  14.609 -0.1517 -0.1922  0.0239
 2478TIP3    H128925   1.688   6.671  14.588 -0.6834 -0.0891 -1.9107
 2478TIP3    H228926   1.620   6.540  14.556 -1.1121 -0.4037  0.1579
 2479TIP3   OH228927   5.726   3.010  12.251  0.1641  0.3257 -0.9236
 2479TIP3    H128928   5.703   2.918  12.258 -1.1707  0.5676 -1.7205
 2479TIP3    H228929   5.680   3.040  12.172 -0.1911  1.8834 -0.1532
 2480TIP3   OH228930   2.033   5.022  11.465 -0.1828  0.4181  0.5071
 2480TIP3    H128931   2.044   5.011  11.371  2.4408  0.6738  0.7071
 2480TIP3    H228932   2.104   5.081  11.491 -1.6686  1.4479  2.4618
 2481TIP3   OH228933   3.865   2.482   2.385 -0.2135 -0.8536  0.8295
 2481TIP3    H128934   3.796   2.421   2.411 -0.0333 -2.8714 -2.8190
 2481TIP3    H228935   3.912   2.438   2.314  1.7109  2.4697 -0.2217
 2482TIP3   OH228936   0.491   0.164  15.471  0.0210  0.4724  0.4369
 2482TIP3    H128937   0.446   0.205  15.545 -1.3628 -0.6538  0.2648
 2482TIP3    H228938   0.502   0.072  15.497  0.9515  0.4056 -0.1272
 2483TIP3   OH228939   5.688   4.930   0.179 -0.3169  0.4577  0.1737
 2483TIP3    H128940   5.674   4.839   0.152  1.4071 -0.0660  0.9296
 2483TIP3    H228941   5.631   4.941   0.256 -0.6923  0.0900 -0.0500
 2484TIP3   OH228942   1.685   3.121   1.107 -0.4560  0.1157  0.0104
 2484TIP3    H128943   1.593   3.096   1.110  0.0074 -1.6767  0.2895
 2484TIP3    H228944   1.692   3.194   1.169 -2.1220  2.0193 -1.8867
 2485TIP3   OH228945   1.602   0.896  14.496  0.2385  0.1855  0.0918
 2485TIP3    H128946   1.524   0.913  14.442  0.4596  0.2853 -0.1993
 2485TIP3    H228947   1.608   0.801  14.501  1.1901  0.1172 -1.5050
 2486TIP3   OH228948   1.895   4.557  14.453 -0.1759  0.0816 -0.0291
 2486TIP3    H128949   1.828   4.549  14.522 -0.8910  0.0116 -0.7098
 2486TIP3    H228950   1.904   4.651  14.439  0.3655  0.1178  0.5255
 2487TIP3   OH228951   0.300   3.775  14.704 -0.4151 -0.3409  0.0080
 2487TIP3    H128952   0.269   3.809  14.620 -1.2502 -0.7850  0.1281
 2487TIP3    H228953   0.345   3.693  14.682 -1.4606 -0.9541  0.0738
 2488TIP3   OH228954   6.553   6.116  11.276 -0.2610  0.1809  0.1060
 2488TIP3    H128955   6.528   6.046  11.215 -2.6519 -1.3232  2.5351
 2488TIP3    H228956   6.493   6.188  11.256 -1.5025 -0.5600  1.0107
 2489TIP3   OH228957   2.157   5.584   5.535 -1.1075  0.3152 -0.6281
 2489TIP3    H128958   2.129   5.627   5.455 -1.5801 -1.3552 -1.4077
 2489TIP3    H228959   2.156   5.490   5.514  1.4674 -0.0597  0.4555
 2490TIP3   OH228960   4.012   1.257  11.841 -0.0435  0.5346 -0.1858
 2490TIP3    H128961   3.947   1.191  11.817  0.6759  0.3243 -1.6901
 2490TIP3    H228962   4.080   1.249  11.774  0.7256  1.8821  0.3858
 2491TIP3   OH228963   3.571   2.755   5.249 -0.5433 -0.3062 -0.2361
 2491TIP3    H128964   3.633   2.752   5.176  0.3792  3.0096  0.2798
 2491TIP3    H228965   3.618   2.714   5.322  0.4810  0.7744 -0.2638
 2492TIP3   OH228966   6.180   1.285  14.638 -0.7391  0.1123  0.4930
 2492TIP3    H128967   6.179   1.199  14.680 -2.6368 -0.1360  0.0239
 2492TIP3    H228968   6.097   1.291  14.593 -0.3397  1.9215 -0.1030
 2493TIP3   OH228969   4.573   0.545   3.075  0.1111  0.0325  0.0491
 2493TIP3    H128970   4.511   0.604   3.033  1.1070  0.6848 -0.5537
 2493TIP3    H228971   4.545   0.541   3.167 -0.6873  0.4732 -0.1705
 2494TIP3   OH228972   2.668   5.484   2.504 -0.2433  0.5047 -0.2081
 2494TIP3    H128973   2.668   5.390   2.486 -1.5142  0.5863 -0.7210
 2494TIP3    H228974   2.587   5.516   2.465 -0.0647  1.7406  0.3879
 2495TIP3   OH228975   3.727   1.681  14.204 -0.4191 -1.1609  0.4076
 2495TIP3    H128976   3.703   1.650  14.291 -2.0981 -2.4980 -0.4730
 2495TIP3    H228977   3.659   1.745  14.182  0.6703  0.0842  0.5166
 2496TIP3   OH228978   0.826   6.036  12.530 -0.0133 -0.2035 -0.2545
 2496TIP3    H128979   0.744   6.058  12.573 -0.1181 -0.0491 -0.5359
 2496TIP3    H228980   0.863   6.119  12.503 -0.6322 -0.3848 -1.7252
 2497TIP3   OH228981   5.319   0.481  15.006 -0.7213  0.0736 -0.4695
 2497TIP3    H128982   5.412   0.479  14.980 -0.9783 -1.0639 -1.4102
 2497TIP3    H228983   5.311   0.410  15.070 -0.5877  1.3629  1.0431
 2498TIP3   OH228984   0.930   0.992  14.107  0.4147 -0.2233  0.1799
 2498TIP3    H128985   0.879   1.064  14.068  1.2261  0.4582  0.3508
 2498TIP3    H228986   0.924   1.007  14.201 -0.7668 -1.3329  0.3070
 2499TIP3   OH228987   0.590   6.327  14.996  0.8887  0.3766 -0.4642
 2499TIP3    H128988   0.511   6.377  14.975  1.0528  0.6050 -0.5363
 2499TIP3    H228989   0.620   6.362  15.079 -0.8764 -1.8594  1.2445
 2500TIP3   OH228990   0.983   1.680  14.271 -0.3868 -0.1638 -0.7568
 2500TIP3    H128991   1.042   1.627  14.325 -0.3604 -1.3149 -1.8652
 2500TIP3    H228992   0.934   1.733  14.334  0.4600 -0.6072  0.3086
 2501TIP3   OH228993   3.650   0.342  16.384  0.1241  0.0648 -0.6612
 2501TIP3    H128994   3.690   0.264  16.421  0.7671  0.2583 -0.9285
 2501TIP3    H228995   3.724   0.392  16.348 -0.2055  1.0571  0.0006
 2502TIP3   OH228996   3.489   4.134   6.195  0.7635  0.0866  0.2885
 2502TIP3    H128997   3.579   4.167   6.191  0.3773  1.1283 -3.2135
 2502TIP3    H228998   3.438   4.199   6.149 -1.2188 -2.1474 -0.8649
 2503TIP3   OH228999   5.629   3.449  17.168 -0.7046 -0.0178 -0.0110
 2503TIP3    H129000   5.578   3.391  17.112  1.2119  0.0827 -2.0123
 2503TIP3    H229001   5.589   3.535  17.157 -0.8190 -0.1489 -0.6285
 2504TIP3   OH229002   1.219   3.085   0.208 -0.1265 -0.1832  0.1277
 2504TIP3    H129003   1.149   3.132   0.254  1.5178  1.9071  0.6908
 2504TIP3    H229004   1.245   3.016   0.268 -1.0098 -0.3384  0.3520
 2505TIP3   OH229005   1.085   6.649   5.023 -0.2262  0.1237  0.5903
 2505TIP3    H129006   1.155   6.713   5.035 -0.6317  0.4955  1.0070
 2505TIP3    H229007   1.005   6.701   5.023 -0.5086 -0.3075  0.2041
 2506TIP3   OH229008   6.687   1.704   0.044 -0.0142 -0.2257 -0.1496
 2506TIP3    H129009   6.761   1.726  -0.012 -0.2264 -0.0921 -0.3814
 2506TIP3    H229010   6.719   1.634   0.101 -0.9549 -3.3973 -3.1811
 2507TIP3   OH229011   1.949   3.123  11.836 -0.5138  0.2937  0.1727
 2507TIP3    H129012   1.952   3.048  11.777  0.3180  1.4033 -1.2289
 2507TIP3    H229013   1.949   3.084  11.924  0.6869 -1.3276 -0.5064
 2508TIP3   OH229014   2.397   3.330   1.455  0.1537  0.7091  0.0979
 2508TIP3    H129015   2.480   3.302   1.415  0.1926 -0.1083  0.7258
 2508TIP3    H229016   2.401   3.295   1.544 -0.8589  0.6944  0.1439
 2509TIP3   OH229017   5.305   5.089  13.375  0.0872 -0.1954  0.1526
 2509TIP3    H129018   5.294   5.040  13.294  0.5336 -1.3987  0.7870
 2509TIP3    H229019   5.237   5.157  13.372  0.4228  0.1041 -1.4327
 2510TIP3   OH229020   0.014   3.331  14.274  0.2333  0.5036 -0.1192
 2510TIP3    H129021   0.010   3.352  14.368  0.7955 -0.4147  0.1165
 2510TIP3    H229022   0.064   3.403  14.236  0.0735  0.8406  0.2966
 2511TIP3   OH229023   6.191   2.669   4.751 -0.5803 -0.7106 -0.0377
 2511TIP3    H129024   6.157   2.753   4.719  0.3856  0.2948  1.4087
 2511TIP3    H229025   6.286   2.682   4.751 -0.2017 -2.7945 -2.2940
 2512TIP3   OH229026   0.988   2.584   3.844  0.4118 -0.2617  0.3969
 2512TIP3    H129027   0.929   2.519   3.808 -0.8745  1.1985 -0.2113
 2512TIP3    H229028   0.936   2.631   3.910  1.5535 -0.3514  1.3996
 2513TIP3   OH229029   0.987   3.176   0.325  0.0055 -0.1602  0.6639
 2513TIP3    H129030   0.961   3.160   0.415  0.6438 -0.6713  0.7702
 2513TIP3    H229031   0.919   3.136   0.272  0.4242 -1.2584  0.9325
 2514TIP3   OH229032   2.757   0.776  14.226  0.3221 -0.5090  0.2057
 2514TIP3    H129033   2.672   0.772  14.183  0.2069 -1.3669  0.5026
 2514TIP3    H229034   2.752   0.853  14.283 -0.2204 -0.5171  0.1662
 2515TIP3   OH229035   5.685   6.108   1.693  0.2884  0.7221 -0.0748
 2515TIP3    H129036   5.707   6.018   1.672  1.8309  1.1589 -0.5136
 2515TIP3    H229037   5.707   6.118   1.785 -2.2059  0.0258  0.6583
 2516TIP3   OH229038   2.652   4.683  14.850  0.0476 -0.4342  0.2180
 2516TIP3    H129039   2.714   4.752  14.871 -1.4281  0.8578  0.5341
 2516TIP3    H229040   2.706   4.605  14.835  1.6181  0.2659  1.9164
 2517TIP3   OH229041   0.900   2.697  11.143 -0.3261  0.5051 -0.1351
 2517TIP3    H129042   0.965   2.692  11.073 -1.2717 -0.4320 -0.9844
 2517TIP3    H229043   0.926   2.631  11.207 -0.5748 -0.0500 -0.6014
 2518TIP3   OH229044   3.516   4.485  16.070  0.1437  0.0210 -0.3459
 2518TIP3    H129045   3.497   4.461  16.161 -0.9750  2.2713  0.0904
 2518TIP3    H229046   3.445   4.444  16.020  0.9938 -1.5735 -0.3001
 2519TIP3   OH229047   0.917   3.537   0.183 -0.2220  0.1205 -0.0787
 2519TIP3    H129048   0.878   3.481   0.115 -0.7516 -1.8894  1.7562
 2519TIP3    H229049   1.011   3.524   0.173 -0.3372 -1.4372  0.4952
 2520TIP3   OH229050   1.751   4.612  15.645  0.2267 -0.1167  0.4008
 2520TIP3    H129051   1.670   4.562  15.643  0.0472  0.1316 -2.3125
 2520TIP3    H229052   1.730   4.689  15.698 -1.7631  0.6015 -1.3144
 2521TIP3   OH229053   0.739   2.693   5.800 -0.5395 -0.7047 -0.1171
 2521TIP3    H129054   0.687   2.767   5.770 -1.0963 -1.5407 -1.2942
 2521TIP3    H229055   0.674   2.625   5.821 -0.0453 -0.8667  1.0021
 2522TIP3   OH229056   2.110   0.880  16.220 -0.3314  0.2316  0.0751
 2522TIP3    H129057   2.170   0.913  16.153  1.2898 -0.1301  1.3029
 2522TIP3    H229058   2.096   0.954  16.279 -0.6763  0.1560  0.0919
 2523TIP3   OH229059   6.308   3.409   2.625 -0.2563 -0.1749  0.2088
 2523TIP3    H129060   6.394   3.449   2.636  0.0684 -0.7688 -0.1226
 2523TIP3    H229061   6.315   3.360   2.543 -1.2670  0.6763 -0.4013
 2524TIP3   OH229062   5.870   4.883  13.995  0.4172  0.4093 -0.3120
 2524TIP3    H129063   5.874   4.973  14.028  0.1148  0.5076 -0.5388
 2524TIP3    H229064   5.961   4.862  13.972  0.2562  1.2893 -1.9023
 2525TIP3   OH229065   4.275   0.625  13.303  0.6946 -0.4057  0.1812
 2525TIP3    H129066   4.210   0.573  13.256 -1.9880  2.2859  0.6313
 2525TIP3    H229067   4.330   0.662  13.234  0.5869 -1.2032 -0.3515
 2526TIP3   OH229068   1.663   3.384  12.604 -0.1112 -0.3588  0.0737
 2526TIP3    H129069   1.703   3.462  12.644 -2.6312 -0.1391  2.4784
 2526TIP3    H229070   1.696   3.311  12.656  1.1215 -0.8167 -1.2759
 2527TIP3   OH229071   0.025   0.679   1.287 -0.2370 -0.4439  0.4277
 2527TIP3    H129072  -0.020   0.764   1.287 -0.3450 -0.4976  1.2065
 2527TIP3    H229073  -0.034   0.621   1.240  0.6966  0.3403 -1.8514
 2528TIP3   OH229074   2.060   6.171  12.522 -0.6807 -0.2319  0.5065
 2528TIP3    H129075   2.059   6.075  12.518  0.0820 -0.2166 -0.4397
 2528TIP3    H229076   2.143   6.192  12.564 -0.8259  0.0235  0.6669
 2529TIP3   OH229077   2.462   4.999   6.080  0.4654  0.2850 -0.5385
 2529TIP3    H129078   2.381   5.019   6.127 -0.1466  1.7567 -2.1134
 2529TIP3    H229079   2.531   5.011   6.145 -0.5494 -1.4634  0.9762
 2530TIP3   OH229080   0.371   0.373   4.337 -0.0036 -0.2613 -0.1293
 2530TIP3    H129081   0.331   0.430   4.271  0.9670 -0.7361 -1.1608
 2530TIP3    H229082   0.424   0.432   4.391  1.5544 -0.2092 -1.6172
 2531TIP3   OH229083   6.175   1.645   5.554  0.0074 -0.2816 -0.1158
 2531TIP3    H129084   6.088   1.683   5.567 -0.0732  0.1226 -1.7056
 2531TIP3    H229085   6.158   1.552   5.539 -0.0093 -0.4810  1.0052
 2532TIP3   OH229086   0.441   5.810  16.368  0.0627 -0.2605 -0.3489
 2532TIP3    H129087   0.462   5.864  16.291 -0.8481 -0.4784 -0.7597
 2532TIP3    H229088   0.502   5.737  16.362 -0.5759 -0.7354 -1.3687
 2533TIP3   OH229089   1.726   6.039   4.404 -0.1941  0.3021  0.5051
 2533TIP3    H129090   1.814   6.005   4.415 -0.0850  0.5151  0.2985
 2533TIP3    H229091   1.736   6.114   4.345 -0.5177  0.2973  0.4406
 2534TIP3   OH229092   2.179   2.123  17.278  0.0915 -0.1343  0.1703
 2534TIP3    H129093   2.175   2.131  17.373  1.4643  0.9565  0.1619
 2534TIP3    H229094   2.132   2.042  17.259  0.2478 -0.6453  1.8241
 2535TIP3   OH229095   4.252   4.144  11.038 -0.4246  0.3608  0.2602
 2535TIP3    H129096   4.190   4.191  10.982 -0.8992  0.4360  0.8289
 2535TIP3    H229097   4.231   4.175  11.127  0.0062 -0.0904  0.5227
 2536TIP3   OH229098   5.124   3.279   3.628  0.4168 -0.3013 -0.0461
 2536TIP3    H129099   5.058   3.221   3.589  0.9259 -2.0309  1.5666
 2536TIP3    H229100   5.092   3.295   3.717  0.2605  1.9921 -0.4612
 2537TIP3   OH229101   0.521   6.806  17.184  0.4475 -0.3939  0.1833
 2537TIP3    H129102   0.528   6.901  17.174 -0.7413 -0.1985  1.0032
 2537TIP3    H229103   0.581   6.770  17.118 -0.9006  0.8839 -1.8351
 2538TIP3   OH229104   1.341   1.630  11.106 -0.5368  0.3656 -0.0300
 2538TIP3    H129105   1.297   1.710  11.078 -0.2519 -0.1745 -2.2064
 2538TIP3    H229106   1.431   1.658  11.123 -1.3150  1.2454  3.3228
 2539TIP3   OH229107   0.613   4.096   2.409  0.0392  0.0648 -0.2345
 2539TIP3    H129108   0.648   4.011   2.435  0.3847 -0.0423 -0.9982
 2539TIP3    H229109   0.661   4.160   2.462 -2.0299 -0.3108  2.2468
 2540TIP3   OH229110   1.545   3.654  15.973 -0.0998 -0.3242  0.0104
 2540TIP3    H129111   1.552   3.582  16.036  0.2880 -0.6550 -0.4021
 2540TIP3    H229112   1.575   3.616  15.890  1.3562  0.6654  0.0498
 2541TIP3   OH229113   5.197   3.350  16.009  0.4710  0.2216  0.4145
 2541TIP3    H129114   5.203   3.417  16.078  1.9129  0.2097  0.3228
 2541TIP3    H229115   5.287   3.319  15.998 -0.0732 -1.2296 -0.0553
 2542TIP3   OH229116   3.269   3.336  16.959 -0.0319 -0.0551  0.1752
 2542TIP3    H129117   3.210   3.275  17.004 -1.6053  0.0708 -1.5874
 2542TIP3    H229118   3.237   3.338  16.868  2.5260  0.2740 -0.7900
 2543TIP3   OH229119   5.420   2.893  12.487 -0.9241  0.1610 -0.4734
 2543TIP3    H129120   5.358   2.919  12.554 -0.7042  0.9872 -0.5701
 2543TIP3    H229121   5.493   2.853  12.535 -1.9054 -1.6648 -0.4236
 2544TIP3   OH229122   1.751   6.677  13.168 -0.0964 -0.0332 -0.4313
 2544TIP3    H129123   1.843   6.670  13.194  0.5193 -0.5091 -2.5554
 2544TIP3    H229124   1.707   6.609  13.218  1.0188 -0.9646 -0.6720
 2545TIP3   OH229125   4.594   1.404  16.224  0.7337 -0.2202  0.4224
 2545TIP3    H129126   4.640   1.323  16.246 -0.4535 -0.5942  1.6573
 2545TIP3    H229127   4.508   1.375  16.194  0.8072  0.5298 -0.5665
 2546TIP3   OH229128   2.738   1.286  11.092  0.2476 -0.6052 -0.3074
 2546TIP3    H129129   2.767   1.337  11.016 -1.3868  0.6724 -0.1407
 2546TIP3    H229130   2.678   1.221  11.056 -2.1237  1.2600 -0.0432
 2547TIP3   OH229131   2.647   1.567  15.045 -0.0431 -0.3064 -0.5030
 2547TIP3    H129132   2.617   1.583  14.955 -0.7902 -1.2111 -0.4226
 2547TIP3    H229133   2.587   1.619  15.099  0.3188  0.1265 -0.5124
 2548TIP3   OH229134   3.921   5.020   0.444  0.6617  0.0700  0.7806
 2548TIP3    H129135   4.000   4.967   0.436  0.6224 -0.1240  1.5788
 2548TIP3    H229136   3.942   5.086   0.510  1.1075  1.8293 -1.0127
 2549TIP3   OH229137   2.729   1.241   3.687  0.6873 -0.3955 -0.5598
 2549TIP3    H129138   2.737   1.195   3.603  1.5569 -0.0409 -0.6803
 2549TIP3    H229139   2.753   1.176   3.752 -2.6726 -1.5725 -0.2756
 2550TIP3   OH229140   6.477   1.401   2.356  0.0979  0.4918  0.2896
 2550TIP3    H129141   6.486   1.463   2.429  1.7685  0.7501 -0.0948
 2550TIP3    H229142   6.531   1.326   2.381 -0.3791  0.0108 -0.0975
 2551TIP3   OH229143   3.629   1.035   2.229 -0.2052 -0.5032 -0.1635
 2551TIP3    H129144   3.579   1.080   2.161 -0.5850  1.6979  1.4702
 2551TIP3    H229145   3.716   1.074   2.225 -0.0339 -0.8383  0.1949
 2552TIP3   OH229146   1.807   1.004  12.185  0.1719  0.6724  0.0993
 2552TIP3    H129147   1.806   1.087  12.233  0.2988  1.2199 -0.8092
 2552TIP3    H229148   1.847   1.026  12.101 -1.2088  0.0285 -0.7627
 2553TIP3   OH229149   2.946   2.722  16.019  0.2236 -0.3210  0.0155
 2553TIP3    H129150   2.874   2.778  16.048  1.1746  0.7820  0.2813
 2553TIP3    H229151   2.946   2.731  15.924  0.6184  0.4350  0.0864
 2554TIP3   OH229152   6.435   1.953   3.535  0.5849 -0.3252  0.0682
 2554TIP3    H129153   6.451   2.036   3.579  0.1122 -0.3340  0.2587
 2554TIP3    H229154   6.427   1.889   3.605 -1.3634 -0.1423  0.0669
 2555TIP3   OH229155   6.345   3.152   2.111  0.1551 -0.2267  0.0809
 2555TIP3    H129156   6.326   3.212   2.039  1.3496  0.4706  0.3217
 2555TIP3    H229157   6.420   3.101   2.082 -0.7955 -1.6007 -0.0869
 2556TIP3   OH229158   3.652   6.747  14.861 -0.1793  0.0439  0.0228
 2556TIP3    H129159   3.596   6.796  14.800  0.8149  0.6616 -0.4196
 2556TIP3    H229160   3.603   6.667  14.879 -1.4013  0.7619 -0.0033
 2557TIP3   OH229161   2.781   6.031  15.385  0.7824 -0.4879 -0.1526
 2557TIP3    H129162   2.788   5.965  15.454 -1.8742  1.3687  2.0792
 2557TIP3    H229163   2.703   6.005  15.336 -1.1990  1.6446  1.6821
 2558TIP3   OH229164   6.146   2.503  13.357 -0.3412 -0.5661  0.2277
 2558TIP3    H129165   6.122   2.583  13.404 -1.3734 -0.9324  0.3458
 2558TIP3    H229166   6.225   2.526  13.308 -0.7359  0.5710  0.1210
 2559TIP3   OH229167   5.521   0.254   3.753  0.0653 -0.6236 -0.0460
 2559TIP3    H129168   5.507   0.203   3.673  0.1640 -0.6468 -0.0490
 2559TIP3    H229169   5.477   0.337   3.737  0.9960 -0.2109 -0.5527
 2560TIP3   OH229170   5.087   1.533  12.391 -0.1300 -0.2553  0.3711
 2560TIP3    H129171   5.154   1.601  12.400 -0.2878 -0.0992  0.3761
 2560TIP3    H229172   5.077   1.498  12.480  0.9413 -1.2405  0.1288
 2561TIP3   OH229173   0.146   0.764  14.255  0.1089  0.1489 -0.1092
 2561TIP3    H129174   0.172   0.717  14.176 -0.6916 -0.1994 -0.1754
 2561TIP3    H229175   0.078   0.709  14.294  0.4286  0.3615  0.7730
 2562TIP3   OH229176   4.846   0.114  13.194 -0.3491  0.3033 -0.1473
 2562TIP3    H129177   4.910   0.108  13.264 -1.0018  1.4648  0.5871
 2562TIP3    H229178   4.856   0.203  13.159 -0.6320  0.0373 -0.9345
 2563TIP3   OH229179   4.378   1.254   3.700 -0.0970 -0.1519 -0.1443
 2563TIP3    H129180   4.449   1.315   3.681  0.4036 -0.3954  0.8905
 2563TIP3    H229181   4.303   1.289   3.653  0.4322  0.7120 -0.3639
 2564TIP3   OH229182   3.367   0.111   4.680 -0.5103  0.1119  0.1096
 2564TIP3    H129183   3.424   0.038   4.706 -0.4244 -0.5039 -1.7037
 2564TIP3    H229184   3.426   0.173   4.638 -0.8663  0.4181  0.0645
 2565TIP3   OH229185   1.077   5.196  14.066 -0.1704 -0.2257  0.0606
 2565TIP3    H129186   1.082   5.265  13.999 -0.3660 -0.5136 -0.2576
 2565TIP3    H229187   1.012   5.228  14.129 -0.2703 -0.1248 -0.0922
 2566TIP3   OH229188   2.870   3.950   5.262  0.3326 -0.2833 -0.2172
 2566TIP3    H129189   2.839   4.039   5.277 -0.3077 -0.5541  0.0904
 2566TIP3    H229190   2.965   3.958   5.255  0.4123  0.2255  1.2706
 2567TIP3   OH229191   6.449   2.965  16.329  0.7719  0.5223  0.1110
 2567TIP3    H129192   6.537   2.997  16.347  1.4158 -1.2859  0.3631
 2567TIP3    H229193   6.393   3.014  16.389  1.7408  0.8442  0.7760
 2568TIP3   OH229194   4.416   4.935   3.260  0.2814  0.7824 -0.2092
 2568TIP3    H129195   4.454   5.014   3.296  0.2319  0.6557  0.1232
 2568TIP3    H229196   4.377   4.890   3.335 -2.0257  1.7291 -0.7565
 2569TIP3   OH229197   2.842   1.787   4.592  0.0487  0.1027 -0.9647
 2569TIP3    H129198   2.774   1.789   4.524 -2.0795 -2.4008  0.8717
 2569TIP3    H229199   2.828   1.866   4.643 -0.6593  0.2638 -1.3984
 2570TIP3   OH229200   5.666   5.260  12.843 -0.1118  0.0814  0.0504
 2570TIP3    H129201   5.611   5.189  12.878 -0.2055 -0.1896 -0.6364
 2570TIP3    H229202   5.756   5.233  12.863 -0.2089  0.4934  1.1187
 2571TIP3   OH229203   6.574   2.623  17.283  0.1636  0.0436  0.4125
 2571TIP3    H129204   6.669   2.609  17.288 -0.0688 -1.7235  0.2071
 2571TIP3    H229205   6.549   2.642  17.374  0.6349  0.0438  0.5494
 2572TIP3   OH229206   6.726   1.931   2.239 -0.4779 -0.0524 -0.3054
 2572TIP3    H129207   6.636   1.899   2.235  0.1869 -2.2818  0.9972
 2572TIP3    H229208   6.778   1.861   2.201  0.7406  1.2457 -1.1405
 2573TIP3   OH229209   3.137   5.125   0.732 -0.4093  0.9383  0.0283
 2573TIP3    H129210   3.214   5.095   0.780 -0.5457  1.0572  0.3265
 2573TIP3    H229211   3.170   5.190   0.670 -0.5726  2.8573  1.8357
 2574TIP3   OH229212   0.649   4.204  12.354 -0.2467 -0.2747 -0.3561
 2574TIP3    H129213   0.734   4.189  12.395  0.7996  0.1106 -2.2772
 2574TIP3    H229214   0.626   4.293  12.378 -0.8798 -0.8749  1.4200
 2575TIP3   OH229215   2.238   3.340  15.532  0.1822 -0.2875  0.5121
 2575TIP3    H129216   2.210   3.373  15.617  1.2294  2.0494  0.0348
 2575TIP3    H229217   2.212   3.409  15.471 -0.2600 -1.7682 -1.0554
 2576TIP3   OH229218   1.680   3.945   1.728  0.3976  0.0884 -0.3755
 2576TIP3    H129219   1.702   4.017   1.786  0.1396 -0.3039  0.2195
 2576TIP3    H229220   1.635   3.987   1.654 -0.5579  0.4653  0.3853
 2577TIP3   OH229221   2.562   5.251   1.196 -0.0170 -0.3733  0.0124
 2577TIP3    H129222   2.552   5.227   1.288 -1.2732  0.9476  0.2532
 2577TIP3    H229223   2.527   5.340   1.190  0.8048 -0.1196 -1.5915
 2578TIP3   OH229224   2.695   5.043   5.256  0.5308  0.4257 -0.8175
 2578TIP3    H129225   2.726   4.956   5.233 -0.4974 -0.0516 -0.4215
 2578TIP3    H229226   2.604   5.031   5.280  0.3566  1.6263 -0.8227
 2579TIP3   OH229227   0.749   5.583   3.591  0.5930 -0.5376  0.2912
 2579TIP3    H129228   0.807   5.550   3.660  2.7979  2.1312 -0.1080
 2579TIP3    H229229   0.794   5.560   3.509 -1.1273 -2.1505 -0.2634
 2580TIP3   OH229230   3.055   0.495  12.481 -0.3798 -0.1132 -0.0023
 2580TIP3    H129231   3.060   0.406  12.447 -2.3724  0.4063 -1.8659
 2580TIP3    H229232   2.973   0.497  12.530  0.2860  0.3786  1.1276
 2581TIP3   OH229233   1.130   6.507  14.165 -0.1458  0.0411  0.3208
 2581TIP3    H129234   1.145   6.592  14.207  1.1300  0.1272 -0.2544
 2581TIP3    H229235   1.203   6.498  14.104 -1.0102 -0.8597 -0.6230
 2582TIP3   OH229236   2.999   3.909  16.491  0.8419 -0.0444  0.1000
 2582TIP3    H129237   2.956   3.986  16.453  2.1504  0.8608  0.3941
 2582TIP3    H229238   2.977   3.914  16.584 -0.2952 -0.8818 -0.0946
 2583TIP3   OH229239   2.679   0.771   2.752 -0.3040 -0.2958 -0.1728
 2583TIP3    H129240   2.765   0.812   2.739 -0.3232 -0.4175 -0.7378
 2583TIP3    H229241   2.627   0.838   2.796  0.3510 -0.5550  1.0221
 2584TIP3   OH229242   1.996   3.699  16.941 -0.3731  0.1682  0.1395
 2584TIP3    H129243   1.976   3.637  16.872  0.1751  0.2210 -0.0684
 2584TIP3    H229244   1.913   3.743  16.959 -0.4767  0.2712 -0.5977
 2585TIP3   OH229245   5.803   4.528   0.582  0.1477 -0.1414  0.2861
 2585TIP3    H129246   5.790   4.576   0.663  0.9719 -1.9808  1.5907
 2585TIP3    H229247   5.715   4.500   0.555  0.0302 -1.2746  1.7285
 2586TIP3   OH229248   0.232   0.808  15.955  0.5059 -0.3841 -0.3912
 2586TIP3    H129249   0.142   0.829  15.978  0.3920 -0.2653 -0.9259
 2586TIP3    H229250   0.285   0.861  16.015  0.2220  1.0920 -1.3853
 2587TIP3   OH229251   5.238   2.173  16.337  0.3871 -0.4369 -0.0310
 2587TIP3    H129252   5.313   2.136  16.291  0.8323 -0.5950  0.8045
 2587TIP3    H229253   5.181   2.208  16.268  0.3670 -1.9114 -0.7842
 2588TIP3   OH229254   1.268   1.606   5.361 -0.5851  0.0538  0.2318
 2588TIP3    H129255   1.270   1.511   5.358 -0.8599  0.0622 -1.8336
 2588TIP3    H229256   1.356   1.632   5.388 -0.2286 -0.7835 -0.1079
 2589TIP3   OH229257   6.156   0.442  14.685 -0.2056  0.1417  0.6733
 2589TIP3    H129258   6.251   0.450  14.681 -0.1791 -0.5763 -0.5772
 2589TIP3    H229259   6.138   0.412  14.775  0.7535  0.1385  0.8749
 2590TIP3   OH229260   5.372   2.419  11.497 -0.3965 -0.0742 -0.3894
 2590TIP3    H129261   5.294   2.429  11.551  0.6933  1.1015  1.0457
 2590TIP3    H229262   5.420   2.347  11.536 -0.1035  0.0963 -0.4317
 2591TIP3   OH229263   6.458   0.200  15.566 -0.2887  0.3224 -0.1314
 2591TIP3    H129264   6.439   0.286  15.604  0.0005  0.4669 -0.3119
 2591TIP3    H229265   6.551   0.185  15.586 -0.2117  0.2668 -0.5231
 2592TIP3   OH229266   5.375   2.139  12.074  0.5334 -0.2822  0.0283
 2592TIP3    H129267   5.447   2.077  12.083  0.5527 -0.0726  1.5313
 2592TIP3    H229268   5.357   2.169  12.163  0.3192  1.6628 -0.6235
 2593TIP3   OH229269   5.669   5.245  15.570 -0.4674 -0.1629  0.0553
 2593TIP3    H129270   5.624   5.161  15.566 -1.1941  0.2488 -1.4414
 2593TIP3    H229271   5.605   5.307  15.533  0.8151  0.6806 -0.8170
 2594TIP3   OH229272   0.827   1.050  15.495 -0.5196  0.5826  0.1436
 2594TIP3    H129273   0.848   0.994  15.570 -1.6500  0.2804  0.2529
 2594TIP3    H229274   0.849   0.996  15.419 -1.4452  0.0313  0.2509
 2595TIP3   OH229275   4.774   2.848  13.263 -0.1062  0.2507  0.4149
 2595TIP3    H129276   4.752   2.760  13.292  0.6815 -0.8921 -2.2006
 2595TIP3    H229277   4.868   2.845  13.244  0.0647  1.8505  0.8145
 2596TIP3   OH229278   3.309   4.567  12.788 -0.1321 -0.0581 -0.2781
 2596TIP3    H129279   3.327   4.579  12.881 -1.2755 -0.0502 -0.0495
 2596TIP3    H229280   3.283   4.476  12.780 -0.1000 -0.0409 -0.5866
 2597TIP3   OH229281   2.730   0.281   0.008 -0.2628  0.6923 -0.9526
 2597TIP3    H129282   2.786   0.347   0.049  0.6275 -0.2144 -0.6737
 2597TIP3    H229283   2.645   0.291   0.052  0.9932 -1.1946  2.3190
 2598TIP3   OH229284   5.017   3.560  15.245 -0.1437 -0.2743  0.4548
 2598TIP3    H129285   4.928   3.586  15.268 -1.4324 -1.7050 -2.4200
 2598TIP3    H229286   5.039   3.613  15.168  1.7018  0.3633  1.3635
 2599TIP3   OH229287   4.111   1.014  17.226 -0.4304 -0.2153 -0.2448
 2599TIP3    H129288   4.151   1.096  17.258  0.3369 -1.2649  1.6362
 2599TIP3    H229289   4.039   1.043  17.170 -0.6830  1.7798  0.9946
 2600TIP3   OH229290   0.154   6.178  13.389 -0.2198 -0.4301  0.0186
 2600TIP3    H129291   0.242   6.164  13.356  0.5988 -1.1430  2.2870
 2600TIP3    H229292   0.147   6.272  13.403 -0.3996 -0.1856 -1.5846
 2601TIP3   OH229293   3.572   3.375  16.507  0.0755  0.3766  0.3148
 2601TIP3    H129294   3.659   3.384  16.545  0.2561  0.7682 -0.1883
 2601TIP3    H229295   3.531   3.306  16.559  0.7568  0.0390  0.4186
 2602TIP3   OH229296   2.447   0.792   4.074  0.0045  0.6677 -0.1806
 2602TIP3    H129297   2.522   0.845   4.101 -0.9318  2.1883 -0.4197
 2602TIP3    H229298   2.425   0.740   4.152  1.6911 -0.3064 -0.3264
 2603TIP3   OH229299   6.002   4.571  16.744 -0.0571 -0.3270 -0.9584
 2603TIP3    H129300   6.036   4.574  16.833 -2.7218  1.8350  0.1166
 2603TIP3    H229301   6.053   4.636  16.696  0.5464 -0.5991 -0.6943
 2604TIP3   OH229302   4.893   1.195  17.250  0.3954  0.8228  0.0610
 2604TIP3    H129303   4.885   1.289  17.231 -2.6270  0.6437 -0.1427
 2604TIP3    H229304   4.876   1.188  17.344 -1.5384  0.3932 -0.2655
 2605TIP3   OH229305   4.930   6.371   2.533  0.5846 -0.3488 -0.2538
 2605TIP3    H129306   4.875   6.296   2.510 -0.2128  0.1502 -0.0146
 2605TIP3    H229307   4.893   6.404   2.615 -1.6119  2.6473 -2.1863
 2606TIP3   OH229308   0.203   0.896   4.424 -0.0390 -0.0962  0.2436
 2606TIP3    H129309   0.274   0.874   4.363  0.8277  0.7926  0.9051
 2606TIP3    H229310   0.237   0.872   4.510 -0.5242  0.3777  0.5714
 2607TIP3   OH229311   5.248   3.753  14.778 -0.0559 -0.2948  0.6522
 2607TIP3    H129312   5.281   3.843  14.771 -1.1745  0.0764 -0.0348
 2607TIP3    H229313   5.302   3.703  14.717 -0.0594  0.1019  0.3169
 2608TIP3   OH229314   5.071   0.064  13.604 -0.2714 -0.4809 -0.2337
 2608TIP3    H129315   5.064   0.013  13.684 -1.4037 -0.8393 -0.5401
 2608TIP3    H229316   5.113   0.146  13.631 -0.5584 -0.6357  0.7125
 2609TIP3   OH229317   2.074   1.167   9.998 -0.0103  0.0267  1.0169
 2609TIP3    H129318   2.111   1.246  10.037  2.3180 -1.5238  2.2335
 2609TIP3    H229319   2.111   1.095  10.051 -0.9675 -1.9317 -0.8178
 2610TIP3   OH229320   5.661   2.300   2.930 -0.2183 -0.3613  0.0888
 2610TIP3    H129321   5.602   2.251   2.986 -1.6874 -0.2074 -1.2458
 2610TIP3    H229322   5.646   2.264   2.842  2.4776 -1.0559 -0.1592
 2611TIP3   OH229323   0.031   2.866  10.670  0.0944  0.1914 -0.2583
 2611TIP3    H129324   0.091   2.921  10.619  1.5797 -1.3022 -0.2186
 2611TIP3    H229325  -0.054   2.877  10.628  0.6081  1.5453 -1.0006
 2612TIP3   OH229326   2.933   2.078  13.979 -0.0323  0.0925  0.5054
 2612TIP3    H129327   2.985   2.156  13.957  2.2535 -1.7731 -1.3035
 2612TIP3    H229328   2.976   2.042  14.056  0.5108 -0.6680 -0.1317
 2613TIP3   OH229329   0.646   0.198   4.353  0.0473 -0.3933 -0.6100
 2613TIP3    H129330   0.580   0.263   4.379  1.4439  0.2811  1.6221
 2613TIP3    H229331   0.597   0.131   4.305 -1.7894  1.3156 -1.2669
 2614TIP3   OH229332   0.816   6.775  15.650  0.6491 -0.3242  0.6751
 2614TIP3    H129333   0.731   6.814  15.667  0.6977  0.1897 -0.2159
 2614TIP3    H229334   0.855   6.764  15.737  0.5970  1.5255  0.9738
 2615TIP3   OH229335   3.516   1.822  11.869 -0.8124 -0.3085 -0.1406
 2615TIP3    H129336   3.428   1.803  11.902  0.2059 -0.6946  2.6060
 2615TIP3    H229337   3.572   1.757  11.911  1.0258  0.9173 -0.5612
 2616TIP3   OH229338   1.069   5.151  12.577 -0.2155 -0.1615  0.3697
 2616TIP3    H129339   0.998   5.190  12.526 -0.1511 -0.2938  0.1801
 2616TIP3    H229340   1.025   5.093  12.640 -0.2027 -1.3021 -0.6508
 2617TIP3   OH229341   1.818   4.355   0.177 -0.3922  0.0890 -0.0758
 2617TIP3    H129342   1.835   4.279   0.232 -0.6866  1.0627  1.4436
 2617TIP3    H229343   1.726   4.377   0.195  0.0715  1.6059  0.6318
 2618TIP3   OH229344   4.540   3.558  14.440 -0.1388  0.1500 -0.0718
 2618TIP3    H129345   4.579   3.621  14.501 -0.3496  0.2196 -0.0067
 2618TIP3    H229346   4.603   3.486  14.436  0.1036  0.3626 -0.1448
 2619TIP3   OH229347   3.490   1.926  13.585 -0.8125  0.5979 -0.0531
 2619TIP3    H129348   3.436   1.856  13.622 -0.7754  1.1041  0.9791
 2619TIP3    H229349   3.501   1.901  13.493  0.5451 -1.5946  0.6366
 2620TIP3   OH229350   5.128   2.563   3.567  0.6500 -0.0079 -0.1997
 2620TIP3    H129351   5.100   2.577   3.658  0.9362 -0.9576  0.0423
 2620TIP3    H229352   5.062   2.609   3.515  0.2601  0.2112  0.4696
 2621TIP3   OH229353   5.893   1.534  11.725  0.2125 -0.0208  0.1293
 2621TIP3    H129354   5.892   1.615  11.776 -1.1095  0.4825 -0.6402
 2621TIP3    H229355   5.801   1.518  11.704  0.3794 -2.0143  0.6875
 2622TIP3   OH229356   3.484   6.649  14.357 -0.1033  0.0219 -0.1292
 2622TIP3    H129357   3.419   6.583  14.334  0.4885 -0.2595 -1.0699
 2622TIP3    H229358   3.568   6.608  14.334  0.4278  0.2928  1.2475
 2623TIP3   OH229359   5.443   2.052  12.768 -0.5979 -0.1234  0.8850
 2623TIP3    H129360   5.522   2.103  12.785 -0.0254 -0.3398 -0.8517
 2623TIP3    H229361   5.409   2.029  12.854  2.0282 -1.2679  1.7047
 2624TIP3   OH229362   2.504   6.724  14.416 -0.2073  0.2332  0.0286
 2624TIP3    H129363   2.588   6.678  14.416 -1.2395 -1.7748  0.0945
 2624TIP3    H229364   2.453   6.679  14.484 -1.9075  0.2529 -1.1840
 2625TIP3   OH229365   5.434   1.438  13.640  0.2393  0.1442  0.0397
 2625TIP3    H129366   5.405   1.458  13.551  0.3577  0.7429  0.1331
 2625TIP3    H229367   5.406   1.513  13.692 -0.4848 -0.5399  0.6525
 2626TIP3   OH229368   5.335   6.394  14.902  0.0642 -0.4099 -0.2930
 2626TIP3    H129369   5.384   6.396  14.984 -2.5206 -0.7100  1.3343
 2626TIP3    H229370   5.253   6.440  14.920  0.6706  2.5014 -3.6897
 2627TIP3   OH229371   4.931   4.316   3.001  0.0774  0.1998 -0.4187
 2627TIP3    H129372   4.839   4.313   2.973 -0.4810 -0.6525  1.3135
 2627TIP3    H229373   4.947   4.408   3.021 -1.6212 -0.0411  2.7198
 2628TIP3   OH229374   1.597   3.909   1.015  0.0258 -0.0960 -0.2002
 2628TIP3    H129375   1.528   3.884   1.077 -0.0334 -0.9534 -0.6024
 2628TIP3    H229376   1.554   3.906   0.929 -0.4339  2.8999 -0.1995
 2629TIP3   OH229377   2.015   3.449  15.772 -0.2535 -0.0254 -0.6105
 2629TIP3    H129378   2.095   3.409  15.806  1.3431  1.2313 -2.6296
 2629TIP3    H229379   1.973   3.380  15.723  1.9600  0.3173 -3.2240
 2630TIP3   OH229380   1.422   5.845   1.249 -0.2835 -0.2868  0.3168
 2630TIP3    H129381   1.477   5.817   1.323 -2.1643 -0.6763  1.6464
 2630TIP3    H229382   1.386   5.764   1.214  1.3613 -0.2063 -1.7636
 2631TIP3   OH229383   3.070   3.891  17.279 -0.1561  0.1145 -0.5749
 2631TIP3    H129384   2.977   3.910  17.287 -0.4425 -1.4072 -0.0712
 2631TIP3    H229385   3.105   3.965  17.229 -1.9510 -0.1642 -2.3547
 2632TIP3   OH229386   5.654   0.554  12.689  0.5495 -0.7774 -0.5400
 2632TIP3    H129387   5.666   0.630  12.746  0.8993 -0.8345 -0.5363
 2632TIP3    H229388   5.592   0.499  12.736  1.0623 -0.9628 -0.0732
 2633TIP3   OH229389   4.153   5.857  10.945  0.5171 -0.1813 -0.7861
 2633TIP3    H129390   4.066   5.825  10.967 -0.8735  1.7447 -2.9202
 2633TIP3    H229391   4.151   5.950  10.967  1.6801  0.1040 -1.7411
 2634TIP3   OH229392   0.672   4.086  17.222  0.7855 -0.1707 -0.0091
 2634TIP3    H129393   0.761   4.100  17.190 -0.4970  2.7112 -2.9487
 2634TIP3    H229394   0.625   4.048  17.148 -1.1219  1.5649  0.2024
 2635TIP3   OH229395   2.792   5.750  16.443 -0.3824 -0.6132 -0.5852
 2635TIP3    H129396   2.820   5.659  16.433 -0.1053 -0.3739 -2.2910
 2635TIP3    H229397   2.868   5.794  16.482  0.6687 -0.5381 -2.5909
 2636TIP3   OH229398   5.862   4.920  13.640 -0.3642 -0.2649 -0.0748
 2636TIP3    H129399   5.801   4.974  13.691 -0.2083 -0.0605 -0.1063
 2636TIP3    H229400   5.947   4.962  13.651 -0.3782 -0.0561 -0.7428
 2637TIP3   OH229401   1.534   5.000   1.980 -0.2044  0.2135  0.0748
 2637TIP3    H129402   1.530   4.908   1.953  1.9137  0.4281 -1.2536
 2637TIP3    H229403   1.443   5.026   1.991 -0.9107 -1.6762 -0.8395
 2638TIP3   OH229404   6.468   2.986   0.371  0.1410  0.3117  0.1582
 2638TIP3    H129405   6.382   3.024   0.391 -0.1622 -0.0925 -0.3625
 2638TIP3    H229406   6.516   2.991   0.453  0.2936  2.2872  0.0040
 2639TIP3   OH229407   5.949   6.346  16.554 -0.3411 -0.6053 -0.1888
 2639TIP3    H129408   5.960   6.323  16.462 -1.4007 -3.9779  0.3940
 2639TIP3    H229409   6.038   6.364  16.586  0.1836 -0.7374 -1.5462
 2640TIP3   OH229410   3.147   1.933  16.789 -0.0375 -0.7697  0.2852
 2640TIP3    H129411   3.086   1.885  16.734 -1.4268 -0.7754  1.7469
 2640TIP3    H229412   3.100   2.014  16.812  0.6799 -0.5533  1.0470
 2641TIP3   OH229413   4.566   3.647  15.737 -0.3611 -0.3521  0.2804
 2641TIP3    H129414   4.535   3.602  15.658  0.2259 -0.2806 -0.0021
 2641TIP3    H229415   4.635   3.706  15.704 -1.6385  1.3409  0.5059
 2642TIP3   OH229416   6.252   3.582  17.124  0.9938 -0.5317  0.6516
 2642TIP3    H129417   6.315   3.625  17.181  0.1328  1.7883 -0.0332
 2642TIP3    H229418   6.222   3.651  17.064  0.5993 -2.4486 -1.4959
 2643TIP3   OH229419   6.448   1.662   5.668  0.3237 -1.0369  0.0420
 2643TIP3    H129420   6.476   1.720   5.596  1.2162 -0.7737  0.5870
 2643TIP3    H229421   6.352   1.664   5.664  0.3395  0.3504 -0.0514
 2644TIP3   OH229422   4.539   3.463  15.198  0.6059  0.2519 -0.1026
 2644TIP3    H129423   4.496   3.378  15.194 -1.6714  1.3230 -0.1333
 2644TIP3    H229424   4.632   3.444  15.184  0.0246 -2.0858 -1.2722
 2645TIP3   OH229425   6.586   2.724   6.014 -0.0172  0.0663  0.4280
 2645TIP3    H129426   6.493   2.704   5.998  0.1682 -0.2744 -0.2662
 2645TIP3    H229427   6.632   2.685   5.939  0.5744  1.2594  0.1518
 2646TIP3   OH229428   5.475   1.468   2.129 -0.0260  0.5212 -0.4000
 2646TIP3    H129429   5.542   1.532   2.155  1.9154 -0.8598 -1.6767
 2646TIP3    H229430   5.463   1.483   2.035 -0.5383 -0.1157 -0.4415
 2647TIP3   OH229431   6.015   1.089   5.549 -0.3554  0.1292  0.3930
 2647TIP3    H129432   5.954   1.022   5.518 -1.9041  1.7583 -0.2330
 2647TIP3    H229433   6.050   1.129   5.470  2.8528 -1.7811  0.6686
 2648TIP3   OH229434   4.670   4.260  12.223  0.0798  0.0567 -0.4663
 2648TIP3    H129435   4.643   4.287  12.135  2.0649 -1.2746 -1.5571
 2648TIP3    H229436   4.648   4.167  12.227  1.1273 -0.1819 -0.0434
 2649TIP3   OH229437   3.347   5.992  13.143 -0.1485 -0.5855 -0.2244
 2649TIP3    H129438   3.285   6.029  13.206 -0.7076  1.1068 -1.6924
 2649TIP3    H229439   3.294   5.973  13.066  0.9356 -0.3894 -1.0333
 2650TIP3   OH229440   5.176   6.449   1.612 -0.4259  0.4016  0.1368
 2650TIP3    H129441   5.147   6.529   1.656 -1.7800 -0.1317  0.2743
 2650TIP3    H229442   5.181   6.384   1.682 -1.6735 -0.2152 -0.3073
 2651TIP3   OH229443   3.415   3.497  14.166 -0.3147 -0.3145 -0.2359
 2651TIP3    H129444   3.396   3.409  14.198 -0.5546 -0.3529 -0.4805
 2651TIP3    H229445   3.328   3.538  14.158 -0.1246  0.9670  2.7617
 2652TIP3   OH229446   1.854   4.344   5.353  0.3097  0.2768  0.0274
 2652TIP3    H129447   1.934   4.317   5.398 -0.7119 -0.2415  1.6071
 2652TIP3    H229448   1.847   4.284   5.278  2.0355  1.1656 -0.9204
 2653TIP3   OH229449   0.028   2.187  12.997  0.0068  0.4610 -0.1111
 2653TIP3    H129450   0.046   2.109  13.050 -0.7958  0.8177  0.7138
 2653TIP3    H229451   0.039   2.157  12.906  0.6212 -0.3675  0.2169
 2654TIP3   OH229452   1.186   4.412  16.818  0.7432  0.2094 -0.5218
 2654TIP3    H129453   1.262   4.389  16.873  0.9371 -0.6296 -1.1379
 2654TIP3    H229454   1.209   4.381  16.731 -0.4546 -0.3473 -0.6553
 2655TIP3   OH229455   6.273   2.090   6.186  0.6626  0.0143 -0.0672
 2655TIP3    H129456   6.314   2.171   6.217  1.6020 -0.3869 -0.2293
 2655TIP3    H229457   6.185   2.116   6.160  1.2426  1.1741 -0.9564
 2656TIP3   OH229458   4.797   6.358  13.265 -0.6287 -0.1820  1.0732
 2656TIP3    H129459   4.791   6.319  13.352 -0.3128 -0.1091  1.1288
 2656TIP3    H229460   4.799   6.453  13.281 -1.5800 -0.1300  0.9274
 2657TIP3   OH229461   0.603   4.393  12.764 -0.1040  0.3243 -0.1637
 2657TIP3    H129462   0.648   4.466  12.721 -0.7911  0.1945 -1.1319
 2657TIP3    H229463   0.591   4.423  12.854 -1.1498  1.7883 -0.7471
 2658TIP3   OH229464   2.735   2.303   1.577  0.4082  0.0706  0.5391
 2658TIP3    H129465   2.689   2.361   1.638  1.0220  1.2305 -0.0591
 2658TIP3    H229466   2.827   2.329   1.586  0.3793  1.2207 -1.8141
 2659TIP3   OH229467   2.328   6.810  13.924 -0.2622 -0.4676 -0.0185
 2659TIP3    H129468   2.305   6.717  13.936  2.7624 -1.4317 -0.7963
 2659TIP3    H229469   2.349   6.841  14.012 -2.6261 -0.0507  0.4507
 2660TIP3   OH229470   3.791   2.111   6.204 -0.2768 -0.5448 -0.6134
 2660TIP3    H129471   3.823   2.194   6.168 -0.1681 -0.2061  0.2309
 2660TIP3    H229472   3.734   2.075   6.136  1.2433 -0.7687 -1.8342
 2661TIP3   OH229473   1.535   4.185   5.134  0.8031 -0.1015  0.2098
 2661TIP3    H129474   1.502   4.201   5.222 -0.7974 -0.3746 -0.3032
 2661TIP3    H229475   1.566   4.271   5.104  0.2611  0.2396  0.6124
 2662TIP3   OH229476   0.849   1.105  13.734 -0.4419 -0.6808 -0.4216
 2662TIP3    H129477   0.856   1.010  13.721  0.4609 -0.5636 -0.8789
 2662TIP3    H229478   0.790   1.134  13.664 -0.1912 -0.8223 -0.6952
 2663TIP3   OH229479   0.328   2.517  12.766 -0.3432  0.3038  0.0408
 2663TIP3    H129480   0.300   2.584  12.828 -2.1980 -0.1687 -0.2004
 2663TIP3    H229481   0.381   2.563  12.702  1.0874  0.9143  1.6103
 2664TIP3   OH229482   2.025   5.549   2.793 -0.3663  0.2365  0.0881
 2664TIP3    H129483   2.092   5.483   2.814  0.0185  0.5423 -0.1665
 2664TIP3    H229484   1.950   5.525   2.848  0.2638  0.4235  1.0477
 2665TIP3   OH229485   2.533   2.814   5.035 -0.6223  0.1018  0.1245
 2665TIP3    H129486   2.516   2.883   4.971 -1.2131 -0.6925 -0.6172
 2665TIP3    H229487   2.517   2.733   4.986  2.0681 -0.6506  0.3315
 2666TIP3   OH229488   1.454   1.582  11.759 -0.2544  0.2028 -0.6221
 2666TIP3    H129489   1.472   1.498  11.717 -1.3241 -0.2493 -0.1920
 2666TIP3    H229490   1.416   1.636  11.690  1.3014  0.6820 -1.1534
 2667TIP3   OH229491   5.431   0.352  13.997 -0.6346  0.1628 -0.4521
 2667TIP3    H129492   5.414   0.417  14.064 -0.1830 -0.4712  0.2932
 2667TIP3    H229493   5.396   0.270  14.033  0.1754 -0.3104 -0.7011
 2668TIP3   OH229494   5.874   3.490  14.799  0.1246  0.3165  0.0474
 2668TIP3    H129495   5.888   3.407  14.754 -0.4794  1.1153 -1.7257
 2668TIP3    H229496   5.853   3.465  14.889  1.7714 -1.3358  0.0278
 2669TIP3   OH229497   6.787   5.907  14.134 -0.2040  0.1493 -0.1528
 2669TIP3    H129498   6.700   5.894  14.171 -0.4801 -1.3616 -1.2376
 2669TIP3    H229499   6.813   5.995  14.163 -1.9413  0.5026  0.4358
 2670TIP3   OH229500   6.656   6.786   5.590 -0.0192  0.5064 -0.4070
 2670TIP3    H129501   6.681   6.694   5.584  0.1653  0.5739 -0.7019
 2670TIP3    H229502   6.620   6.807   5.503  0.0540  0.7437 -0.3807
 2671TIP3   OH229503   4.864   4.622   4.578  0.3280 -0.1790  0.2596
 2671TIP3    H129504   4.829   4.646   4.664 -1.4647  1.0899 -0.7726
 2671TIP3    H229505   4.926   4.691   4.557 -0.9573  0.8017 -0.4361
 2672TIP3   OH229506   0.526   3.401   5.904  0.1836  0.1951 -0.3259
 2672TIP3    H129507   0.432   3.387   5.891  0.7007 -1.3050 -3.3082
 2672TIP3    H229508   0.550   3.341   5.974 -1.0732  0.7535  0.6284
 2673TIP3   OH229509   0.579   0.002  14.310  0.1842  0.6973  0.7985
 2673TIP3    H129510   0.606  -0.084  14.278 -0.6804  0.8751 -0.4776
 2673TIP3    H229511   0.568   0.055  14.231  0.7120  1.9945  1.5582
 2674TIP3   OH229512   4.499   5.328   1.393 -0.5381  0.1142 -0.6227
 2674TIP3    H129513   4.549   5.277   1.456 -0.3333  0.1297 -0.7722
 2674TIP3    H229514   4.442   5.263   1.351 -0.2720  0.0063 -0.8187
 2675TIP3   OH229515   1.365   0.638  16.664 -0.2171 -0.4539  0.3007
 2675TIP3    H129516   1.317   0.560  16.636  1.5137 -1.2415 -0.6223
 2675TIP3    H229517   1.437   0.604  16.717  0.0825  0.6007  0.6043
 2676TIP3   OH229518   0.590   3.668  12.781  0.3615 -0.5444  0.0201
 2676TIP3    H129519   0.517   3.631  12.830  0.0016  1.9338  1.5661
 2676TIP3    H229520   0.560   3.668  12.690  0.0769 -3.0836  0.0460
 2677TIP3   OH229521   6.007   5.491   3.039 -0.3143 -0.2377 -0.4645
 2677TIP3    H129522   5.995   5.451   3.126  0.4409 -1.0835 -0.7355
 2677TIP3    H229523   5.973   5.580   3.049 -0.3474 -0.3599  0.6672
 2678TIP3   OH229524   4.043   6.136  12.580 -0.0810 -0.2703  0.1089
 2678TIP3    H129525   3.992   6.070  12.534 -0.8222  1.1784 -1.2404
 2678TIP3    H229526   4.105   6.169  12.515 -0.2257  0.8728  0.5284
 2679TIP3   OH229527   2.980   2.614   2.981 -0.2535  0.7899  0.0112
 2679TIP3    H129528   2.985   2.519   2.991  3.7851  0.8429 -0.0113
 2679TIP3    H229529   2.947   2.628   2.892 -2.0225 -0.4929  0.4238
 2680TIP3   OH229530   6.210   3.260  14.225 -0.4163  0.2340 -0.0210
 2680TIP3    H129531   6.235   3.194  14.289 -0.2075  0.2991 -0.0371
 2680TIP3    H229532   6.114   3.252  14.220 -0.4126  0.0742  0.1294
 2681TIP3   OH229533   5.126   3.683  15.492 -0.1684 -0.2376 -0.0325
 2681TIP3    H129534   5.209   3.731  15.499 -0.8843  1.1698 -0.7689
 2681TIP3    H229535   5.068   3.743  15.446 -2.2509 -0.3272  2.2610
 2682TIP3   OH229536   2.640   6.534  16.400  0.8306  0.1026  0.3859
 2682TIP3    H129537   2.624   6.440  16.410  0.0273  0.2385  0.4753
 2682TIP3    H229538   2.696   6.557  16.474  0.6883 -0.2311  0.6002
 2683TIP3   OH229539   0.582   0.452  12.866  0.7327  0.6943 -0.0374
 2683TIP3    H129540   0.564   0.538  12.829  0.4185  0.1015 -1.3069
 2683TIP3    H229541   0.667   0.427  12.831  0.0342 -0.2562 -1.1572
 2684TIP3   OH229542   5.058   6.615  17.079 -0.5027  0.1618 -0.8387
 2684TIP3    H129543   5.048   6.570  16.995  0.8931 -0.5678 -0.6374
 2684TIP3    H229544   5.137   6.577  17.117 -0.9986  0.6414  0.7130
 2685TIP3   OH229545   2.029   0.478  16.192  0.7437  0.0638  0.2115
 2685TIP3    H129546   1.990   0.499  16.107 -0.0397  0.7612  0.7227
 2685TIP3    H229547   1.972   0.410  16.228  1.0250 -0.1675  0.2214
 2686TIP3   OH229548   1.059   2.250   5.716 -0.5491  0.0352  0.1198
 2686TIP3    H129549   0.967   2.262   5.739 -0.3014  1.4751  0.4408
 2686TIP3    H229550   1.060   2.249   5.620 -0.8933 -0.0238  0.1143
 2687TIP3   OH229551   1.340   0.362   4.297  0.0012  0.7718  0.6265
 2687TIP3    H129552   1.352   0.377   4.203  0.7365  0.2436  0.6363
 2687TIP3    H229553   1.273   0.426   4.322 -0.3269  0.8013 -0.2885
 2688TIP3   OH229554   4.340   2.025   5.052 -0.3251  0.8905 -0.9394
 2688TIP3    H129555   4.342   1.932   5.028  2.0962  1.3599 -2.8747
 2688TIP3    H229556   4.247   2.048   5.045 -0.8719 -1.1443 -1.2941
 2689TIP3   OH229557   6.271   2.881  11.496  0.2410 -0.1022 -0.7569
 2689TIP3    H129558   6.365   2.868  11.503 -0.0628 -1.8476  0.9722
 2689TIP3    H229559   6.240   2.890  11.586 -1.2726  0.1204 -1.2633
 2690TIP3   OH229560   6.343   1.711  14.749  0.3045  0.2257 -0.0526
 2690TIP3    H129561   6.436   1.696  14.764  0.0609 -1.2850  0.0498
 2690TIP3    H229562   6.303   1.703  14.835  0.0483  0.7173 -0.1234
 2691TIP3   OH229563   3.206   0.045   0.976  0.0551 -0.2559 -0.7246
 2691TIP3    H129564   3.293   0.034   0.938  1.6004  0.4033  2.2490
 2691TIP3    H229565   3.188   0.139   0.968  0.0689 -0.2320 -0.4866
 2692TIP3   OH229566   3.428   2.193   0.189 -0.4033  0.2362  0.0061
 2692TIP3    H129567   3.410   2.202   0.283 -0.6922  0.0005 -0.0262
 2692TIP3    H229568   3.373   2.120   0.161 -0.8983  0.7951 -0.5127
 2693TIP3   OH229569   6.808   4.061  13.474 -0.5188  1.1256  0.3529
 2693TIP3    H129570   6.729   4.006  13.474  0.1931  0.0256 -1.5084
 2693TIP3    H229571   6.794   4.123  13.403 -1.0241  3.0286  2.0246
 2694TIP3   OH229572   3.777   3.967   0.304 -0.2986  0.6100  0.1478
 2694TIP3    H129573   3.844   4.031   0.330 -1.4991  1.9177  0.1433
 2694TIP3    H229574   3.783   3.898   0.370  0.3375  1.2426  0.7676
 2695TIP3   OH229575   2.494   3.114  11.520 -0.1086 -0.3901 -0.0936
 2695TIP3    H129576   2.573   3.140  11.473  1.9070 -0.9565  2.7168
 2695TIP3    H229577   2.503   3.019  11.533 -1.3149 -0.4903  0.1706
 2696TIP3   OH229578   0.619   6.056   0.626  0.2886  0.2030  0.2292
 2696TIP3    H129579   0.643   5.964   0.640  0.2645 -0.1268 -1.6641
 2696TIP3    H229580   0.703   6.101   0.613  0.2489  0.2819  0.2439
 2697TIP3   OH229581   6.255   1.957   1.039 -0.4323  0.1361  0.0706
 2697TIP3    H129582   6.278   1.918   0.955 -0.1840  1.1374 -0.3424
 2697TIP3    H229583   6.205   2.035   1.016  1.9707  2.0011  0.6967
 2698TIP3   OH229584   3.667   5.709  15.654  0.2432  0.1650  0.2172
 2698TIP3    H129585   3.714   5.790  15.673 -1.6875  1.3692  0.1022
 2698TIP3    H229586   3.591   5.737  15.603 -0.0032 -1.8357 -0.6094
 2699TIP3   OH229587   5.523   3.314  14.916  0.1901  0.1272 -0.1027
 2699TIP3    H129588   5.549   3.402  14.891 -0.2418  0.3721  0.3058
 2699TIP3    H229589   5.577   3.257  14.861 -1.1656  0.6474 -2.0864
 2700TIP3   OH229590   6.362   6.627   2.441  0.1917 -0.3864  0.4384
 2700TIP3    H129591   6.336   6.675   2.519  1.2589 -1.1132  1.2714
 2700TIP3    H229592   6.309   6.547   2.443 -0.4783  0.0286 -0.1231
 2701TIP3   OH229593   5.883   6.542  12.737  0.0749 -0.4306 -0.2030
 2701TIP3    H129594   5.811   6.505  12.685 -0.6997  1.0266 -0.2260
 2701TIP3    H229595   5.843   6.616  12.782  1.4148 -0.0162  0.3239
 2702TIP3   OH229596   4.796   3.513  13.646  0.2866  0.2607 -0.5568
 2702TIP3    H129597   4.807   3.521  13.552 -1.4462 -1.1807 -0.9369
 2702TIP3    H229598   4.711   3.552  13.664  0.8412  1.0266  0.5095
 2703TIP3   OH229599   4.646   2.256   2.080 -0.3184  0.5450 -0.1102
 2703TIP3    H129600   4.722   2.307   2.105 -0.7028  0.6642  0.8426
 2703TIP3    H229601   4.583   2.320   2.046 -0.8105  0.7396  1.1089
 2704TIP3   OH229602   4.715   6.803   3.158  0.0143  0.2607  0.7359
 2704TIP3    H129603   4.730   6.781   3.066  1.4350  1.2497  0.7113
 2704TIP3    H229604   4.796   6.779   3.202 -0.4153  0.4045  1.6194
 2705TIP3   OH229605   4.668   5.463   3.075  0.0276  0.1281 -0.4813
 2705TIP3    H129606   4.659   5.511   2.993 -0.1491  0.8921 -0.0267
 2705TIP3    H229607   4.740   5.402   3.059 -0.4164 -0.1759 -1.4034
 2706TIP3   OH229608   2.487   6.726  11.666  0.1058  0.2246 -0.4202
 2706TIP3    H129609   2.429   6.649  11.664  0.4461 -0.1747  1.9662
 2706TIP3    H229610   2.427   6.800  11.674 -0.1623 -0.0105 -0.1944
 2707TIP3   OH229611   6.584   2.144  13.496  0.7177  0.3137 -0.0505
 2707TIP3    H129612   6.633   2.062  13.498 -1.0998 -0.8352 -1.0108
 2707TIP3    H229613   6.550   2.154  13.585  0.1712 -0.4618 -0.1704
 2708TIP3   OH229614   0.112   3.640  13.621 -0.3052 -0.1680 -0.0649
 2708TIP3    H129615   0.066   3.557  13.607 -0.0732 -0.2998 -0.0610
 2708TIP3    H229616   0.120   3.678  13.534  0.8385 -0.8262 -0.2620
 2709TIP3   OH229617   0.955   5.530   3.412  0.1485 -0.1580 -0.1690
 2709TIP3    H129618   0.915   5.480   3.340 -0.6803 -0.2031  0.3090
 2709TIP3    H229619   0.993   5.463   3.469  1.2443 -0.0968 -0.8063
 2710TIP3   OH229620   0.487   0.122   5.266 -0.0431  0.4831 -0.1616
 2710TIP3    H129621   0.461   0.034   5.296 -0.6504  0.3282 -1.1017
 2710TIP3    H229622   0.493   0.114   5.171  0.5495  1.2986 -0.1963
 2711TIP3   OH229623   6.001   1.814  15.098 -0.3190 -0.2658 -0.2356
 2711TIP3    H129624   5.965   1.819  15.187  0.8511  0.7538  0.2116
 2711TIP3    H229625   5.996   1.721  15.076 -2.1328 -0.3190  0.2271
 2712TIP3   OH229626   4.422   3.696  14.821 -0.6013  0.2322 -0.0920
 2712TIP3    H129627   4.378   3.762  14.875 -0.5745 -1.0686  1.6282
 2712TIP3    H229628   4.486   3.746  14.770 -0.7479  1.5757  0.9675
 2713TIP3   OH229629   0.827   6.026   5.796 -0.1512  0.1995 -0.3276
 2713TIP3    H129630   0.778   5.953   5.834 -0.5042 -0.2081 -1.5356
 2713TIP3    H229631   0.903   5.985   5.755  0.2208  0.6332 -0.0886
 2714TIP3   OH229632   4.378   2.987   1.389 -0.1677  0.0688 -0.2247
 2714TIP3    H129633   4.364   2.932   1.466  0.1509 -1.5596 -1.2845
 2714TIP3    H229634   4.326   2.945   1.320 -1.0025  1.8736 -0.7673
 2715TIP3   OH229635   0.416   5.004   0.816 -0.0947 -0.5504  0.1267
 2715TIP3    H129636   0.470   4.953   0.877  0.5280  1.3623  1.2636
 2715TIP3    H229637   0.401   5.087   0.861  2.1402  1.8290 -3.1158
 2716TIP3   OH229638   1.600   4.099  16.296 -0.1742 -0.0446 -0.4379
 2716TIP3    H129639   1.672   4.038  16.281 -1.3920 -1.5114 -0.5353
 2716TIP3    H229640   1.531   4.046  16.335 -1.3137  1.2694 -0.5803
 2717TIP3   OH229641   2.748   0.476  16.286 -0.4021 -0.4506 -0.7615
 2717TIP3    H129642   2.682   0.543  16.304  0.1062 -0.3078  0.6565
 2717TIP3    H229643   2.718   0.400  16.336  0.9640 -0.0994  0.6510
 2718TIP3   OH229644   6.086   3.198  14.972 -0.2061 -0.3004 -0.1426
 2718TIP3    H129645   6.151   3.197  14.901 -0.9160 -1.0880 -0.7940
 2718TIP3    H229646   6.019   3.136  14.944 -0.8112 -0.1477  0.9355
 2719TIP3   OH229647   1.732   6.142  15.303  0.1607 -0.4494 -0.0557
 2719TIP3    H129648   1.731   6.074  15.369  1.9294  1.0569  1.6378
 2719TIP3    H229649   1.700   6.220  15.349 -1.1910  0.0804 -1.7599
 2720TIP3   OH229650   4.952   2.871  17.016  0.0757 -0.0158  0.1914
 2720TIP3    H129651   4.982   2.780  17.007 -0.4507 -0.1308 -0.4358
 2720TIP3    H229652   4.862   2.870  16.983  1.0775  1.3769 -2.9286
 2721TIP3   OH229653   6.301   4.475  11.454 -0.5900  0.2101 -0.3241
 2721TIP3    H129654   6.241   4.546  11.433  0.0744  0.6015 -0.9635
 2721TIP3    H229655   6.286   4.409  11.386 -1.8230 -0.6692  0.7675
 2722TIP3   OH229656   4.571   6.026   6.427 -0.0412 -0.2360 -0.2010
 2722TIP3    H129657   4.490   6.013   6.478  1.1472 -1.3216  1.5203
 2722TIP3    H229658   4.612   6.102   6.468 -0.2525  0.4448 -1.2131
 2723TIP3   OH229659   2.627   1.240   2.439 -0.0557 -0.3790 -0.1822
 2723TIP3    H129660   2.577   1.300   2.495  0.0598 -0.7791  0.3599
 2723TIP3    H229661   2.719   1.261   2.458  0.0922  1.8325 -2.7314
 2724TIP3   OH229662   5.175   6.297  14.669  0.1614 -0.1247  0.5371
 2724TIP3    H129663   5.203   6.209  14.693  0.2834 -0.6165 -1.2642
 2724TIP3    H229664   5.216   6.354  14.734  0.6582 -1.3290  1.3135
 2725TIP3   OH229665   4.975   6.395  17.288  0.4877  0.0806 -0.2366
 2725TIP3    H129666   5.025   6.393  17.206  1.3058  0.9131  0.2214
 2725TIP3    H229667   4.884   6.402  17.260  0.8679  2.6984 -1.1365
 2726TIP3   OH229668   4.163   2.513  17.293  0.3706 -0.0686 -0.1979
 2726TIP3    H129669   4.125   2.596  17.263 -0.8046 -0.8498 -0.9694
 2726TIP3    H229670   4.257   2.529  17.294  0.0815  2.1572  2.3729
 2727TIP3   OH229671   0.818   2.168   0.962 -0.1427  0.1117  0.3178
 2727TIP3    H129672   0.839   2.083   1.000 -0.1132  0.2923  0.7097
 2727TIP3    H229673   0.722   2.170   0.959 -0.1866  0.5548  1.4551
 2728TIP3   OH229674   6.212   6.458   0.436  0.0595 -0.0078  0.6012
 2728TIP3    H129675   6.297   6.421   0.457 -0.2915  0.2077  2.5832
 2728TIP3    H229676   6.233   6.535   0.382  0.9938 -0.8199 -0.2491
 2729TIP3   OH229677   3.037   0.613   0.126 -0.1607  0.1157 -0.9403
 2729TIP3    H129678   3.054   0.651   0.212 -1.9804 -0.3754 -0.3078
 2729TIP3    H229679   3.012   0.688   0.071 -1.0067  0.2009 -0.4599
 2730TIP3   OH229680   1.607   2.134  12.084 -0.1001 -0.4723  0.3987
 2730TIP3    H129681   1.549   2.097  12.017 -0.9750 -1.8788  1.8567
 2730TIP3    H229682   1.653   2.058  12.120  1.0357  0.3685  0.7721
 2731TIP3   OH229683   1.861   5.756  11.098  0.4108  0.4712  0.3903
 2731TIP3    H129684   1.854   5.715  11.012 -1.9522 -0.6327  1.0358
 2731TIP3    H229685   1.943   5.722  11.134  0.5622 -0.4163 -0.7285
 2732TIP3   OH229686   3.534   1.406   6.091  0.0694  0.5031  0.1879
 2732TIP3    H129687   3.623   1.440   6.087  0.0308  0.8268  1.7069
 2732TIP3    H229688   3.479   1.481   6.070  0.0861  0.7377  0.9814
 2733TIP3   OH229689   2.038   1.032  12.505  0.3272  0.2731  0.5084
 2733TIP3    H129690   2.060   1.086  12.429  0.2347 -0.6477 -0.1954
 2733TIP3    H229691   2.023   1.094  12.575  1.0948  1.1137 -0.0535
 2734TIP3   OH229692   3.143   5.388  12.346  0.3909  0.4566 -0.0195
 2734TIP3    H129693   3.056   5.352  12.362  0.3392  0.6321  0.0964
 2734TIP3    H229694   3.189   5.379  12.429  0.2031  1.1391  0.1680
 2735TIP3   OH229695   2.893   2.222  13.615 -0.3874 -0.5253 -0.4308
 2735TIP3    H129696   2.856   2.134  13.614  0.3097 -0.9128 -3.4341
 2735TIP3    H229697   2.986   2.209  13.595 -0.4180  0.8793 -1.6816
 2736TIP3   OH229698   5.106   4.365  13.776  0.1845 -0.3814 -0.0831
 2736TIP3    H129699   5.171   4.415  13.825  0.0890 -0.2941 -0.0459
 2736TIP3    H229700   5.048   4.328  13.843 -0.3772  0.3320 -0.1648
 2737TIP3   OH229701   5.871   5.271   2.932  0.0399  0.2225 -0.2077
 2737TIP3    H129702   5.932   5.345   2.926  1.2811 -0.8412 -1.4519
 2737TIP3    H229703   5.928   5.195   2.943 -1.0203 -0.8345 -1.6398
 2738TIP3   OH229704   6.594   4.225   6.498  0.6051  0.3932  0.0602
 2738TIP3    H129705   6.498   4.231   6.500  0.6296  0.8390 -0.0076
 2738TIP3    H229706   6.613   4.178   6.417  0.3868 -1.0621  0.8302
 2739TIP3   OH229707   1.655   4.801  12.661 -0.3748 -0.2791 -0.1577
 2739TIP3    H129708   1.685   4.857  12.589 -0.2368 -1.6422 -1.1998
 2739TIP3    H229709   1.734   4.785  12.712 -0.2858 -0.0370 -0.2163
 2740TIP3   OH229710   2.110   0.787   1.635 -0.2054 -0.1227 -0.3880
 2740TIP3    H129711   2.130   0.879   1.616  0.0911  0.1927  1.3220
 2740TIP3    H229712   2.186   0.739   1.602  0.0289  0.3335 -0.5232
 2741TIP3   OH229713   4.734   2.788  16.781 -0.9784 -0.0569  0.0229
 2741TIP3    H129714   4.648   2.772  16.742 -1.8229 -0.1828  1.8581
 2741TIP3    H229715   4.769   2.701  16.799 -0.3359 -0.0126 -0.9410
 2742TIP3   OH229716   1.002   3.947   1.988 -0.0740 -0.0734  0.7142
 2742TIP3    H129717   1.050   4.022   1.954 -0.4326  0.1716  0.7407
 2742TIP3    H229718   1.070   3.885   2.014  0.2417 -0.9806 -1.9797
 2743TIP3   OH229719   4.058   5.152  14.670 -0.3924  0.3163 -0.4857
 2743TIP3    H129720   4.112   5.203  14.730 -0.1504  0.9230 -1.2084
 2743TIP3    H229721   4.087   5.178  14.582 -0.9584 -0.3186 -0.8736
 2744TIP3   OH229722   5.229   6.327   4.349  1.0048 -0.1609 -0.4119
 2744TIP3    H129723   5.194   6.241   4.325 -0.5657  0.4994 -0.6166
 2744TIP3    H229724   5.159   6.388   4.327  1.5471  1.0304  1.0017
 2745TIP3   OH229725   4.398   6.640  10.246 -0.2570 -0.1639 -0.1220
 2745TIP3    H129726   4.410   6.707  10.313  0.8591  1.6243 -1.9949
 2745TIP3    H229727   4.484   6.630  10.206 -0.5786 -2.1892 -0.4168
 2746TIP3   OH229728   4.143   2.415  13.342  0.3287  0.4270  0.0637
 2746TIP3    H129729   4.115   2.366  13.265  2.2653 -0.0198 -0.3877
 2746TIP3    H229730   4.129   2.507  13.317  2.2245  0.3773 -1.4253
 2747TIP3   OH229731   3.608   4.841  13.634  0.3050 -0.2931  0.0921
 2747TIP3    H129732   3.663   4.858  13.557  0.2303 -1.6810 -0.2959
 2747TIP3    H229733   3.658   4.776  13.684  0.5218  0.8527  1.4243
 2748TIP3   OH229734   4.103   5.232   2.471  0.2003 -0.0234  0.4468
 2748TIP3    H129735   4.117   5.144   2.438 -0.0429 -0.1653  0.7239
 2748TIP3    H229736   4.082   5.284   2.393 -0.9462 -0.4749  0.4382
 2749TIP3   OH229737   3.470   1.493   0.541  0.0833 -0.2263 -0.5359
 2749TIP3    H129738   3.445   1.575   0.582  0.9517 -0.3050  0.1780
 2749TIP3    H229739   3.388   1.453   0.515 -0.4331  0.2085  0.3839
 2750TIP3   OH229740   1.930   3.481  14.000 -0.4129 -0.0566 -0.2398
 2750TIP3    H129741   1.991   3.409  13.985 -1.1537 -0.5967 -0.7023
 2750TIP3    H229742   1.913   3.478  14.094 -0.6114 -0.6211 -0.2934
 2751TIP3   OH229743   3.440   0.312  13.299  0.2221 -0.0436 -0.5148
 2751TIP3    H129744   3.453   0.354  13.214  1.3445  1.3872  0.3112
 2751TIP3    H229745   3.499   0.359  13.358 -0.9707 -0.5837  1.1871
 2752TIP3   OH229746   5.267   3.367   6.173  0.4626 -0.0857  0.3122
 2752TIP3    H129747   5.265   3.287   6.225 -1.2533 -0.7032 -0.5938
 2752TIP3    H229748   5.182   3.409   6.190  1.2957  1.5332  0.7085
 2753TIP3   OH229749   1.377   5.494  11.475  0.1344 -0.1592  0.2065
 2753TIP3    H129750   1.430   5.534  11.544  1.3005 -0.0639 -0.7244
 2753TIP3    H229751   1.355   5.407  11.509  0.7315 -0.1261  0.6806
 2754TIP3   OH229752   2.054   3.147   2.563  0.2136  0.4149 -0.6425
 2754TIP3    H129753   2.075   3.147   2.656  0.4030  1.8505 -0.6649
 2754TIP3    H229754   2.002   3.068   2.550  2.7006 -1.4777  0.0763
 2755TIP3   OH229755   3.279   5.671   0.682 -0.0319 -0.3059  0.6493
 2755TIP3    H129756   3.184   5.667   0.686 -0.0613 -0.2787  0.0602
 2755TIP3    H229757   3.298   5.752   0.635  0.3360  0.7409  2.4870
 2756TIP3   OH229758   5.118   2.158   6.106 -0.4563  0.1189  0.0222
 2756TIP3    H129759   5.159   2.074   6.127 -0.5825 -0.1756 -0.8685
 2756TIP3    H229760   5.129   2.210   6.186 -2.6839 -1.5919  1.5713
 2757TIP3   OH229761   2.916   5.980  14.997 -0.1357  0.5118 -0.7420
 2757TIP3    H129762   2.893   5.887  15.005  2.2484 -0.1082 -0.0511
 2757TIP3    H229763   2.848   6.017  14.942 -1.3801 -1.5639 -0.7197
 2758TIP3   OH229764   1.592   6.488  13.292  0.1941 -0.2292  0.1359
 2758TIP3    H129765   1.507   6.477  13.250  0.1652 -1.2565  0.4430
 2758TIP3    H229766   1.624   6.399  13.307  1.1627  0.1383  0.3521
 2759TIP3   OH229767   2.054   4.707   0.111  0.2141  0.2045  0.0446
 2759TIP3    H129768   2.088   4.623   0.077 -0.1321  0.8964 -2.2099
 2759TIP3    H229769   2.131   4.754   0.140  1.0918  0.8772 -2.9870
 2760TIP3   OH229770   3.813   5.204  13.715  0.1484  0.0672 -0.0416
 2760TIP3    H129771   3.796   5.117  13.749  0.9856  0.1769  0.6933
 2760TIP3    H229772   3.738   5.256  13.743  0.7178  0.1094  1.5163
 2761TIP3   OH229773   1.664   1.970  14.112  0.7191 -0.3541  0.3603
 2761TIP3    H129774   1.695   1.892  14.065 -0.3890 -0.9592  0.5969
 2761TIP3    H229775   1.744   2.016  14.138  1.3684 -0.6617 -1.0156
 2762TIP3   OH229776   2.895   6.591   3.051  0.0046  0.3377 -0.4402
 2762TIP3    H129777   2.833   6.518   3.052  0.4708 -0.0550  0.2515
 2762TIP3    H229778   2.840   6.669   3.045 -0.4598 -0.1006 -3.1719
 2763TIP3   OH229779   1.875   1.556   2.925  0.4913 -0.2457  0.1180
 2763TIP3    H129780   1.800   1.598   2.968  0.7691  0.3833 -0.0023
 2763TIP3    H229781   1.946   1.564   2.988  1.2005  1.6543 -0.8413
 2764TIP3   OH229782   5.402   6.793  14.472  0.2295  0.0964  0.8773
 2764TIP3    H129783   5.386   6.879  14.433  0.8692  0.0479  0.4827
 2764TIP3    H229784   5.487   6.767  14.437  0.6114 -0.1633  1.9435
 2765TIP3   OH229785   6.785   0.428   5.135  0.3474  0.1251 -0.5306
 2765TIP3    H129786   6.808   0.457   5.046 -0.7074 -0.3565 -0.9790
 2765TIP3    H229787   6.856   0.370   5.160  1.0941  0.9316 -0.7097
 2766TIP3   OH229788   2.606   6.079  17.003  0.7876  0.4071  0.4043
 2766TIP3    H129789   2.665   6.142  16.963  0.9447  1.4071  2.1038
 2766TIP3    H229790   2.519   6.103  16.971  1.2111 -1.2660 -2.3562
 2767TIP3   OH229791   0.434   4.406   6.488  0.3202  0.2028 -0.7107
 2767TIP3    H129792   0.515   4.360   6.468  0.5231 -0.1896  0.9128
 2767TIP3    H229793   0.462   4.490   6.523  0.0382  0.0048  0.0002
 2768TIP3   OH229794   3.617   2.262   1.489 -0.2294  0.3631  0.6616
 2768TIP3    H129795   3.575   2.286   1.571 -2.3168  0.7954 -0.4666
 2768TIP3    H229796   3.577   2.179   1.464  0.0164  0.4783 -0.1602
 2769TIP3   OH229797   4.245   6.510   3.917 -0.3783  0.0610  0.8157
 2769TIP3    H129798   4.182   6.487   3.985 -0.3299  0.2399  0.9224
 2769TIP3    H229799   4.275   6.598   3.942 -0.0065 -0.0705  0.8258
 2770TIP3   OH229800   0.810   2.363   3.815  0.4699 -0.0906 -0.0217
 2770TIP3    H129801   0.767   2.292   3.768 -0.9512 -0.1735  1.3441
 2770TIP3    H229802   0.750   2.437   3.809  1.3914  0.6615 -0.3939
 2771TIP3   OH229803   6.574   0.942   0.962  0.0034 -0.0510  0.1972
 2771TIP3    H129804   6.582   1.037   0.956 -0.4400  0.0174  0.5792
 2771TIP3    H229805   6.480   0.926   0.962  0.0509 -0.4185  1.0601
 2772TIP3   OH229806   0.121   5.167   1.720  0.5013 -0.6104  0.1479
 2772TIP3    H129807   0.172   5.234   1.764  1.1093 -1.0189  0.0773
 2772TIP3    H229808   0.160   5.084   1.748  0.0173 -0.9238 -0.0764
 2773TIP3   OH229809   1.239   3.501   5.955 -0.3631 -0.4650 -0.2972
 2773TIP3    H129810   1.198   3.441   6.018  0.5498 -1.7126 -0.8389
 2773TIP3    H229811   1.331   3.505   5.982 -0.4928  1.1201  0.0181
 2774TIP3   OH229812   1.750   0.648   3.204 -0.1298 -0.4047 -0.0288
 2774TIP3    H129813   1.769   0.604   3.121 -2.0295 -0.3550 -0.5433
 2774TIP3    H229814   1.835   0.680   3.234  0.9204 -2.2348 -0.8901
 2775TIP3   OH229815   5.048   5.543   1.106 -0.0851  0.4976 -0.3530
 2775TIP3    H129816   5.141   5.567   1.106 -0.3284  1.8275  2.0543
 2775TIP3    H229817   5.044   5.463   1.158 -0.2215 -0.1019 -1.2573
 2776TIP3   OH229818   3.685   1.645   4.087 -0.1392  0.2934 -0.3027
 2776TIP3    H129819   3.620   1.714   4.102 -1.3243 -0.3699 -2.1162
 2776TIP3    H229820   3.757   1.669   4.145  0.5921  4.4920 -2.5107
 2777TIP3   OH229821   3.216   2.711  13.377  0.0987 -0.5330  0.9767
 2777TIP3    H129822   3.179   2.774  13.439  1.4436 -1.0554  2.3824
 2777TIP3    H229823   3.140   2.670  13.336 -0.8100  0.9175  1.1518
 2778TIP3   OH229824   4.987   4.412  15.197 -0.1902  0.0842  0.0661
 2778TIP3    H129825   4.954   4.499  15.175 -0.6453 -0.3525 -1.0836
 2778TIP3    H229826   4.911   4.364  15.229  0.1240  0.1845  1.0070
 2779TIP3   OH229827   4.970   6.316  14.448 -0.0764 -0.3671  0.3109
 2779TIP3    H129828   5.045   6.282  14.497  0.4343 -0.2429 -0.3727
 2779TIP3    H229829   4.984   6.286  14.358 -0.0854  0.8633 -0.1215
 2780TIP3   OH229830   2.603   3.745   4.556 -0.9293 -0.1144 -0.1692
 2780TIP3    H129831   2.576   3.835   4.574 -1.6222 -0.5980  1.4494
 2780TIP3    H229832   2.592   3.734   4.462  3.0804  2.7220 -1.2354
 2781TIP3   OH229833   4.815   5.404  15.392 -0.3370  0.0378 -0.0904
 2781TIP3    H129834   4.857   5.351  15.325 -1.1743 -0.0859 -0.5365
 2781TIP3    H229835   4.845   5.494  15.374 -0.7549  0.0458 -0.8088
 2782TIP3   OH229836   1.077   2.311  13.452  0.2604 -0.1807 -0.1358
 2782TIP3    H129837   1.148   2.316  13.388 -0.0645  1.8764 -0.4203
 2782TIP3    H229838   1.119   2.324  13.537  0.8600 -4.0631  0.3319
 2783TIP3   OH229839   0.195   5.384  13.723  0.5888  0.5515 -0.0288
 2783TIP3    H129840   0.163   5.346  13.805  1.8184 -0.0759  0.1682
 2783TIP3    H229841   0.211   5.476  13.745 -0.3681  0.7109  0.0589
 2784TIP3   OH229842   3.975   0.467  14.284  0.7182 -0.0475  0.1135
 2784TIP3    H129843   4.010   0.557  14.283  0.5300  0.0239 -0.1735
 2784TIP3    H229844   4.036   0.419  14.340  3.8058 -0.9073 -3.5406
 2785TIP3   OH229845   2.424   5.572  12.057 -0.3614  0.2151  0.0063
 2785TIP3    H129846   2.503   5.620  12.034 -0.3467  0.5563  0.7586
 2785TIP3    H229847   2.386   5.620  12.130 -0.7840 -0.4530  0.2391
 2786TIP3   OH229848   4.255   6.645  12.319 -0.3236  0.5028 -0.0850
 2786TIP3    H129849   4.220   6.561  12.351 -0.2435  0.6915  0.5105
 2786TIP3    H229850   4.348   6.629  12.306 -0.3452  0.4439 -0.1726
 2787TIP3   OH229851   0.411   3.546   2.554  0.1687  0.1702  0.1775
 2787TIP3    H129852   0.346   3.477   2.568  0.9852 -0.4746  0.8831
 2787TIP3    H229853   0.421   3.587   2.640  0.4291  0.5057 -0.0113
 2788TIP3   OH229854   2.141   2.526   0.499 -0.4003  0.3000  0.1694
 2788TIP3    H129855   2.154   2.609   0.544  1.5497  0.5669 -0.8041
 2788TIP3    H229856   2.095   2.550   0.418  1.2027  0.6519 -0.6808
 2789TIP3   OH229857   5.986   5.926  12.295  0.2930 -0.3677  0.2853
 2789TIP3    H129858   6.017   5.984  12.225  1.1520 -1.8960 -0.6597
 2789TIP3    H229859   5.893   5.914  12.277 -0.0712  1.2314  0.9099
 2790TIP3   OH229860   0.570   0.977  11.345 -0.0881 -0.3880 -0.0511
 2790TIP3    H129861   0.649   0.946  11.300  1.4094  0.1771  2.0312
 2790TIP3    H229862   0.556   0.914  11.415 -1.6570 -0.5912 -0.5266
 2791TIP3   OH229863   5.688   2.180   2.111  0.0946 -0.3132  0.0320
 2791TIP3    H129864   5.730   2.174   2.197  0.2566  0.6266  0.0280
 2791TIP3    H229865   5.618   2.244   2.122 -0.8289 -1.2706 -0.1732
 2792TIP3   OH229866   0.549   5.425   0.149  0.2902  0.8129 -0.1038
 2792TIP3    H129867   0.600   5.353   0.188 -1.2106 -0.7011 -0.7951
 2792TIP3    H229868   0.598   5.504   0.173  1.5082 -0.3367  1.5039
 2793TIP3   OH229869   3.783   2.005  12.549  0.1505 -0.0915  0.4756
 2793TIP3    H129870   3.843   1.933  12.567  1.0993  0.8084  1.0591
 2793TIP3    H229871   3.755   2.035  12.635 -0.1666  0.2934  0.2410
 2794TIP3   OH229872   1.868   1.382  13.426  0.1997 -0.4655  0.0582
 2794TIP3    H129873   1.941   1.410  13.481 -0.0408 -1.1121  0.7225
 2794TIP3    H229874   1.909   1.336  13.353  0.4347 -1.5597  0.8596
 2795TIP3   OH229875   2.819   4.153   3.876  0.2845 -0.2519  0.2434
 2795TIP3    H129876   2.878   4.094   3.923 -0.3829 -0.7679  0.4554
 2795TIP3    H229877   2.812   4.114   3.788  1.4585  0.6593 -0.2754
 2796TIP3   OH229878   0.152   0.879  11.554  0.6142 -0.5846 -0.1237
 2796TIP3    H129879   0.111   0.893  11.640  0.8540 -1.5610  0.1695
 2796TIP3    H229880   0.078   0.856  11.497  0.3126  1.0732 -0.4516
 2797TIP3   OH229881   2.314   0.998   3.629  0.0280  0.5858  0.0601
 2797TIP3    H129882   2.293   1.091   3.618 -0.3235  0.4976 -0.0465
 2797TIP3    H229883   2.309   0.984   3.723  0.5790  0.7860  0.1218
 2798TIP3   OH229884   0.402   5.631  14.780 -0.1025  0.3497  0.3035
 2798TIP3    H129885   0.407   5.723  14.755  0.3042  0.1442 -0.4092
 2798TIP3    H229886   0.449   5.585  14.710 -1.3198 -0.5102  0.0188
 2799TIP3   OH229887   1.277   6.160   0.584  0.0635 -0.1514 -0.0334
 2799TIP3    H129888   1.288   6.235   0.526  0.7521  0.2452  0.5959
 2799TIP3    H229889   1.343   6.172   0.653 -0.3600 -0.9044  0.5265
 2800TIP3   OH229890   3.407   2.759  16.073 -0.2117  0.1016  0.0122
 2800TIP3    H129891   3.350   2.721  16.006  0.7590  0.4818 -1.0583
 2800TIP3    H229892   3.478   2.799  16.024  0.8842 -0.1912  1.3039
 2801TIP3   OH229893   4.027   1.233  13.709  0.2277  0.4938  0.0758
 2801TIP3    H129894   4.030   1.268  13.798 -1.3477 -0.6460  0.6143
 2801TIP3    H229895   4.000   1.142  13.719 -0.0711  0.3629 -1.5795
 2802TIP3   OH229896   2.239   2.600   1.005 -0.1247 -0.5276  0.4841
 2802TIP3    H129897   2.199   2.672   0.956  1.0186  1.3467  2.1454
 2802TIP3    H229898   2.302   2.562   0.944  1.3969  1.8632  0.4125
 2803TIP3   OH229899   6.604   6.421  14.772  0.6696 -0.0900  0.4197
 2803TIP3    H129900   6.512   6.439  14.795  0.7406  1.4418 -0.3636
 2803TIP3    H229901   6.653   6.492  14.814  1.2585  0.2777 -0.8502
 2804TIP3   OH229902   4.579   2.748   2.263  0.6014  0.3679  0.4871
 2804TIP3    H129903   4.582   2.758   2.358  1.4365  2.8291  0.2856
 2804TIP3    H229904   4.499   2.699   2.245 -0.3563  1.1793  2.3785
 2805TIP3   OH229905   5.287   5.158   0.419 -0.2104 -0.1519  0.0509
 2805TIP3    H129906   5.298   5.071   0.380 -0.8332 -0.2941  0.1838
 2805TIP3    H229907   5.355   5.211   0.378  1.8768 -1.3021  1.7891
 2806TIP3   OH229908   2.664   1.458  16.424 -0.1464  0.0796  0.4997
 2806TIP3    H129909   2.596   1.424  16.482  0.4885  0.6160  1.5689
 2806TIP3    H229910   2.722   1.383  16.410 -0.7786 -0.2976 -0.1798
 2807TIP3   OH229911   0.777   3.620  13.481  0.0918  0.1177  0.0341
 2807TIP3    H129912   0.841   3.686  13.505  1.2067 -0.6739 -0.6880
 2807TIP3    H229913   0.730   3.659  13.407  1.3954 -0.2458 -1.0251
 2808TIP3   OH229914   0.996   0.306  15.124 -0.4093 -0.4767  0.5078
 2808TIP3    H129915   1.077   0.255  15.122  0.1855  0.4468 -1.2676
 2808TIP3    H229916   0.946   0.275  15.049  0.9669  2.9050 -2.0906
 2809TIP3   OH229917   5.518   3.591  12.124 -0.0024 -0.2533  0.0658
 2809TIP3    H129918   5.561   3.511  12.155 -0.4341  0.3066  2.2934
 2809TIP3    H229919   5.584   3.660  12.136 -0.1738 -0.0155 -0.3378
 2810TIP3   OH229920   1.298   0.886  14.741 -0.1193  0.2175 -0.0388
 2810TIP3    H129921   1.302   0.971  14.785 -1.6771  1.1404 -1.5672
 2810TIP3    H229922   1.373   0.886  14.682 -0.1433  0.5708 -0.0752
 2811TIP3   OH229923   2.578   3.031   3.588  0.1991 -0.5105  0.3471
 2811TIP3    H129924   2.578   3.085   3.509  0.3762 -1.7417 -0.5145
 2811TIP3    H229925   2.632   2.955   3.565 -0.1360 -1.1126  1.4979
 2812TIP3   OH229926   1.685   5.205   3.663  0.0773  0.7767 -0.6395
 2812TIP3    H129927   1.706   5.220   3.756  3.3672  0.9402 -1.2923
 2812TIP3    H229928   1.714   5.115   3.647 -2.9449 -0.2178 -0.9640
 2813TIP3   OH229929   6.356   3.665  10.809  0.5333  0.1219 -0.3503
 2813TIP3    H129930   6.305   3.616  10.745  0.3438 -0.7364  0.4311
 2813TIP3    H229931   6.299   3.673  10.885  1.8532 -1.7743  0.9407
 2814TIP3   OH229932   0.626   4.938  11.463 -0.5506 -0.5239  0.1995
 2814TIP3    H129933   0.717   4.930  11.435 -0.3925 -1.0771  0.8624
 2814TIP3    H229934   0.631   4.973  11.552 -0.8925 -2.4652  1.0242
 2815TIP3   OH229935   5.260   4.466  16.107 -0.7726  0.2173 -0.3887
 2815TIP3    H129936   5.325   4.400  16.082 -0.6686  0.0163  0.3910
 2815TIP3    H229937   5.231   4.504  16.024 -1.4016 -1.3344 -0.9175
 2816TIP3   OH229938   4.575   6.350   1.740  0.3600  0.1874  0.5332
 2816TIP3    H129939   4.607   6.427   1.787  2.6598 -0.0752 -0.4307
 2816TIP3    H229940   4.619   6.355   1.655  0.3140 -2.0043  0.3282
 2817TIP3   OH229941   0.949   3.831  16.324 -0.1150  0.6472 -0.0791
 2817TIP3    H129942   0.914   3.844  16.236 -1.2583  1.4307  0.4629
 2817TIP3    H229943   1.004   3.754  16.317 -0.4269  0.5248 -1.4174
 2818TIP3   OH229944   6.057   4.913   2.852  0.9841 -0.0237  0.1724
 2818TIP3    H129945   5.968   4.891   2.880  1.4247 -1.1053  0.7967
 2818TIP3    H229946   6.075   4.998   2.892  0.7438 -0.4706  1.2515
 2819TIP3   OH229947   6.529   2.782  15.297  0.0375  0.1156  0.0871
 2819TIP3    H129948   6.481   2.722  15.239  0.3698  0.5300 -0.6247
 2819TIP3    H229949   6.557   2.726  15.370  0.7211 -0.7116 -0.7769
 2820TIP3   OH229950   4.594   5.366  11.294 -0.1488 -0.0937  0.0734
 2820TIP3    H129951   4.630   5.279  11.275  0.1239  0.0446 -0.0526
 2820TIP3    H229952   4.653   5.401  11.361 -0.2135  0.0258  0.0682
 2821TIP3   OH229953   0.161   3.701  13.368 -0.4770 -0.5015  0.6978
 2821TIP3    H129954   0.154   3.621  13.316  0.5465  0.9465 -1.8257
 2821TIP3    H229955   0.245   3.739  13.342 -0.2068  0.6474  3.0162
 2822TIP3   OH229956   3.456   0.810  15.588  0.4194 -0.1958  0.1462
 2822TIP3    H129957   3.409   0.787  15.508 -1.7429 -0.0685  1.3225
 2822TIP3    H229958   3.513   0.883  15.562  0.1270 -0.4706 -1.3613
 2823TIP3   OH229959   3.237   2.711   1.091  0.4659  0.6897  0.2025
 2823TIP3    H129960   3.179   2.635   1.101  1.4891 -0.4455 -1.7416
 2823TIP3    H229961   3.184   2.786   1.118 -1.2889 -0.4767  0.1648
 2824TIP3   OH229962   3.459   6.305  14.638 -0.3341 -0.0940 -0.5380
 2824TIP3    H129963   3.459   6.262  14.724  1.6452  1.4290  0.3052
 2824TIP3    H229964   3.455   6.398  14.658  0.2726  0.3032 -2.0968
 2825TIP3   OH229965   3.126   0.392   4.665  0.0004 -0.6486  0.2007
 2825TIP3    H129966   3.070   0.339   4.607  0.3012 -1.0412  0.2687
 2825TIP3    H229967   3.152   0.333   4.735 -0.8885 -0.0036  1.1110
 2826TIP3   OH229968   5.093   5.143  17.120  0.2804  0.2590 -0.9599
 2826TIP3    H129969   5.002   5.116  17.107  0.3628 -0.7988  0.4320
 2826TIP3    H229970   5.140   5.101  17.048 -0.0724 -0.7854 -0.6022
 2827TIP3   OH229971   2.927   3.794  12.749  0.4177  0.6196 -0.0523
 2827TIP3    H129972   2.966   3.756  12.828  0.7722  0.7652 -0.1536
 2827TIP3    H229973   2.924   3.888  12.768  0.1570  0.6123 -0.0630
 2828TIP3   OH229974   3.070   3.074  15.612 -0.2767 -0.4837 -0.2734
 2828TIP3    H129975   3.132   3.083  15.684 -0.8742 -2.0676  0.4897
 2828TIP3    H229976   3.055   2.980  15.605 -0.6820 -0.3250 -2.1085
 2829TIP3   OH229977   0.498   0.657   2.730  0.1898 -0.2304 -0.5757
 2829TIP3    H129978   0.494   0.737   2.783  0.0431 -0.6090 -0.0070
 2829TIP3    H229979   0.449   0.679   2.650  0.5786  0.4062 -0.6449
 2830TIP3   OH229980   6.425   2.333  10.945 -0.9010  0.7414 -0.0115
 2830TIP3    H129981   6.398   2.425  10.942 -1.1653  0.8123  2.1983
 2830TIP3    H229982   6.378   2.292  10.873 -2.5539  1.9412  0.3072
 2831TIP3   OH229983   1.602   0.238   3.902 -0.0143  0.2598 -0.1951
 2831TIP3    H129984   1.680   0.293   3.904  0.6298 -0.5135 -2.1204
 2831TIP3    H229985   1.590   0.216   3.810 -1.0093 -1.7262  0.3566
 2832TIP3   OH229986   4.076   2.884   4.713 -0.1290  0.0973  0.5878
 2832TIP3    H129987   4.037   2.889   4.626 -0.5909  1.4488  0.8548
 2832TIP3    H229988   4.167   2.859   4.697 -0.4075 -0.4390 -0.2168
 2833TIP3   OH229989   6.200   0.216   0.426 -0.2486 -0.3737 -0.4782
 2833TIP3    H129990   6.148   0.273   0.369 -1.1650 -0.7594 -0.0457
 2833TIP3    H229991   6.164   0.229   0.513  0.3408 -0.7078 -0.1742
 2834TIP3   OH229992   5.369   6.106   3.589 -0.4366 -0.1612 -0.2698
 2834TIP3    H129993   5.293   6.133   3.641  1.0023  0.6097  1.5933
 2834TIP3    H229994   5.345   6.128   3.499 -2.6410 -0.5423  0.1583
 2835TIP3   OH229995   0.987   2.180  16.219  0.0625 -0.1173  0.4149
 2835TIP3    H129996   0.933   2.133  16.156 -0.7131  2.2383 -0.8036
 2835TIP3    H229997   1.048   2.231  16.166  0.6414  0.5056  1.6316
 2836TIP3   OH229998   6.320   1.544   0.721  0.0474  0.1225 -0.3636
 2836TIP3    H129999   6.290   1.491   0.796  1.3879 -0.8881 -0.5142
 2836TIP3    H230000   6.363   1.481   0.663 -1.2623  0.8171 -2.1938
 2837TIP3   OH230001   2.890   1.425   3.995  0.5839 -0.0819 -0.1112
 2837TIP3    H130002   2.843   1.348   3.961  1.2610 -1.2164  1.4170
 2837TIP3    H230003   2.867   1.428   4.088  1.1435  1.1497  0.0021
 2838TIP3   OH230004   4.823   6.090  12.398 -0.0310  0.7180  0.0572
 2838TIP3    H130005   4.749   6.104  12.457  1.0559 -1.2989  2.0284
 2838TIP3    H230006   4.877   6.168  12.407 -1.7552  2.1498 -1.3006
 2839TIP3   OH230007   0.069   0.088   2.332 -0.3234 -0.0471 -0.1890
 2839TIP3    H130008  -0.016   0.073   2.374 -0.5128 -1.5076 -1.0277
 2839TIP3    H230009   0.083   0.182   2.340 -0.3939 -0.1710  3.0157
 2840TIP3   OH230010   2.383   0.428  12.055 -0.8377  0.3510 -0.1392
 2840TIP3    H130011   2.477   0.412  12.061 -0.7525  1.0004  0.3680
 2840TIP3    H230012   2.343   0.345  12.082 -0.4136  0.1216 -0.1990
 2841TIP3   OH230013   3.068   5.279  14.025  0.3350 -0.7401  0.1409
 2841TIP3    H130014   3.041   5.314  14.110  1.4109 -1.2325  0.7064
 2841TIP3    H230015   2.988   5.240  13.989 -0.0358 -0.9250  1.1298
 2842TIP3   OH230016   1.904   2.844  12.908  0.1212  0.0168 -0.0479
 2842TIP3    H130017   1.848   2.819  12.982 -0.8744 -0.1599 -0.8503
 2842TIP3    H230018   1.941   2.928  12.934 -0.2174 -0.0394  0.6577
 2843TIP3   OH230019   6.611   4.610   3.488  0.6845 -0.6631 -0.1710
 2843TIP3    H130020   6.704   4.618   3.507  0.8019 -0.7106 -0.7189
 2843TIP3    H230021   6.568   4.619   3.573  1.0227  1.9572 -0.2009
 2844TIP3   OH230022   2.904   4.754  14.667 -0.0965 -0.2388 -0.1538
 2844TIP3    H130023   2.995   4.726  14.681 -0.0186  0.3951  0.6690
 2844TIP3    H230024   2.909   4.849  14.664 -0.7921 -0.1836  0.3348
 2845TIP3   OH230025   4.122   4.822  11.377 -0.5080  0.4787 -0.2504
 2845TIP3    H130026   4.207   4.821  11.420 -0.3233  0.1184 -0.6173
 2845TIP3    H230027   4.129   4.891  11.311 -0.5094  0.4651 -0.2646
 2846TIP3   OH230028   2.126   5.728  10.409  0.6043  0.1276  1.1303
 2846TIP3    H130029   2.165   5.669  10.473 -0.1451  0.0866  1.5567
 2846TIP3    H230030   2.184   5.804  10.408  1.6550 -0.6420  0.4755
 2847TIP3   OH230031   4.414   5.847   3.511  0.0506  0.1047  0.2700
 2847TIP3    H130032   4.455   5.810   3.433  0.2425  1.5504 -0.3460
 2847TIP3    H230033   4.481   5.904   3.548 -0.2463 -0.1221  1.1724
 2848TIP3   OH230034   3.953   2.904  13.438  0.1476 -0.4309  0.1439
 2848TIP3    H130035   3.927   2.978  13.383  1.3437  0.7313  1.0651
 2848TIP3    H230036   3.958   2.941  13.527 -0.2740 -1.8908  0.8127
 2849TIP3   OH230037   3.231   0.959  11.613 -0.5586  0.1402 -1.1627
 2849TIP3    H130038   3.312   1.007  11.629  1.0011 -2.5216 -0.4938
 2849TIP3    H230039   3.194   0.944  11.700 -1.0376  0.1318 -1.3607
 2850TIP3   OH230040   5.932   6.081   6.301  0.4068 -0.3303  0.2309
 2850TIP3    H130041   5.894   6.027   6.370 -0.2374 -0.0818  0.0743
 2850TIP3    H230042   5.857   6.123   6.259  0.8504  0.1345 -0.1070
 2851TIP3   OH230043   6.355   4.166  14.387 -0.2400 -0.6688  0.0230
 2851TIP3    H130044   6.405   4.163  14.305  0.1700  0.3339  0.2142
 2851TIP3    H230045   6.333   4.075  14.405  0.2114 -0.9697 -0.8714
 2852TIP3   OH230046   5.106   2.121   5.088 -0.1344 -0.5977 -0.2820
 2852TIP3    H130047   5.015   2.144   5.069 -0.5815 -2.3757 -0.4324
 2852TIP3    H230048   5.125   2.049   5.029  0.7614 -1.4889  1.0555
 2853TIP3   OH230049   5.700   6.673  16.259  0.1116 -0.1597 -0.1608
 2853TIP3    H130050   5.643   6.697  16.187 -0.8209  0.6381  0.8040
 2853TIP3    H230051   5.641   6.643  16.328  1.0461 -2.0125 -0.1020
 2854TIP3   OH230052   1.780   4.287   2.194  0.1739 -0.2344 -0.2546
 2854TIP3    H130053   1.764   4.228   2.267  2.3365 -1.3139 -0.5442
 2854TIP3    H230054   1.864   4.329   2.216 -0.0089  0.7233 -1.3100
 2855TIP3   OH230055   2.297   0.715  16.878 -0.3478 -0.0595 -0.4615
 2855TIP3    H130056   2.240   0.703  16.954  0.8626  0.5796  0.5806
 2855TIP3    H230057   2.382   0.683  16.906  0.1214  0.1354 -1.5877
 2856TIP3   OH230058   2.461   3.976   3.822  0.6017  0.4274  0.2526
 2856TIP3    H130059   2.514   4.002   3.746 -0.2089  1.8485  0.1420
 2856TIP3    H230060   2.391   4.041   3.826  0.6085  0.3732  2.2099
 2857TIP3   OH230061   4.809   5.618  14.035  0.2593 -0.2133 -0.0591
 2857TIP3    H130062   4.737   5.654  14.087 -0.3608 -0.0994 -0.9733
 2857TIP3    H230063   4.878   5.683  14.041  0.7271 -0.8154  1.7239
 2858TIP3   OH230064   6.675   3.357  16.609  0.2793  0.1605 -0.6806
 2858TIP3    H130065   6.766   3.379  16.627  0.6785 -0.4232 -1.8940
 2858TIP3    H230066   6.666   3.365  16.514 -0.7787 -0.3745 -0.6440
 2859TIP3   OH230067   2.687   3.737   0.729  0.0966  0.7733  0.5228
 2859TIP3    H130068   2.704   3.762   0.639  1.9014  1.4271  1.0156
 2859TIP3    H230069   2.591   3.736   0.736 -0.1762 -1.4880 -1.9778
 2860TIP3   OH230070   3.623   6.441   4.455 -0.5629  0.2273 -0.4129
 2860TIP3    H130071   3.567   6.399   4.520 -1.3108  0.7196 -0.7243
 2860TIP3    H230072   3.622   6.382   4.380  0.7420 -0.6098  0.2053
 2861TIP3   OH230073   5.957   4.106   4.259  0.0933 -0.0722 -0.4456
 2861TIP3    H130074   6.000   4.135   4.178 -0.2129  1.3914 -0.1188
 2861TIP3    H230075   5.910   4.026   4.235  0.7632 -0.1697 -1.4737
 2862TIP3   OH230076   4.702   5.608   1.469 -0.1667 -0.0619 -0.3132
 2862TIP3    H130077   4.791   5.645   1.464 -0.4865  0.9544  0.9180
 2862TIP3    H230078   4.693   5.556   1.390  1.0113  1.0052 -1.1857
 2863TIP3   OH230079   3.687   4.869  12.523 -0.9671 -0.0042 -0.0697
 2863TIP3    H130080   3.685   4.933  12.595  0.0426  0.9126 -0.8298
 2863TIP3    H230081   3.655   4.788  12.563  1.1467  0.0351  1.8796
 2864TIP3   OH230082   0.845   3.266  16.192  0.3617 -0.3478 -0.4950
 2864TIP3    H130083   0.923   3.224  16.228  0.5482  0.3691 -0.0709
 2864TIP3    H230084   0.817   3.328  16.258 -2.2376 -2.5377  0.6634
 2865TIP3   OH230085   4.396   0.996   0.934  0.2681  0.1736  0.3533
 2865TIP3    H130086   4.371   0.914   0.893 -0.4508  0.4604  0.2036
 2865TIP3    H230087   4.487   1.010   0.907  0.4609 -0.6597  0.5400
 2866TIP3   OH230088   4.303   4.941  13.213 -0.3189 -0.6166  0.2654
 2866TIP3    H130089   4.358   5.012  13.248 -0.7350 -0.3606  0.4024
 2866TIP3    H230090   4.366   4.880  13.173 -0.0272  0.2821 -0.6857
 2867TIP3   OH230091   0.769   2.323   6.151  0.3390 -0.0948  0.5128
 2867TIP3    H130092   0.792   2.230   6.145 -0.1925 -0.2828  1.2386
 2867TIP3    H230093   0.778   2.344   6.244  2.0362  1.0198  0.1320
 2868TIP3   OH230094   3.715   5.661  16.368 -0.6915 -0.2271  0.5748
 2868TIP3    H130095   3.748   5.575  16.342 -0.8485 -0.5570  1.4165
 2868TIP3    H230096   3.794   5.710  16.394 -0.7321 -0.6403  1.5288
 2869TIP3   OH230097   5.728   6.258   0.824  0.5493 -0.6712 -0.4629
 2869TIP3    H130098   5.814   6.294   0.847 -0.1451  1.7932 -1.4518
 2869TIP3    H230099   5.683   6.329   0.780 -2.3043 -1.6514  0.6332
 2870TIP3   OH230100   1.301   5.896   2.580  0.1517  0.2713 -0.2172
 2870TIP3    H130101   1.291   5.975   2.527  1.0982  0.9946  0.6575
 2870TIP3    H230102   1.354   5.838   2.525 -1.4512 -0.2286 -1.3177
 2871TIP3   OH230103   2.925   0.714   3.624  0.2710  0.2642  0.1586
 2871TIP3    H130104   2.880   0.706   3.708 -0.0532 -1.2983 -0.1392
 2871TIP3    H230105   2.962   0.627   3.608 -0.2641  0.3297 -1.6452
 2872TIP3   OH230106   1.228   4.383  12.929 -0.1547  0.7790 -0.3694
 2872TIP3    H130107   1.231   4.433  12.847  0.5973  0.5290 -0.4991
 2872TIP3    H230108   1.304   4.325  12.925 -0.0683  0.8112  0.5352
 2873TIP3   OH230109   0.732   0.492  14.735 -0.1856  0.2671 -0.0472
 2873TIP3    H130110   0.662   0.546  14.698 -1.0570  0.6707  2.0089
 2873TIP3    H230111   0.733   0.413  14.682 -0.5331  1.2820 -1.6214
 2874TIP3   OH230112   6.391   3.830   2.013 -0.4786  0.3178  0.7288
 2874TIP3    H130113   6.486   3.824   2.017 -0.6132 -2.8263  3.4175
 2874TIP3    H230114   6.365   3.773   1.941 -0.3926  1.7071 -0.4529
 2875TIP3   OH230115   6.113   1.502  16.144  0.0013  0.3631 -0.4551
 2875TIP3    H130116   6.188   1.558  16.163  0.5958  0.5361 -2.9176
 2875TIP3    H230117   6.091   1.462  16.227  2.7367  0.4316  0.3960
 2876TIP3   OH230118   0.029   6.144  13.093 -0.1990 -0.2069 -0.4068
 2876TIP3    H130119   0.024   6.055  13.128  0.7103 -0.8580 -1.8649
 2876TIP3    H230120   0.114   6.177  13.124 -1.3872  0.9851  1.8794
 2877TIP3   OH230121   1.635   2.863   3.810 -0.2393 -0.7909  0.2955
 2877TIP3    H130122   1.568   2.931   3.801 -0.6214 -1.2059 -0.1127
 2877TIP3    H230123   1.710   2.895   3.760  1.5728  1.6885  4.1916
 2878TIP3   OH230124   2.507   1.885  16.598  0.3158 -0.6986  0.7163
 2878TIP3    H130125   2.464   1.934  16.668  0.0638  1.6952 -1.0112
 2878TIP3    H230126   2.450   1.809  16.584 -2.8778  1.7297 -0.6655
 2879TIP3   OH230127   4.429   6.161  16.326 -0.0678  0.5278  0.6844
 2879TIP3    H130128   4.505   6.211  16.295 -0.0961  1.1894  1.6174
 2879TIP3    H230129   4.397   6.212  16.401 -0.5319 -0.5320  1.2201
 2880TIP3   OH230130   0.830   0.150   0.455  0.4572  0.2510 -0.3567
 2880TIP3    H130131   0.757   0.210   0.440 -0.2238 -0.4557  0.0815
 2880TIP3    H230132   0.851   0.161   0.548  1.4852  1.0763 -0.6668
 2881TIP3   OH230133   0.944   2.392   2.664 -0.1612 -0.0559  0.3702
 2881TIP3    H130134   1.033   2.363   2.682 -0.2816  0.0971  1.2729
 2881TIP3    H230135   0.897   2.312   2.640  0.4422  0.0079 -1.1128
 2882TIP3   OH230136   3.302   6.327   2.989  0.0837  0.3784 -0.3747
 2882TIP3    H130137   3.357   6.325   3.068  0.2671  0.5352 -0.4986
 2882TIP3    H230138   3.217   6.360   3.020 -0.6812 -1.9974  0.2689
 2883TIP3   OH230139   5.372   2.634   0.776 -0.3809 -0.4827  0.1808
 2883TIP3    H130140   5.325   2.603   0.853 -2.0113  1.3707  0.0009
 2883TIP3    H230141   5.382   2.728   0.791  0.9946 -0.4106 -1.0117
 2884TIP3   OH230142   3.207   6.183   1.789 -0.2295  0.2646  0.5895
 2884TIP3    H130143   3.150   6.246   1.746 -1.1993  0.1657  1.6735
 2884TIP3    H230144   3.152   6.106   1.803  0.2176  0.0827  1.4557
 2885TIP3   OH230145   6.479   1.501   2.082 -0.6713 -0.3553 -0.4622
 2885TIP3    H130146   6.449   1.472   2.168  0.2162 -0.1376 -0.0621
 2885TIP3    H230147   6.575   1.501   2.089 -0.6057  1.6930 -0.7537
 2886TIP3   OH230148   1.303   2.034  16.867 -0.1030 -0.3590  0.2273
 2886TIP3    H130149   1.237   2.104  16.872  0.1454 -0.1054 -0.0345
 2886TIP3    H230150   1.270   1.966  16.926  0.0276  0.2916  1.0752
 2887TIP3   OH230151   0.746   5.139  17.187 -0.0920 -0.0548  0.2491
 2887TIP3    H130152   0.808   5.073  17.218  0.2675  1.1918  2.3283
 2887TIP3    H230153   0.753   5.210  17.250 -0.2405  2.1535 -2.0710
 2888TIP3   OH230154   2.275   3.333  15.827  0.0706  0.4056 -0.3874
 2888TIP3    H130155   2.360   3.357  15.791  0.5448  0.3948  0.7023
 2888TIP3    H230156   2.294   3.268  15.894 -0.6925  1.1242  0.5568
 2889TIP3   OH230157   4.875   0.168   6.734  0.2947 -0.0289  0.1632
 2889TIP3    H130158   4.873   0.145   6.641  0.3383  0.6088 -0.0020
 2889TIP3    H230159   4.958   0.132   6.766 -0.9954 -2.7664  0.6461
 2890TIP3   OH230160   1.656   5.292  15.469  0.0709  0.4768 -0.5381
 2890TIP3    H130161   1.654   5.357  15.399 -2.3378  0.9820 -0.1180
 2890TIP3    H230162   1.591   5.226  15.442  1.9823 -1.4841 -0.6416
 2891TIP3   OH230163   5.003   3.536  12.092  0.0702  0.7012 -0.0780
 2891TIP3    H130164   5.031   3.546  12.183  1.2622  0.4069 -0.3884
 2891TIP3    H230165   4.961   3.619  12.070  0.6947  1.1654  0.4415
 2892TIP3   OH230166   4.659   1.820   1.618 -0.3189 -0.3395 -0.0783
 2892TIP3    H130167   4.689   1.819   1.709  1.6472  1.0060 -0.6325
 2892TIP3    H230168   4.605   1.742   1.610 -2.1392  0.4566  2.7043
 2893TIP3   OH230169   3.774   1.398  12.932 -0.3689 -0.1030  0.1964
 2893TIP3    H130170   3.806   1.311  12.956  0.7101  0.5053  1.0067
 2893TIP3    H230171   3.781   1.449  13.012  0.9072  1.2730 -0.7468
 2894TIP3   OH230172   1.218   2.275   0.303  0.5623 -0.5674  0.5573
 2894TIP3    H130173   1.265   2.234   0.376 -0.1231  0.3938  1.5714
 2894TIP3    H230174   1.235   2.368   0.313 -1.1387 -0.2393  0.6608
 2895TIP3   OH230175   0.643   3.992   4.676 -0.2937  0.2230 -0.1104
 2895TIP3    H130176   0.548   3.994   4.685 -0.3300  0.1732 -0.4781
 2895TIP3    H230177   0.671   3.918   4.731 -0.5355 -0.2371 -0.5948
 2896TIP3   OH230178   4.507   2.668   2.980  0.6366  0.0610 -0.7079
 2896TIP3    H130179   4.537   2.753   2.949  0.2847 -0.2760 -2.0746
 2896TIP3    H230180   4.575   2.638   3.040 -0.3598  2.3116  1.7515
 2897TIP3   OH230181   4.981   3.187  13.388 -0.0328 -0.0408  0.0465
 2897TIP3    H130182   4.976   3.101  13.430  1.7712  0.8981  2.3792
 2897TIP3    H230183   5.023   3.243  13.453 -0.0322  2.3297 -1.8734
 2898TIP3   OH230184   5.389   4.628   0.734 -0.4067  0.0569  0.3561
 2898TIP3    H130185   5.346   4.698   0.784 -1.0583 -0.4216  0.4827
 2898TIP3    H230186   5.403   4.559   0.798 -0.3956 -0.1970  0.0802
 2899TIP3   OH230187   6.760   1.085  14.402  0.6083  0.8605  0.6136
 2899TIP3    H130188   6.842   1.121  14.369 -0.8430  2.6516 -1.3985
 2899TIP3    H230189   6.693   1.142  14.363 -1.5777 -0.5457  2.1363
 2900TIP3   OH230190   2.993   0.912   2.582 -0.3463  0.8238  0.3657
 2900TIP3    H130191   3.057   0.883   2.518  0.8169  3.3414  0.2692
 2900TIP3    H230192   2.916   0.936   2.530 -0.0870  1.0893  0.1049
 2901TIP3   OH230193   1.424   6.291   1.828  0.0394 -0.2645 -0.6020
 2901TIP3    H130194   1.511   6.264   1.798  0.5692 -1.6769  1.9122
 2901TIP3    H230195   1.423   6.270   1.922 -2.6253  0.7863 -0.2958
 2902TIP3   OH230196   4.414   1.908   0.384 -0.5220  0.2907  0.2429
 2902TIP3    H130197   4.381   1.993   0.356  0.7913  0.3824 -1.1747
 2902TIP3    H230198   4.508   1.920   0.390 -0.3136 -1.0738 -0.0268
 2903TIP3   OH230199   6.539   0.039  12.425  0.1298 -0.4701  0.8919
 2903TIP3    H130200   6.618  -0.014  12.418 -0.0365 -0.5333 -0.8223
 2903TIP3    H230201   6.468  -0.025  12.430  0.0466 -0.4222  0.3807
 2904TIP3   OH230202   5.692   2.376  17.100 -0.4433 -0.0634 -0.2127
 2904TIP3    H130203   5.654   2.339  17.020 -0.9822  0.6314 -0.2883
 2904TIP3    H230204   5.691   2.470  17.086  0.9271 -0.0115 -0.0185
 2905TIP3   OH230205   2.126   1.624  15.200 -0.1635  1.0865  0.2414
 2905TIP3    H130206   2.096   1.582  15.119 -1.6542  1.8067  0.3843
 2905TIP3    H230207   2.140   1.716  15.176  0.3209  1.1040  0.5822
 2906TIP3   OH230208   6.816   2.985  12.271 -0.5299 -0.1755 -0.1611
 2906TIP3    H130209   6.838   3.054  12.333  0.3398  0.3986 -1.0777
 2906TIP3    H230210   6.895   2.932  12.264 -0.6075 -0.2149 -0.8001
 2907TIP3   OH230211   4.597   3.284   0.329 -0.7088 -0.4366 -0.0260
 2907TIP3    H130212   4.570   3.200   0.292  1.1345 -2.4787  2.7589
 2907TIP3    H230213   4.688   3.294   0.302  0.6436 -1.9115  3.3206
 2908TIP3   OH230214   0.376   2.354   5.701  0.4375 -0.3304 -0.6917
 2908TIP3    H130215   0.420   2.435   5.726 -0.8734  0.6635 -1.4513
 2908TIP3    H230216   0.283   2.375   5.706  0.0800 -1.2918 -2.4419
 2909TIP3   OH230217   0.299   2.676   2.985  0.3881 -0.4835  0.1429
 2909TIP3    H130218   0.285   2.745   3.050  0.3075  1.6304 -1.9895
 2909TIP3    H230219   0.290   2.720   2.900  1.4296 -2.9059 -1.3387
 2910TIP3   OH230220   0.641   6.183  16.274 -0.7809 -0.2399  0.2739
 2910TIP3    H130221   0.691   6.153  16.350  2.3598  3.1390 -0.1621
 2910TIP3    H230222   0.604   6.267  16.302  0.1645  0.9196 -1.7793
 2911TIP3   OH230223   1.333   5.237  14.580 -0.0834 -0.4825  0.2046
 2911TIP3    H130224   1.261   5.203  14.528 -0.6161  1.4150 -0.3849
 2911TIP3    H230225   1.312   5.330  14.593  1.4445 -0.2566  1.4046
 2912TIP3   OH230226   1.969   0.769  13.094  0.5185  0.0293  0.0276
 2912TIP3    H130227   1.952   0.683  13.131  1.3889 -0.4277 -0.5915
 2912TIP3    H230228   2.007   0.751  13.008 -0.5360  1.0560 -0.6727
 2913TIP3   OH230229   1.566   5.633  11.638 -0.6225  0.1200 -0.1592
 2913TIP3    H130230   1.621   5.604  11.711 -2.1196 -3.7505 -0.3289
 2913TIP3    H230231   1.619   5.618  11.560  0.1920  2.2432 -0.0805
 2914TIP3   OH230232   3.181   4.049   2.733 -0.2784 -0.0427  0.1427
 2914TIP3    H130233   3.147   4.123   2.682 -0.3133  0.1753  0.4804
 2914TIP3    H230234   3.139   4.057   2.819  1.4246  0.8720  0.9396
 2915TIP3   OH230235   3.186   0.319  11.087  0.3299  0.3592  0.3897
 2915TIP3    H130236   3.209   0.295  10.997  0.4969  0.5759  0.3733
 2915TIP3    H230237   3.254   0.280  11.141 -1.0665 -1.8277  0.6599
 2916TIP3   OH230238   6.066   3.363   5.480  0.6948  0.0575  0.2361
 2916TIP3    H130239   5.975   3.374   5.506  0.0274 -0.6747 -1.6486
 2916TIP3    H230240   6.077   3.417   5.402  1.3646 -1.1845 -0.5705
 2917TIP3   OH230241   3.154   6.053   2.153  0.4431  0.2322 -0.4371
 2917TIP3    H130242   3.135   5.963   2.126  0.4850 -0.2125  0.9503
 2917TIP3    H230243   3.068   6.092   2.169  0.4672 -0.0786  0.5216
 2918TIP3   OH230244   5.029   3.053  13.165  0.2759 -0.2533  0.1949
 2918TIP3    H130245   5.044   2.967  13.206  2.3401 -0.3829 -0.7243
 2918TIP3    H230246   5.020   3.113  13.239  0.6972 -0.9623  0.8445
 2919TIP3   OH230247   0.282   2.043  14.955  0.0385 -0.1128 -0.0262
 2919TIP3    H130248   0.201   2.085  14.982 -0.1593  0.4233 -1.3711
 2919TIP3    H230249   0.255   1.976  14.891  0.7349  1.1426 -1.7225
 2920TIP3   OH230250   2.266   6.124   0.120 -0.3401  0.0447  0.0883
 2920TIP3    H130251   2.349   6.094   0.082 -0.5960  0.4120 -0.7941
 2920TIP3    H230252   2.252   6.067   0.195  0.3642 -0.4891 -0.1744
 2921TIP3   OH230253   6.584   1.646  12.153 -0.3612  0.0216 -0.2072
 2921TIP3    H130254   6.508   1.696  12.184 -0.6800 -0.1864 -0.6497
 2921TIP3    H230255   6.570   1.637  12.059  1.7507  2.7235 -0.9257
 2922TIP3   OH230256   2.570   0.211   3.321 -0.4531 -0.0624 -0.2800
 2922TIP3    H130257   2.539   0.125   3.293  0.8416 -0.6051 -0.1063
 2922TIP3    H230258   2.550   0.270   3.248  0.2896 -0.8813 -1.1577
 2923TIP3   OH230259   2.245   1.520  11.419 -0.3912 -0.0974 -0.1266
 2923TIP3    H130260   2.277   1.453  11.358  0.6897 -0.9109  1.2592
 2923TIP3    H230261   2.323   1.546  11.468 -1.1655  0.7635  0.6851
 2924TIP3   OH230262   3.626   1.287  13.503 -0.3353 -0.0926 -0.3423
 2924TIP3    H130263   3.639   1.375  13.539 -1.3231 -0.1158  0.0824
 2924TIP3    H230264   3.697   1.277  13.439 -1.0606  1.5974 -1.4840
 2925TIP3   OH230265   5.380   6.159  12.641 -0.2441 -0.6849  0.3117
 2925TIP3    H130266   5.341   6.138  12.726 -1.9741  1.9961  0.2883
 2925TIP3    H230267   5.376   6.077  12.592 -3.1950 -1.2845  1.3652
 2926TIP3   OH230268   1.166   1.100  15.162 -0.2389 -0.1707  0.3492
 2926TIP3    H130269   1.078   1.106  15.124 -0.1183  0.8699  0.1980
 2926TIP3    H230270   1.169   1.014  15.203 -0.6022 -1.0784 -1.4469
 2927TIP3   OH230271   5.599   3.992  15.033 -0.2337  0.1345 -0.0123
 2927TIP3    H130272   5.532   4.031  15.089 -0.8752 -0.6371 -0.2289
 2927TIP3    H230273   5.653   3.940  15.092  1.6205  2.5343  0.5707
 2928TIP3   OH230274   1.283   5.409  13.302 -0.0326  0.0908 -0.9946
 2928TIP3    H130275   1.211   5.472  13.302  0.0959  0.2966  0.7942
 2928TIP3    H230276   1.244   5.328  13.270 -0.8734  0.3969 -0.7737
 2929TIP3   OH230277   5.173   4.418   4.144 -0.3551  0.0840 -0.1117
 2929TIP3    H130278   5.262   4.404   4.177 -0.6906  0.4377  0.9597
 2929TIP3    H230279   5.139   4.490   4.197 -1.9376 -1.2412  0.7475
 2930TIP3   OH230280   1.307   3.194  14.087  0.2060  0.0275 -0.0966
 2930TIP3    H130281   1.327   3.192  13.994  1.0871 -4.0915 -0.0269
 2930TIP3    H230282   1.213   3.176  14.092  0.4212 -1.2045 -0.2227
 2931TIP3   OH230283   3.003   2.419   3.269  0.0860  0.0110  0.3741
 2931TIP3    H130284   2.976   2.381   3.185 -0.8886  0.3221  0.5331
 2931TIP3    H230285   3.001   2.346   3.331  0.9184 -0.2433  0.1160
 2932TIP3   OH230286   3.237   0.469   3.082 -0.1831  0.7987  0.3797
 2932TIP3    H130287   3.156   0.437   3.043 -0.1844  2.0387 -0.7014
 2932TIP3    H230288   3.294   0.487   3.007  1.4205 -0.8124  1.1329
 2933TIP3   OH230289   0.022   4.209   3.011 -0.5634 -0.1442  0.0783
 2933TIP3    H130290  -0.072   4.214   3.029 -0.9327  0.1424 -1.7373
 2933TIP3    H230291   0.030   4.235   2.920  1.1261 -1.7146 -0.2717
 2934TIP3   OH230292   4.341   3.025   1.940 -0.2975 -0.2243  0.1828
 2934TIP3    H130293   4.331   3.092   1.872  0.4064 -2.8720 -2.7338
 2934TIP3    H230294   4.255   2.984   1.947  0.0194 -1.0001 -0.3190
 2935TIP3   OH230295   1.556   5.451  12.459 -0.6452  0.2085 -0.2124
 2935TIP3    H130296   1.547   5.542  12.433 -2.0608 -0.1663 -1.2111
 2935TIP3    H230297   1.515   5.402  12.387  0.1852 -1.2161  0.2409
 2936TIP3   OH230298   4.426   2.488  16.481  0.1953  0.1664 -0.2827
 2936TIP3    H130299   4.481   2.410  16.492 -0.8529 -0.5168  0.3088
 2936TIP3    H230300   4.379   2.495  16.564 -0.0839  1.1454 -0.5191
 2937TIP3   OH230301   4.562   1.111   1.416  0.2085 -0.1636  0.1799
 2937TIP3    H130302   4.623   1.142   1.483  1.8349 -0.6903 -0.9825
 2937TIP3    H230303   4.618   1.089   1.341 -1.5070  0.2021 -1.2896
 2938TIP3   OH230304   4.233   1.860   4.679  0.3639  0.3921  0.1938
 2938TIP3    H130305   4.252   1.786   4.737 -0.7605  0.6417  0.9104
 2938TIP3    H230306   4.312   1.914   4.683 -0.4974  1.6401  3.4437
 2939TIP3   OH230307   2.730   1.759   2.861  0.5065  0.0238  0.7704
 2939TIP3    H130308   2.714   1.742   2.954  0.5556 -1.3025  0.5477
 2939TIP3    H230309   2.665   1.706   2.816  1.8162 -0.9538 -0.0066
 2940TIP3   OH230310   1.490   3.045  14.557  0.4952  0.1262 -0.1903
 2940TIP3    H130311   1.518   3.045  14.465  1.4903  0.1262  0.0993
 2940TIP3    H230312   1.440   3.125  14.567  1.4571  0.7701 -0.4254
 2941TIP3   OH230313   6.549   3.529   5.562 -0.0646  0.5648  0.0319
 2941TIP3    H130314   6.520   3.610   5.519  0.8074 -0.7815 -3.3952
 2941TIP3    H230315   6.471   3.474   5.564  0.1184  0.2756 -0.7337
 2942TIP3   OH230316   3.947   1.961  16.407  0.4677  0.4155  0.0491
 2942TIP3    H130317   3.910   2.027  16.349  1.0063 -0.3893 -1.2559
 2942TIP3    H230318   4.042   1.976  16.403  0.7256 -1.2495 -1.3586
 2943TIP3   OH230319   5.896   4.997   3.125  0.3599 -0.1898 -0.3423
 2943TIP3    H130320   5.899   4.937   3.050 -0.0180 -1.2824  0.4787
 2943TIP3    H230321   5.901   4.939   3.201  2.0727  0.9818  0.4830
 2944TIP3   OH230322   3.018   3.612   5.196  0.0790 -0.0747  0.2495
 2944TIP3    H130323   3.053   3.680   5.139 -1.1391 -0.6171 -1.1913
 2944TIP3    H230324   2.956   3.658   5.252  0.0715  0.1885  0.0261
 2945TIP3   OH230325   1.663   0.362  17.188 -0.2765 -0.0926  0.2803
 2945TIP3    H130326   1.741   0.351  17.134  0.2292  0.1233  0.9456
 2945TIP3    H230327   1.696   0.356  17.278 -0.6523  2.1489  0.6227
 2946TIP3   OH230328   1.566   1.003   2.312  0.0553  0.4582 -0.2887
 2946TIP3    H130329   1.647   1.024   2.266  0.1426  1.4981  0.3267
 2946TIP3    H230330   1.590   0.932   2.372  0.5240  0.8233 -0.0458
 2947TIP3   OH230331   5.851   4.119   5.509 -0.2306 -0.5893 -0.1605
 2947TIP3    H130332   5.846   4.109   5.414 -0.3539 -0.5338 -0.1601
 2947TIP3    H230333   5.852   4.214   5.524  1.3745 -0.5630 -0.1867
 2948TIP3   OH230334   6.116   3.322   3.342 -0.5331  0.0438  0.0303
 2948TIP3    H130335   6.037   3.310   3.394 -1.9106  1.6647 -1.5312
 2948TIP3    H230336   6.085   3.320   3.251  1.6586 -2.0050 -0.7941
 2949TIP3   OH230337   4.288   3.596  11.628  0.6186 -0.2321 -0.0333
 2949TIP3    H130338   4.262   3.572  11.717 -0.7017 -0.7844 -0.5544
 2949TIP3    H230339   4.223   3.661  11.601 -0.2214 -1.5731 -1.3338
 2950TIP3   OH230340   5.273   0.000  15.585 -0.1302 -0.6321 -0.2931
 2950TIP3    H130341   5.188   0.022  15.545 -1.0089 -1.9386  0.7656
 2950TIP3    H230342   5.273  -0.095  15.590 -1.4915 -0.6713  5.4004
 2951TIP3   OH230343   6.696   4.231   1.321 -0.2360 -0.5552 -0.0155
 2951TIP3    H130344   6.734   4.154   1.365  3.7026  0.2272 -1.6206
 2951TIP3    H230345   6.615   4.199   1.282 -0.3708 -3.0005  1.9854
 2952TIP3   OH230346   2.892   2.143   3.705 -0.0290  0.0100 -0.0718
 2952TIP3    H130347   2.808   2.131   3.661  0.6700 -3.0146 -0.8618
 2952TIP3    H230348   2.882   2.096   3.788  0.7632 -0.0717 -0.0132
 2953TIP3   OH230349   1.996   1.628   6.212  0.2667  0.1386 -0.6053
 2953TIP3    H130350   1.992   1.559   6.145  1.4187 -0.1480 -0.3952
 2953TIP3    H230351   1.949   1.592   6.287  1.0876 -0.5392 -0.4034
 2954TIP3   OH230352   3.289   1.614  14.502  0.8882 -0.2965 -0.1670
 2954TIP3    H130353   3.199   1.646  14.508  1.0418  0.2255 -0.5524
 2954TIP3    H230354   3.306   1.576  14.588  1.0436  1.6172  0.7083
 2955TIP3   OH230355   1.753   0.159  11.204  0.3192  0.2699  0.3714
 2955TIP3    H130356   1.727   0.251  11.214 -0.6916  0.3307 -2.0729
 2955TIP3    H230357   1.792   0.155  11.117  0.3168 -1.6408  0.4252
 2956TIP3   OH230358   3.616   2.281  13.232  0.2099 -0.2670 -0.2312
 2956TIP3    H130359   3.587   2.369  13.256  2.7393  1.0327 -1.4879
 2956TIP3    H230360   3.555   2.222  13.276 -2.6239  2.1053 -0.6597
 2957TIP3   OH230361   5.353   6.531   0.320  0.0161  0.1434  0.3366
 2957TIP3    H130362   5.326   6.614   0.359 -0.1131  1.3363 -2.0864
 2957TIP3    H230363   5.421   6.555   0.258 -0.3004 -1.5015 -0.7159
 2958TIP3   OH230364   4.674   3.756   5.854 -0.8330  0.2123  0.0923
 2958TIP3    H130365   4.596   3.720   5.897 -3.0036  1.4047 -2.5886
 2958TIP3    H230366   4.668   3.724   5.764  1.7644  0.4445 -0.2204
 2959TIP3   OH230367   1.400   0.169   1.752 -0.0773 -0.4076 -0.2831
 2959TIP3    H130368   1.427   0.221   1.676 -1.3155  0.5972 -0.0751
 2959TIP3    H230369   1.463   0.097   1.756 -0.1982 -0.7049 -2.4789
 2960TIP3   OH230370   1.150   4.797   2.130 -0.0292  0.0014  0.0095
 2960TIP3    H130371   1.151   4.781   2.225 -0.1056  0.3156  0.0629
 2960TIP3    H230372   1.086   4.867   2.118 -1.3790 -1.2411 -0.4615
 2961TIP3   OH230373   3.895   0.690   3.304  1.6367 -0.4174  0.0237
 2961TIP3    H130374   3.874   0.597   3.297 -2.4091  0.2609  0.3089
 2961TIP3    H230375   3.983   0.699   3.270  0.9929 -3.9045 -3.0712
 2962TIP3   OH230376   3.653   6.391   4.905  0.3629  0.3840 -0.2815
 2962TIP3    H130377   3.691   6.421   4.823 -2.8144  0.9910 -1.6567
 2962TIP3    H230378   3.600   6.464   4.936 -1.1149 -0.9839  0.5682
 2963TIP3   OH230379   1.445   0.861   1.176  0.1518  0.2627 -0.5837
 2963TIP3    H130380   1.429   0.773   1.144  1.6633 -0.8406  1.4973
 2963TIP3    H230381   1.535   0.881   1.151  0.2557  0.6847  0.0829
 2964TIP3   OH230382   4.023   6.773   2.089  0.0569 -0.7292 -0.2372
 2964TIP3    H130383   3.938   6.786   2.131 -0.4723 -0.2801 -1.4148
 2964TIP3    H230384   4.052   6.688   2.122 -0.3845 -0.4533  0.9377
 2965TIP3   OH230385   0.948   4.487  12.488 -0.4709  0.7828 -0.3985
 2965TIP3    H130386   0.867   4.504  12.535 -0.7240 -0.3817 -0.3944
 2965TIP3    H230387   0.997   4.569  12.495 -1.2729  1.2157  0.3321
 2966TIP3   OH230388   2.430   5.295  13.542 -0.2294 -0.5793  0.0114
 2966TIP3    H130389   2.368   5.221  13.545 -0.1014 -0.7134 -0.5103
 2966TIP3    H230390   2.449   5.306  13.449  1.7211 -1.5307  0.2519
 2967TIP3   OH230391   4.585   0.757  11.642  0.2541 -0.1362  0.1697
 2967TIP3    H130392   4.662   0.814  11.640  1.3430 -1.5156  1.1334
 2967TIP3    H230393   4.579   0.721  11.553  2.3937 -2.1016  0.7392
 2968TIP3   OH230394   0.201   2.595  13.004  0.6777 -0.0457  1.0769
 2968TIP3    H130395   0.239   2.526  13.060  0.6834 -1.1002 -0.1845
 2968TIP3    H230396   0.118   2.617  13.047  1.5372  0.5251  2.5150
 2969TIP3   OH230397   5.077   0.103   4.803  0.1859  0.3247  0.5942
 2969TIP3    H130398   5.060   0.072   4.714 -0.9543 -0.3524  1.0209
 2969TIP3    H230399   5.087   0.198   4.795  0.6409  0.2051 -0.3215
 2970TIP3   OH230400   5.717   3.518  16.681 -0.0326  0.5450 -0.1581
 2970TIP3    H130401   5.802   3.502  16.722  0.3261  0.5055 -0.9062
 2970TIP3    H230402   5.679   3.590  16.732 -0.5152 -0.8462  1.5713
 2971TIP3   OH230403   0.486   1.689  14.355  0.1539 -0.1939  0.2203
 2971TIP3    H130404   0.530   1.672  14.438  0.2921  1.5993  0.5665
 2971TIP3    H230405   0.557   1.715  14.295 -0.1811  0.7458  0.2127
 2972TIP3   OH230406   0.149   0.060  14.834 -0.3998  0.1467 -0.0450
 2972TIP3    H130407   0.177  -0.006  14.896 -3.8345 -0.5500  0.9712
 2972TIP3    H230408   0.108   0.011  14.763  0.6234  1.0933 -1.3603
 2973TIP3   OH230409   0.495   1.149   1.939 -0.1120 -0.2655  0.1741
 2973TIP3    H130410   0.402   1.136   1.957 -0.4946  1.0531 -0.6900
 2973TIP3    H230411   0.539   1.077   1.984 -1.5364 -0.8296  0.7076
 2974TIP3   OH230412   2.502   2.829   4.628  0.0177 -0.0346 -0.4628
 2974TIP3    H130413   2.436   2.761   4.630 -1.1441  1.0449 -0.7581
 2974TIP3    H230414   2.582   2.785   4.601 -0.5060 -1.4215  0.1785
 2975TIP3   OH230415   3.847   1.221   4.648  0.0515 -0.3760  0.0460
 2975TIP3    H130416   3.787   1.284   4.688 -1.0029 -0.8824 -0.6885
 2975TIP3    H230417   3.842   1.238   4.554 -2.2521 -3.1520 -0.4747
 2976TIP3   OH230418   1.565   0.868  16.545  0.2736 -0.0101  0.0919
 2976TIP3    H130419   1.558   0.812  16.467  0.3949 -0.3029  0.2918
 2976TIP3    H230420   1.658   0.886  16.553 -0.0120  2.9786 -1.9236
 2977TIP3   OH230421   1.506   1.569  17.165  0.8673 -0.4317  0.3290
 2977TIP3    H130422   1.499   1.626  17.088  1.5630 -0.3784  0.2985
 2977TIP3    H230423   1.493   1.481  17.130 -1.1247 -0.2436  0.5214
 2978TIP3   OH230424   4.457   4.071   0.375 -0.1389  0.7397 -0.2897
 2978TIP3    H130425   4.456   3.986   0.329 -1.5505 -0.1711  1.3055
 2978TIP3    H230426   4.550   4.093   0.382  0.3923 -1.4586  0.5652
 2979TIP3   OH230427   6.167   5.305  15.450  0.3747  0.0030 -0.0581
 2979TIP3    H130428   6.179   5.211  15.461 -3.6130 -0.5581  0.7424
 2979TIP3    H230429   6.190   5.343  15.535  1.6199 -0.2130 -0.2716
 2980TIP3   OH230430   5.426   1.484   3.099 -0.5452  0.1890  0.4655
 2980TIP3    H130431   5.389   1.396   3.114  0.2933 -0.2849 -0.1605
 2980TIP3    H230432   5.389   1.510   3.015 -1.7257  0.9591  1.1889
 2981TIP3   OH230433   5.414   3.671   5.324 -0.5756 -0.0780  0.1443
 2981TIP3    H130434   5.330   3.713   5.306 -0.1517  0.0604 -1.7286
 2981TIP3    H230435   5.438   3.702   5.411 -1.5400  1.4224 -0.0918
 2982TIP3   OH230436   2.787   0.930  14.700  0.2332 -0.5651  0.0044
 2982TIP3    H130437   2.856   0.980  14.656  0.2751 -0.4936  0.1540
 2982TIP3    H230438   2.791   0.844  14.658 -0.5363 -0.1308 -0.9759
 2983TIP3   OH230439   3.938   4.446  12.982 -0.1313 -0.5147 -0.1096
 2983TIP3    H130440   3.885   4.430  12.904 -1.1251  0.1268  0.4076
 2983TIP3    H230441   3.932   4.541  12.996 -0.1029 -0.6437  0.8352
 2984TIP3   OH230442   4.536   6.222  12.843  0.3247 -0.4872  0.4168
 2984TIP3    H130443   4.601   6.187  12.783  0.1668  0.0217 -0.0647
 2984TIP3    H230444   4.587   6.271  12.908  0.4314 -0.1236  0.0643
 2985TIP3   OH230445   2.102   6.344  16.168  0.2553  0.4668  0.6104
 2985TIP3    H130446   2.121   6.313  16.079 -0.3325 -2.2044  1.3152
 2985TIP3    H230447   2.032   6.409  16.156 -1.4856 -1.5256 -0.7979
 2986TIP3   OH230448   4.513   0.555   1.815  0.5147  0.0305 -0.4792
 2986TIP3    H130449   4.450   0.496   1.775  0.4414  0.0405 -0.3780
 2986TIP3    H230450   4.482   0.643   1.793 -1.0661  0.1547  1.8488
 2987TIP3   OH230451   4.289   1.940  16.958  0.0919  0.0272  0.3173
 2987TIP3    H130452   4.302   1.958  17.052  0.7667  0.9671  0.0631
 2987TIP3    H230453   4.224   1.870  16.956 -0.5767  0.5764  1.4698
 2988TIP3   OH230454   3.041   4.313   3.811 -0.3057 -0.2994 -0.5271
 2988TIP3    H130455   3.078   4.384   3.864 -0.2870  0.7375 -1.8920
 2988TIP3    H230456   2.968   4.280   3.864  1.4893 -1.3236  1.4900
 2989TIP3   OH230457   5.014   6.376  13.897 -0.3973  0.0413  0.4190
 2989TIP3    H130458   5.042   6.291  13.931 -0.4753 -0.3349 -0.4421
 2989TIP3    H230459   5.062   6.387  13.815 -2.5570 -0.5431 -1.0052
 2990TIP3   OH230460   3.227   3.110   2.303 -0.2501 -0.3107  0.2603
 2990TIP3    H130461   3.293   3.042   2.316  0.1208 -0.1770 -0.8111
 2990TIP3    H230462   3.231   3.129   2.209 -1.6725 -0.1462  0.2230
 2991TIP3   OH230463   1.359   3.650  13.091 -0.1958  0.2433 -0.4534
 2991TIP3    H130464   1.309   3.620  13.015 -0.0827  1.2807 -0.9589
 2991TIP3    H230465   1.432   3.699  13.053 -0.7879  1.7764  0.3390
 2992TIP3   OH230466   5.240   4.067  15.000  0.1881 -0.3743 -0.3238
 2992TIP3    H130467   5.281   4.040  14.918  0.1259 -1.1859 -0.0961
 2992TIP3    H230468   5.307   4.053  15.067  0.5034  1.0188 -0.3263
 2993TIP3   OH230469   6.375   0.756  15.108  0.5712  0.1584 -0.1882
 2993TIP3    H130470   6.468   0.752  15.085  0.8214 -0.9113  0.9281
 2993TIP3    H230471   6.373   0.802  15.192  0.1746 -0.5872  0.2161
 2994TIP3   OH230472   4.881   0.740   0.524  0.2451  0.0700  0.1681
 2994TIP3    H130473   4.952   0.685   0.491  0.4413  0.3486  0.1250
 2994TIP3    H230474   4.819   0.678   0.564  1.1723 -0.0666  1.4311
 2995TIP3   OH230475   2.902   5.696   6.260  0.0083  0.5004  0.2533
 2995TIP3    H130476   2.921   5.697   6.354 -0.7279  0.5231  0.4069
 2995TIP3    H230477   2.817   5.653   6.254 -0.5431  1.6437 -0.2969
 2996TIP3   OH230478   6.120   1.856  16.781 -0.2451  0.4311 -0.8203
 2996TIP3    H130479   6.131   1.795  16.854  1.6585  2.4604  0.7322
 2996TIP3    H230480   6.028   1.879  16.783 -0.2618  0.3475  0.9153
 2997TIP3   OH230481   4.533   5.996   4.068 -0.2993  0.3005 -0.1107
 2997TIP3    H130482   4.583   6.026   4.144  3.3999  1.0622 -2.5438
 2997TIP3    H230483   4.497   5.912   4.094  2.1821 -0.2298  2.0132
 2998TIP3   OH230484   2.388   3.523  12.816  0.5093 -0.3493 -0.6515
 2998TIP3    H130485   2.430   3.553  12.897 -0.3732 -0.1327 -0.2535
 2998TIP3    H230486   2.332   3.596  12.790  0.6414 -0.4940 -1.3630
 2999TIP3   OH230487   3.639   4.708   1.031  0.5867  0.3185 -0.0443
 2999TIP3    H130488   3.600   4.726   0.945  2.3312  1.5916 -0.6309
 2999TIP3    H230489   3.642   4.794   1.074 -1.6661 -0.4965  1.9853
 3000TIP3   OH230490   1.996   0.821   4.904  0.6827 -0.0318  0.4394
 3000TIP3    H130491   2.040   0.862   4.978  1.8538 -0.5087  0.0349
 3000TIP3    H230492   2.063   0.764   4.865 -0.6443 -1.6909  0.4862
 3001TIP3   OH230493   4.755   2.661  11.909  0.5986 -0.5532 -0.0817
 3001TIP3    H130494   4.722   2.578  11.943  2.2906 -0.9287  0.7525
 3001TIP3    H230495   4.770   2.715  11.986 -0.2484  0.4782 -0.5977
 3002TIP3   OH230496   0.853   2.220  13.647  0.6483  0.0644  0.1596
 3002TIP3    H130497   0.811   2.228  13.561  1.0827  0.7042 -0.0030
 3002TIP3    H230498   0.933   2.169  13.629  0.4773 -0.2498  0.2818
 3003TIP3   OH230499   3.796   2.093  16.643  0.1561 -0.3206 -0.0781
 3003TIP3    H130500   3.854   2.037  16.592  2.0473  2.1330 -0.8456
 3003TIP3    H230501   3.725   2.116  16.583  0.5520 -0.1507 -0.4812
 3004TIP3   OH230502   6.148   5.767   5.272  0.3564  0.0342  0.0502
 3004TIP3    H130503   6.205   5.769   5.348 -0.5374  0.0307  0.7345
 3004TIP3    H230504   6.189   5.826   5.209  0.0821  1.5726  1.2787
 3005TIP3   OH230505   6.412   2.774  16.948  0.4795  0.0993  0.2417
 3005TIP3    H130506   6.402   2.830  17.025 -0.8080  0.2142  0.0227
 3005TIP3    H230507   6.323   2.765  16.914  1.0919  0.6255 -1.6430
 3006TIP3   OH230508   5.044   1.973  14.054  0.2084  0.6561 -1.1449
 3006TIP3    H130509   5.111   1.954  14.120 -2.4913 -0.4277  1.5146
 3006TIP3    H230510   5.051   2.067  14.039  1.4809  0.7877  0.0409
 3007TIP3   OH230511   5.807   1.792  17.222 -0.1414 -0.0829 -0.2361
 3007TIP3    H130512   5.833   1.874  17.180  2.8536  0.8470  2.9807
 3007TIP3    H230513   5.870   1.727  17.190 -1.3444 -0.7614 -1.3345
 3008TIP3   OH230514   4.802   3.384  15.167 -0.0698  0.2936 -0.0205
 3008TIP3    H130515   4.839   3.296  15.160 -1.3926 -0.2957  0.2407
 3008TIP3    H230516   4.878   3.442  15.163  0.6368 -0.6790 -3.1583
 3009TIP3   OH230517   5.701   2.892  13.151 -0.2796 -0.7486 -0.5198
 3009TIP3    H130518   5.769   2.905  13.085 -0.0202 -0.0400 -0.1225
 3009TIP3    H230519   5.657   2.977  13.158  0.5435 -0.4137  1.1405
 3010TIP3   OH230520   1.144   3.025  10.720 -0.4868  0.3332 -0.0822
 3010TIP3    H130521   1.135   2.930  10.733  0.5544  0.1532 -0.5746
 3010TIP3    H230522   1.226   3.047  10.763  1.0013  0.4047 -2.7257
 3011TIP3   OH230523   5.647   2.021   0.223 -0.1255  0.5021 -0.6910
 3011TIP3    H130524   5.612   2.095   0.173 -0.9290  0.9702  0.5133
 3011TIP3    H230525   5.693   2.063   0.296 -1.5297 -0.1709  0.6325
 3012TIP3   OH230526   3.960   0.991   4.410 -0.3987 -0.2274 -0.4548
 3012TIP3    H130527   4.044   1.035   4.416 -0.9682  1.2532 -2.3638
 3012TIP3    H230528   3.904   1.034   4.475  0.0145 -0.5574  0.1287
 3013TIP3   OH230529   1.273   2.377  13.279  0.0987 -0.4896  0.3094
 3013TIP3    H130530   1.294   2.328  13.200 -4.1606 -1.5381 -0.4018
 3013TIP3    H230531   1.248   2.464  13.247  2.1122  0.4047  1.0061
 3014TIP3   OH230532   3.987   6.675   3.773 -1.0410  0.2444 -0.0733
 3014TIP3    H130533   3.973   6.674   3.868 -0.9700  1.6479 -0.0247
 3014TIP3    H230534   3.982   6.583   3.747  0.4776 -0.3591  1.5116
 3015TIP3   OH230535   5.615   6.349   4.957 -0.0439 -0.1788  0.0995
 3015TIP3    H130536   5.531   6.329   4.915 -0.0158 -1.7360  0.7203
 3015TIP3    H230537   5.595   6.423   5.014 -0.7620  0.0986 -0.4883
 3016TIP3   OH230538   4.531   5.103   0.670 -1.0810 -0.4515  0.3666
 3016TIP3    H130539   4.531   5.036   0.738 -0.3375 -0.7902  0.0444
 3016TIP3    H230540   4.613   5.151   0.684 -1.5914  0.3839  0.5770
 3017TIP3   OH230541   2.833   5.730  15.307  0.3867 -0.6307 -0.0041
 3017TIP3    H130542   2.778   5.727  15.228 -1.5551 -0.3684  1.2575
 3017TIP3    H230543   2.832   5.641  15.340  2.6842 -1.1508 -1.1731
 3018TIP3   OH230544   3.314   6.526   1.403 -0.0529 -0.3145  0.2948
 3018TIP3    H130545   3.328   6.620   1.412  0.4021 -0.4310  0.8629
 3018TIP3    H230546   3.338   6.490   1.488 -0.7911 -0.8834  0.2784
 3019TIP3   OH230547   5.696   4.718  15.983  0.3643  0.2390 -0.6742
 3019TIP3    H130548   5.624   4.687  15.927  0.6390  0.1828 -0.9986
 3019TIP3    H230549   5.664   4.703  16.072  0.5012 -1.0489 -0.8134
 3020TIP3   OH230550   3.864   2.140   0.531 -0.5655  0.1546  0.5392
 3020TIP3    H130551   3.768   2.138   0.527 -0.5444 -0.0259 -0.0728
 3020TIP3    H230552   3.888   2.058   0.573 -0.7217  0.9055  2.1853
 3021TIP3   OH230553   5.268   1.982   0.313  0.1262  0.1107 -0.0303
 3021TIP3    H130554   5.346   1.928   0.318  1.5062  1.8042 -1.6111
 3021TIP3    H230555   5.282   2.051   0.379 -0.2199  0.2092 -0.0561
 3022TIP3   OH230556   1.188   3.892  13.859 -0.3398  0.0328 -0.6635
 3022TIP3    H130557   1.248   3.835  13.811  1.7500  1.1796  0.4736
 3022TIP3    H230558   1.130   3.927  13.792  0.9266 -0.3026 -1.9848
 3023TIP3   OH230559   4.822   0.266   3.207  0.2636  0.5359 -0.1455
 3023TIP3    H130560   4.897   0.227   3.162  0.6512  0.5125  0.5120
 3023TIP3    H230561   4.746   0.238   3.156  0.6341 -0.1179 -0.3403
 3024TIP3   OH230562   6.631   1.666  13.578 -0.6554 -0.3502 -0.1070
 3024TIP3    H130563   6.669   1.586  13.614 -1.8376 -0.5614  0.7083
 3024TIP3    H230564   6.579   1.636  13.503 -1.2510 -0.3761  0.3130
 3025TIP3   OH230565   0.983   3.422  10.429 -0.2262 -0.3696 -0.3019
 3025TIP3    H130566   1.059   3.474  10.455 -1.4455  1.4703 -0.1692
 3025TIP3    H230567   0.993   3.339  10.475  1.3532  0.0834  0.2349
 3026TIP3   OH230568   6.453   4.760  15.684  0.0479  0.4880 -0.0819
 3026TIP3    H130569   6.397   4.827  15.721  1.0706  0.2109  2.1565
 3026TIP3    H230570   6.520   4.808  15.635 -0.3104  0.9753 -0.0938
 3027TIP3   OH230571   5.283   6.470  12.096  0.0597 -0.0824  0.2410
 3027TIP3    H130572   5.353   6.457  12.160  1.6627 -1.6234 -1.7071
 3027TIP3    H230573   5.223   6.397  12.113  0.7793 -0.8271 -0.3516
 3028TIP3   OH230574   6.746   1.521   2.055 -0.9777  0.5279 -0.1090
 3028TIP3    H130575   6.795   1.492   1.978 -2.1999  2.1445 -1.6030
 3028TIP3    H230576   6.796   1.595   2.089 -0.6038  0.0116  0.4770
 3029TIP3   OH230577   6.230   6.381  15.247  0.1083  0.4901 -0.1143
 3029TIP3    H130578   6.235   6.387  15.342 -0.5291  3.9693 -0.1525
 3029TIP3    H230579   6.137   6.368  15.228  0.1235  0.5924 -0.2634
 3030TIP3   OH230580   2.474   6.604  12.948  0.1134  0.8295  0.2073
 3030TIP3    H130581   2.472   6.509  12.959  0.8701  0.8054  0.1643
 3030TIP3    H230582   2.381   6.630  12.948 -0.1100  0.0542 -0.1624
 3031TIP3   OH230583   5.015   1.130   3.496  0.6358 -0.6232  0.1261
 3031TIP3    H130584   4.967   1.208   3.524  1.0600 -0.6553  0.9907
 3031TIP3    H230585   5.107   1.157   3.499  0.7025 -0.6043 -1.3523
 3032TIP3   OH230586   0.504   4.229   3.876 -0.0205 -0.0784  0.0061
 3032TIP3    H130587   0.567   4.158   3.863  0.6241  0.3057  0.9104
 3032TIP3    H230588   0.420   4.185   3.886  0.6385 -0.9537  2.7645
 3033TIP3   OH230589   0.806   5.247  12.511  0.1051 -0.1866 -0.0622
 3033TIP3    H130590   0.806   5.243  12.607 -2.5909  2.3107  0.1859
 3033TIP3    H230591   0.713   5.254  12.488  0.7471  0.3560 -2.8015
 3034TIP3   OH230592   2.722   1.649  16.694  0.1813  0.4952  0.4202
 3034TIP3    H130593   2.680   1.569  16.662  0.3791 -0.0465  1.4809
 3034TIP3    H230594   2.716   1.710  16.620 -1.2119 -0.0296  0.0747
 3035TIP3   OH230595   5.923   2.725   5.035  0.3860 -0.2194 -0.3762
 3035TIP3    H130596   5.861   2.677   4.980 -0.0117  0.5436 -0.6048
 3035TIP3    H230597   5.873   2.745   5.115  1.2433 -2.1788  0.7429
 3036TIP3   OH230598   0.170   5.729  12.755  0.2643 -0.0295 -0.2564
 3036TIP3    H130599   0.085   5.773  12.764  0.0125 -0.2130 -1.5362
 3036TIP3    H230600   0.231   5.800  12.736  0.1061 -0.0718 -0.9359
 3037TIP3   OH230601   6.385   4.752   2.475 -0.5688 -0.0287  0.1275
 3037TIP3    H130602   6.294   4.739   2.500 -0.8143  0.2762 -0.5864
 3037TIP3    H230603   6.432   4.758   2.558 -1.6192  3.0007  0.6107
 3038TIP3   OH230604   5.558   2.148   3.319 -0.2565  0.3650  0.0607
 3038TIP3    H130605   5.560   2.117   3.410 -0.6955 -0.5233 -0.2223
 3038TIP3    H230606   5.582   2.241   3.325  1.2022 -0.0424  0.9193
 3039TIP3   OH230607   0.628   1.620   4.268  0.2682  0.6433  0.2283
 3039TIP3    H130608   0.641   1.530   4.239  0.7450  0.4042  1.1442
 3039TIP3    H230609   0.556   1.653   4.213  2.7546  1.0806 -3.0472
 3040TIP3   OH230610   4.824   2.039   5.614 -0.4670  0.2763  0.0122
 3040TIP3    H130611   4.804   2.032   5.708  1.0249 -1.5897  0.2317
 3040TIP3    H230612   4.745   2.007   5.571 -0.2365 -1.3749  0.7272
 3041TIP3   OH230613   5.060   1.613  12.959  0.4568  0.7010 -0.0473
 3041TIP3    H130614   5.109   1.672  13.017  0.8822  0.2578  0.0552
 3041TIP3    H230615   4.976   1.601  13.003 -0.0119  1.9986 -0.5550
 3042TIP3   OH230616   5.151   5.692  12.533 -0.1019 -0.2507 -0.4375
 3042TIP3    H130617   5.153   5.739  12.616  0.6997 -0.0345 -0.5764
 3042TIP3    H230618   5.058   5.690  12.509 -0.4455 -1.0665  0.8761
 3043TIP3   OH230619   5.991   2.125  11.487 -0.3921  0.5533 -0.3091
 3043TIP3    H130620   6.034   2.177  11.554  0.9510  0.7195 -1.2562
 3043TIP3    H230621   5.978   2.186  11.414 -1.0648  0.1705 -0.5161
 3044TIP3   OH230622   0.498   1.829   2.224  0.2226 -0.2075  0.9419
 3044TIP3    H130623   0.546   1.908   2.248 -2.3619  1.1476  2.0197
 3044TIP3    H230624   0.492   1.779   2.305 -1.1869  0.2452  1.1423
 3045TIP3   OH230625   3.688   1.292   5.012 -0.1236  0.2526  0.4613
 3045TIP3    H130626   3.724   1.204   5.006 -1.1946 -0.1915  0.2621
 3045TIP3    H230627   3.682   1.323   4.922 -0.5729  0.1728  0.4588
 3046TIP3   OH230628   3.876   3.014  13.033  0.8627  0.5595  0.3928
 3046TIP3    H130629   3.820   2.942  13.063  1.4222 -0.6935 -1.3829
 3046TIP3    H230630   3.918   3.047  13.112 -2.0654  1.3326  1.7667
 3047TIP3   OH230631   1.276   1.701   4.109  0.1045  0.3965  0.0430
 3047TIP3    H130632   1.281   1.606   4.097  2.0711  0.5839 -1.1118
 3047TIP3    H230633   1.301   1.715   4.200 -0.5343 -0.2110  0.3177
 3048TIP3   OH230634   3.744   2.788  12.618  0.2323 -0.4059 -0.5120
 3048TIP3    H130635   3.712   2.784  12.528  2.2095 -0.9605 -1.2319
 3048TIP3    H230636   3.837   2.768  12.612  0.2564 -1.3401  1.7650
 3049TIP3   OH230637   4.703   3.578   4.827  0.5334  0.0912 -0.1253
 3049TIP3    H130638   4.780   3.572   4.883  1.1553  1.4473 -0.7952
 3049TIP3    H230639   4.640   3.516   4.865  1.9833 -1.1388  0.3501
 3050TIP3   OH230640   0.534   6.071   4.037 -0.1752 -0.8971 -0.5565
 3050TIP3    H130641   0.529   5.990   3.987  1.5898 -0.5890 -1.3497
 3050TIP3    H230642   0.485   6.134   3.985 -0.2251 -1.0979 -0.7554
 3051TIP3   OH230643   6.463   4.073   2.884 -0.4053 -0.5014 -0.1203
 3051TIP3    H130644   6.468   4.158   2.841  0.6578 -0.7887 -0.6057
 3051TIP3    H230645   6.421   4.016   2.821 -0.6634 -0.4557  0.0096
 3052TIP3   OH230646   6.762   2.652  12.499  0.1586  0.0640 -0.2366
 3052TIP3    H130647   6.775   2.621  12.589  1.6761  0.0013 -0.4592
 3052TIP3    H230648   6.841   2.626  12.453 -0.2461  0.8360 -1.4024
 3053TIP3   OH230649   0.412   3.337  13.777 -0.1160 -0.4206 -0.0799
 3053TIP3    H130650   0.470   3.413  13.771  0.1306 -0.6841 -1.1272
 3053TIP3    H230651   0.472   3.262  13.783 -0.3491 -0.6793 -0.9667
 3054TIP3   OH230652   2.640   6.353  12.411 -0.1493  0.2727 -0.3777
 3054TIP3    H130653   2.728   6.372  12.379  0.4367 -0.9905  0.4376
 3054TIP3    H230654   2.635   6.394  12.497 -0.0873 -0.3079 -0.0947
 3055TIP3   OH230655   2.632   2.019   2.960  0.2949 -0.0561  0.3767
 3055TIP3    H130656   2.706   2.060   2.915  1.3892 -1.6007  0.6952
 3055TIP3    H230657   2.671   1.948   3.011 -1.1982  0.2149  1.9862
 3056TIP3   OH230658   2.080   1.113  16.400 -0.0453 -0.4036  0.2875
 3056TIP3    H130659   2.053   1.177  16.466 -0.5393 -0.1353 -0.1655
 3056TIP3    H230660   2.115   1.165  16.329  2.3792 -0.7645  1.1251
 3057TIP3   OH230661   4.284   0.951  16.627 -0.0855  0.0976  0.2387
 3057TIP3    H130662   4.344   1.023  16.649 -1.4448  1.3336  0.0946
 3057TIP3    H230663   4.231   0.940  16.705 -1.7434  1.2217 -0.6645
 3058TIP3   OH230664   5.891   2.534   2.262  0.1675  0.1002  0.1372
 3058TIP3    H130665   5.833   2.565   2.192 -0.2627 -0.5358  0.2048
 3058TIP3    H230666   5.959   2.485   2.216  0.5956  0.7346  0.0697
 3059TIP3   OH230667   0.024   0.946   3.589 -0.1842  0.5387 -0.2963
 3059TIP3    H130668   0.111   0.971   3.560 -0.0840  2.5938  1.5624
 3059TIP3    H230669  -0.023   0.923   3.508  1.9086 -0.2333 -1.3599
 3060TIP3   OH230670   1.301   3.564  14.396  0.0981 -0.2693  0.1640
 3060TIP3    H130671   1.395   3.556  14.376  0.4790  1.4086  1.1141
 3060TIP3    H230672   1.261   3.489  14.352  1.7859 -0.6132 -0.8863
 3061TIP3   OH230673   1.814   3.017   3.626  0.5390  0.1052  0.4581
 3061TIP3    H130674   1.882   3.014   3.693  2.8212 -1.2115 -1.7295
 3061TIP3    H230675   1.846   3.084   3.564 -1.1850  0.8532  0.3338
 3062TIP3   OH230676   6.461   2.768   2.539 -0.1273 -0.4146 -0.6665
 3062TIP3    H130677   6.494   2.708   2.605 -0.3299 -0.9825 -1.0775
 3062TIP3    H230678   6.366   2.755   2.540 -0.3239  0.8244  0.1366
 3063TIP3   OH230679   3.301   4.883   3.085  0.1256 -0.5469 -0.6959
 3063TIP3    H130680   3.391   4.903   3.114 -0.7907 -0.6907  2.7602
 3063TIP3    H230681   3.292   4.789   3.102 -0.9785 -0.3165  0.0671
 3064TIP3   OH230682   4.410   1.116   6.356 -0.8380  0.4762  0.2567
 3064TIP3    H130683   4.446   1.151   6.275  0.4422  4.0063  2.1165
 3064TIP3    H230684   4.316   1.134   6.349 -0.7108  0.9600 -0.3807
 3065TIP3   OH230685   2.734   2.771  15.540 -0.3038  0.3506 -0.3071
 3065TIP3    H130686   2.761   2.694  15.489  0.1379 -0.4832  1.1241
 3065TIP3    H230687   2.734   2.843  15.476  1.0556 -0.4753 -1.3136
 3066TIP3   OH230688   4.366   1.176  12.801 -0.2235  0.0636  0.1894
 3066TIP3    H130689   4.354   1.230  12.879  1.0260  0.8993 -0.1758
 3066TIP3    H230690   4.287   1.191  12.749 -0.9017 -0.2191  1.1124
 3067TIP3   OH230691   0.260   2.660   5.489  0.4153  0.3811 -0.1163
 3067TIP3    H130692   0.175   2.615   5.495  0.7318 -0.3223 -0.7654
 3067TIP3    H230693   0.251   2.736   5.546 -0.3807 -0.1266  0.4498
 3068TIP3   OH230694   6.071   3.143   2.260  0.2849  0.1510 -0.1880
 3068TIP3    H130695   6.148   3.103   2.220  0.1592  0.0089 -0.2913
 3068TIP3    H230696   6.020   3.069   2.293  0.6405  0.2936  0.7090
 3069TIP3   OH230697   4.613   0.754   1.217  0.7341 -0.1969  0.5769
 3069TIP3    H130698   4.630   0.693   1.146  2.9863  0.6164  0.3374
 3069TIP3    H230699   4.684   0.818   1.211 -0.8237  1.7279  1.5970
 3070TIP3   OH230700   1.320   2.488  15.902  0.0410  0.3049  0.4132
 3070TIP3    H130701   1.397   2.537  15.932  0.8992  0.4926 -1.9102
 3070TIP3    H230702   1.346   2.396  15.912  0.5494  0.3661 -0.2541
 3071TIP3   OH230703   5.513   5.206  11.135 -0.0495  0.1248  0.7093
 3071TIP3    H130704   5.551   5.286  11.099 -0.3890 -1.2038 -3.0409
 3071TIP3    H230705   5.564   5.135  11.095 -3.2018 -1.6032 -0.6297
 3072TIP3   OH230706   3.032   0.301  11.347  0.2227 -0.2769  0.9477
 3072TIP3    H130707   3.121   0.273  11.372  0.7855 -1.4295 -1.9904
 3072TIP3    H230708   3.046   0.375  11.288 -0.8069 -0.3198  0.6394
 3073TIP3   OH230709   1.789   2.479  14.595  0.0774  0.0560 -0.0337
 3073TIP3    H130710   1.845   2.448  14.666 -0.8599 -2.5918 -0.3582
 3073TIP3    H230711   1.718   2.527  14.639  1.0130  0.9449  0.5615
 3074TIP3   OH230712   6.202   5.315   5.042  0.5455  0.1446 -0.3812
 3074TIP3    H130713   6.161   5.357   4.966 -0.3811  0.2614  0.1672
 3074TIP3    H230714   6.184   5.222   5.030 -0.1845  0.2254  0.0210
 3075TIP3   OH230715   1.488   4.234   4.840  0.3657 -0.1871 -0.0917
 3075TIP3    H130716   1.435   4.313   4.833  0.2408 -0.1402  1.1351
 3075TIP3    H230717   1.562   4.259   4.896  0.1414 -1.0184  0.5903
 3076TIP3   OH230718   2.398   0.783   5.498  0.2699  0.0796 -0.0792
 3076TIP3    H130719   2.405   0.879   5.498  1.5042  0.0116  0.4502
 3076TIP3    H230720   2.435   0.757   5.582 -0.6698 -0.8405  0.0637
 3077TIP3   OH230721   0.025   6.527  12.013  0.1488 -0.0790  0.0055
 3077TIP3    H130722  -0.050   6.490  12.060 -0.3640 -2.5046 -2.4864
 3077TIP3    H230723   0.092   6.459  12.018  1.3525  1.0956  0.2041
 3078TIP3   OH230724   6.265   5.991  13.456 -0.6037 -0.7630  0.3944
 3078TIP3    H130725   6.343   5.962  13.503 -0.4075 -0.9855 -0.0671
 3078TIP3    H230726   6.280   5.965  13.365 -0.3738  0.8498 -0.0684
 3079TIP3   OH230727   2.132   3.459  12.476  0.0489 -0.2790  0.8096
 3079TIP3    H130728   2.218   3.434  12.509 -0.2770 -0.3432  1.6529
 3079TIP3    H230729   2.087   3.376  12.461  0.4751 -0.2731 -0.6233
 3080TIP3   OH230730   0.788   5.934   1.792  0.1586  0.8973 -0.0155
 3080TIP3    H130731   0.749   5.858   1.748  0.1996  0.5265  0.5807
 3080TIP3    H230732   0.865   5.899   1.837 -0.9655  0.8476  1.9907
 3081TIP3   OH230733   0.206   3.390  15.284  0.2532 -0.9410 -0.0891
 3081TIP3    H130734   0.193   3.485  15.281 -1.8473 -1.1752 -2.5323
 3081TIP3    H230735   0.252   3.374  15.366  0.1185  2.1134  0.6991
 3082TIP3   OH230736   3.215   3.507  13.806  0.6292 -0.3784  0.8502
 3082TIP3    H130737   3.278   3.437  13.789  1.0971 -0.0066  1.0281
 3082TIP3    H230738   3.129   3.467  13.790  0.8487 -1.1835  1.6254
 3083TIP3   OH230739   4.785   1.259   0.892  0.2342  0.1506 -0.4165
 3083TIP3    H130740   4.716   1.325   0.903  0.3338  0.3700 -1.0528
 3083TIP3    H230741   4.738   1.177   0.881 -0.0093  0.4644 -2.1139
 3084TIP3   OH230742   2.246   6.745   1.647 -0.6220 -0.4579 -0.3937
 3084TIP3    H130743   2.261   6.653   1.625  1.4305  0.1784 -2.0537
 3084TIP3    H230744   2.229   6.787   1.563 -1.1243  0.7359  0.2948
 3085TIP3   OH230745   0.226   2.414  17.208  0.4433  0.3342  0.0419
 3085TIP3    H130746   0.273   2.488  17.172 -0.1609 -0.1418 -1.8471
 3085TIP3    H230747   0.225   2.349  17.137 -1.5095 -0.3318  0.6002
 3086TIP3   OH230748   2.662   5.501   0.575  0.9548  0.1859  0.0461
 3086TIP3    H130749   2.591   5.481   0.636  0.2888  1.2739 -0.3479
 3086TIP3    H230750   2.710   5.419   0.566  0.5200 -0.2228  1.3224
 3087TIP3   OH230751   4.111   0.152  15.894 -0.1112 -0.5363 -0.1844
 3087TIP3    H130752   4.162   0.187  15.821 -0.6426 -0.5209 -0.5606
 3087TIP3    H230753   4.022   0.186  15.879  0.2114  1.3075  1.6739
 3088TIP3   OH230754   3.539   3.675   2.346  0.3809  0.2796 -0.1734
 3088TIP3    H130755   3.599   3.649   2.416  1.5986  1.0348 -0.9085
 3088TIP3    H230756   3.452   3.670   2.386  0.9999  0.0333  1.1902
 3089TIP3   OH230757   0.169   4.739   4.441 -0.2928  0.1208  0.0431
 3089TIP3    H130758   0.213   4.823   4.425 -0.1591  0.0494  0.0340
 3089TIP3    H230759   0.226   4.693   4.503  0.0431 -0.2882 -0.5535
 3090TIP3   OH230760   3.990   3.121  16.470 -0.0956  0.3783 -0.0401
 3090TIP3    H130761   3.918   3.151  16.414  1.3183  0.6313 -1.8256
 3090TIP3    H230762   4.064   3.176  16.445  0.9628 -0.4681  1.1117
 3091TIP3   OH230763   3.762   5.962  11.642  0.4148  0.0909  0.4728
 3091TIP3    H130764   3.675   6.000  11.642  0.2877 -0.1279 -1.1109
 3091TIP3    H230765   3.791   5.968  11.551  1.2437 -1.6421  0.5784
 3092TIP3   OH230766   4.816   5.015   4.380  0.0121 -0.0907 -0.6116
 3092TIP3    H130767   4.840   5.103   4.410  1.3256 -0.9754  1.0692
 3092TIP3    H230768   4.817   5.022   4.284 -1.4956  2.0965 -0.5498
 3093TIP3   OH230769   3.680   6.108   4.475  0.1164  0.0212  0.3681
 3093TIP3    H130770   3.677   6.174   4.545  0.0743  0.0579  0.3313
 3093TIP3    H230771   3.634   6.148   4.402  0.3815  0.0800  0.2337
 3094TIP3   OH230772   3.400   3.415   2.296  0.2462 -0.6345  0.0662
 3094TIP3    H130773   3.329   3.416   2.360  0.0638  2.6972 -0.0512
 3094TIP3    H230774   3.443   3.500   2.305  2.7034 -1.5781 -1.5679
 3095TIP3   OH230775   6.420   5.484  16.571  0.2768  0.0896 -0.1653
 3095TIP3    H130776   6.502   5.524  16.544  1.1751 -1.7690 -0.3502
 3095TIP3    H230777   6.441   5.391  16.581 -1.5919 -0.2895  0.6599
 3096TIP3   OH230778   1.867   0.669   1.704 -0.2769 -0.0213  0.2524
 3096TIP3    H130779   1.949   0.711   1.680 -0.1614  0.1605  0.9614
 3096TIP3    H230780   1.873   0.655   1.798 -0.2293 -1.7907  0.0283
 3097TIP3   OH230781   2.958   5.757  13.098  0.2148  0.2485  0.4150
 3097TIP3    H130782   2.884   5.779  13.042  0.6693  1.6129  0.3042
 3097TIP3    H230783   2.925   5.688  13.156 -0.7175 -0.1114 -0.5164
 3098TIP3   OH230784   4.378   0.654  11.045  0.4978  0.4338 -0.0736
 3098TIP3    H130785   4.403   0.579  11.100 -1.4166  1.5667  2.5972
 3098TIP3    H230786   4.323   0.707  11.103 -1.2023  2.0718 -3.0080
 3099TIP3   OH230787   0.030   6.054  12.825 -0.4515 -0.3868 -0.1666
 3099TIP3    H130788   0.022   6.117  12.897  0.9703  0.7162 -0.9261
 3099TIP3    H230789   0.113   6.077  12.782 -1.7065 -0.3693 -2.7734
 3100TIP3   OH230790   5.053   2.453  17.158  0.2935 -0.6519 -0.1175
 3100TIP3    H130791   5.002   2.463  17.239 -0.4868 -0.8010 -0.5797
 3100TIP3    H230792   5.117   2.385  17.179  0.7720  0.0298  0.6919
 3101TIP3   OH230793   2.397   1.999  14.472 -0.3579  0.1428  0.7054
 3101TIP3    H130794   2.378   2.088  14.502  1.5650  0.3172  1.5366
 3101TIP3    H230795   2.489   2.001  14.447 -0.2816 -1.6138  0.7247
 3102TIP3   OH230796   1.347   4.083   0.664  0.1159  0.8013 -0.5776
 3102TIP3    H130797   1.309   4.086   0.752 -0.8522 -0.2151 -0.9308
 3102TIP3    H230798   1.284   4.032   0.613  1.2463  0.3553 -1.5658
 3103TIP3   OH230799   3.348   5.582   1.340  1.0130 -0.8216  0.4415
 3103TIP3    H130800   3.431   5.619   1.308  2.1312 -2.8774  0.7338
 3103TIP3    H230801   3.286   5.595   1.268  0.9381  2.5935  0.9918
 3104TIP3   OH230802   2.139   5.655  12.693 -0.4656 -0.2330 -0.3022
 3104TIP3    H130803   2.077   5.666  12.621 -0.7793  1.7824  0.2404
 3104TIP3    H230804   2.105   5.580  12.742 -2.0275  0.3384 -0.4678
 3105TIP3   OH230805   4.103   0.761  12.971 -0.1381 -0.6207  0.2517
 3105TIP3    H130806   4.117   0.682  12.917  2.1957  0.0822 -0.3102
 3105TIP3    H230807   4.044   0.815  12.920  2.2902  0.1840 -1.9453
 3106TIP3   OH230808   3.923   0.029  11.855  0.0400  0.0001  0.4801
 3106TIP3    H130809   3.846   0.076  11.887  0.1394 -0.3208  1.2092
 3106TIP3    H230810   3.925  -0.051  11.907  1.7055  0.6745  1.5252
 3107TIP3   OH230811   4.528   1.014   0.218 -0.0616  0.0729 -0.3950
 3107TIP3    H130812   4.585   1.086   0.193  1.7795 -1.6803 -1.5221
 3107TIP3    H230813   4.467   1.005   0.145  1.1829 -0.9276 -1.3513
 3108TIP3   OH230814   5.734   6.028  11.508 -0.1531 -0.1787 -0.4115
 3108TIP3    H130815   5.749   5.941  11.471 -1.6731 -0.0252 -1.4570
 3108TIP3    H230816   5.647   6.022  11.548  0.5927  0.2691  1.3751
 3109TIP3   OH230817   6.772   0.558   2.673 -0.0458  0.9858  0.0084
 3109TIP3    H130818   6.857   0.557   2.631 -1.0898 -0.1453 -2.2506
 3109TIP3    H230819   6.778   0.628   2.739  2.7959  0.4376  0.4503
 3110TIP3   OH230820   6.551   2.720   1.022 -0.2550 -0.1056 -0.0006
 3110TIP3    H130821   6.456   2.712   1.008 -0.1187 -0.1214 -1.0086
 3110TIP3    H230822   6.567   2.669   1.102 -1.2030  0.5713  0.6449
 3111TIP3   OH230823   2.858   6.749  10.844 -0.0205  0.0961 -0.9018
 3111TIP3    H130824   2.921   6.811  10.807 -0.5380  2.2013  1.4911
 3111TIP3    H230825   2.908   6.700  10.909 -0.5805  1.3223  0.5333
 3112TIP3   OH230826   2.444   2.200   4.806  0.1529  0.3652  0.2683
 3112TIP3    H130827   2.518   2.208   4.866 -0.4223 -0.3337  1.0920
 3112TIP3    H230828   2.381   2.265   4.836 -0.0199  0.2068  0.2533
 3113TIP3   OH230829   1.190   4.113   1.194 -0.2135  0.4034  0.2340
 3113TIP3    H130830   1.097   4.097   1.176 -0.2418  0.2598  0.4913
 3113TIP3    H230831   1.194   4.206   1.215 -0.1393  0.6232 -0.7261
 3114TIP3   OH230832   4.057   4.706   4.249 -0.1432 -0.4820 -0.0190
 3114TIP3    H130833   4.039   4.781   4.307 -0.3535 -0.4234 -0.1586
 3114TIP3    H230834   4.081   4.746   4.165  0.1756 -0.5671  0.0318
 3115TIP3   OH230835   1.045   5.554   5.994 -0.4156  0.4580 -0.1624
 3115TIP3    H130836   1.035   5.642   6.029  0.1791  1.0353 -1.3551
 3115TIP3    H230837   1.031   5.496   6.068  0.4036  1.6002  0.9254
 3116TIP3   OH230838   0.331   4.373   0.733  0.3794 -0.1638  0.7912
 3116TIP3    H130839   0.402   4.330   0.686 -0.6682 -0.9329 -0.1477
 3116TIP3    H230840   0.295   4.305   0.791 -1.5663 -0.7784 -1.0167
 3117TIP3   OH230841   2.444   4.518  14.757 -0.3449  0.0201 -0.0952
 3117TIP3    H130842   2.502   4.566  14.816  1.3430 -1.3020 -0.5811
 3117TIP3    H230843   2.370   4.491  14.813 -0.3511  1.4427  0.6285
 3118TIP3   OH230844   3.043   0.164   0.289 -0.1716 -0.3860 -0.3626
 3118TIP3    H130845   2.996   0.224   0.348  2.2200  0.2051  1.0670
 3118TIP3    H230846   3.076   0.096   0.347  0.0091 -1.2732 -1.4756
 3119TIP3   OH230847   1.420   4.880  13.194 -0.1666 -0.1811  0.2356
 3119TIP3    H130848   1.501   4.844  13.230  0.1470 -1.2512 -1.3940
 3119TIP3    H230849   1.373   4.803  13.161 -0.7665  0.6266 -0.8699
 3120TIP3   OH230850   4.570   6.652  17.148  0.2483  0.1636 -0.0079
 3120TIP3    H130851   4.550   6.578  17.091 -0.7523  1.2783 -1.1715
 3120TIP3    H230852   4.637   6.702  17.101  0.0827  0.6011  0.2125
 3121TIP3   OH230853   1.954   2.136   3.350  0.6184 -0.5081  0.3494
 3121TIP3    H130854   1.911   2.158   3.432  0.7294  0.2248  0.2181
 3121TIP3    H230855   2.041   2.175   3.356  1.5962 -2.6295  0.9271
 3122TIP3   OH230856   5.374   1.963   6.451 -0.0224  0.0443 -0.5983
 3122TIP3    H130857   5.438   1.892   6.455 -0.9833 -0.7916  0.3902
 3122TIP3    H230858   5.409   2.023   6.384  0.9728 -1.1835 -1.2154
 3123TIP3   OH230859   4.979   4.684  15.553 -0.3094  0.2856 -0.2039
 3123TIP3    H130860   4.948   4.688  15.643 -1.7107  0.3757 -0.6633
 3123TIP3    H230861   5.071   4.657  15.560 -0.7876 -1.1335  1.1758
 3124TIP3   OH230862   2.174   1.922  12.164 -0.5831  0.0506  0.2039
 3124TIP3    H130863   2.138   2.008  12.142 -1.2647 -0.4169 -0.6074
 3124TIP3    H230864   2.159   1.870  12.085 -0.2186 -0.8194  0.6988
 3125TIP3   OH230865   4.834   1.291  13.808 -0.2811  0.4672 -0.0523
 3125TIP3    H130866   4.797   1.379  13.807  0.7041  0.8979  0.3260
 3125TIP3    H230867   4.760   1.234  13.828 -0.8570  1.2470  0.0600
 3126TIP3   OH230868   6.014   6.719  14.361 -0.1077  0.3081  0.7582
 3126TIP3    H130869   6.060   6.797  14.391 -0.6064  0.6158  0.7272
 3126TIP3    H230870   6.027   6.718  14.266 -1.5647  1.3186  0.5254
 3127TIP3   OH230871   1.109   5.676  12.611 -0.2268 -0.5791  0.5359
 3127TIP3    H130872   1.165   5.602  12.632 -0.1801 -0.4291  0.9471
 3127TIP3    H230873   1.021   5.640  12.607 -0.4241 -0.3720  2.3510
 3128TIP3   OH230874   5.694   3.597  13.390  0.1367  0.1364 -0.2698
 3128TIP3    H130875   5.788   3.586  13.405  0.2564  0.2088 -0.9449
 3128TIP3    H230876   5.666   3.657  13.459  0.6635  0.4370 -0.3051
 3129TIP3   OH230877   6.273   2.382  11.434  0.0194 -0.1182 -0.1287
 3129TIP3    H130878   6.291   2.434  11.355 -0.2167 -2.0114 -1.5108
 3129TIP3    H230879   6.179   2.365  11.430 -0.1591  0.4829  1.0707
 3130TIP3   OH230880   5.326   2.523   4.502 -0.0910  0.6101  0.0166
 3130TIP3    H130881   5.371   2.459   4.557  0.0566 -0.2030 -1.0256
 3130TIP3    H230882   5.376   2.604   4.514 -0.6802  0.7261  1.8662
 3131TIP3   OH230883   3.192   2.654  13.986  0.4010 -0.4312  0.2563
 3131TIP3    H130884   3.267   2.626  13.934 -0.7628 -2.7956 -0.2924
 3131TIP3    H230885   3.124   2.673  13.921 -0.4086 -1.3556  0.8121
 3132TIP3   OH230886   3.171   2.475  14.179 -0.3281 -0.6546 -0.0259
 3132TIP3    H130887   3.169   2.534  14.104  0.9342  0.3261  0.6548
 3132TIP3    H230888   3.214   2.526  14.248 -2.1763 -1.2115  1.6419
 3133TIP3   OH230889   0.900   2.873  13.008 -0.2254 -0.0994  0.0794
 3133TIP3    H130890   0.813   2.904  12.984 -0.7552  0.3880  2.3765
 3133TIP3    H230891   0.885   2.784  13.042 -0.1299  0.5426  1.9279
 3134TIP3   OH230892   3.746   2.015   4.025  0.0656  0.6469  0.0512
 3134TIP3    H130893   3.824   2.051   3.981 -0.2022  2.2582  0.8096
 3134TIP3    H230894   3.759   2.037   4.117 -1.8210  2.0554  0.0461
 3135TIP3   OH230895   1.826   0.092   4.228  0.3937 -0.1121  0.1902
 3135TIP3    H130896   1.843   0.185   4.245 -0.7143  0.3184 -0.9448
 3135TIP3    H230897   1.894   0.066   4.166  0.2482  0.1519 -0.0840
 3136TIP3   OH230898   5.692   2.573   2.937  0.1163  0.1580 -0.1994
 3136TIP3    H130899   5.691   2.483   2.904 -1.4310  0.3696 -0.7912
 3136TIP3    H230900   5.720   2.565   3.028  2.9467 -0.5982 -1.0368
 3137TIP3   OH230901   1.823   4.467   4.476 -0.0894  0.4408 -0.4822
 3137TIP3    H130902   1.901   4.499   4.429  0.0671  0.7042 -0.0560
 3137TIP3    H230903   1.788   4.397   4.421  1.8594 -1.4083  0.4859
 3138TIP3   OH230904   6.633   4.072   6.287  0.1693  0.5395  0.1972
 3138TIP3    H130905   6.694   4.002   6.313 -1.3834 -0.6703  0.7336
 3138TIP3    H230906   6.558   4.027   6.250 -0.8536  1.9350  0.4698
 3139TIP3   OH230907   1.189   5.340  16.373  0.5694 -0.2867 -0.1343
 3139TIP3    H130908   1.167   5.303  16.459  1.5710 -0.1591  0.1988
 3139TIP3    H230909   1.259   5.403  16.392  0.8853 -0.3429 -1.0586
 3140TIP3   OH230910   5.906   5.004   5.342  0.0215 -0.0119  0.1562
 3140TIP3    H130911   5.934   4.989   5.252  0.1955  0.9305  0.0389
 3140TIP3    H230912   5.986   5.032   5.387 -0.2815  0.6007  0.3313
 3141TIP3   OH230913   1.076   5.248  15.291  0.0393  0.0133  0.1232
 3141TIP3    H130914   1.001   5.221  15.344 -0.2917  1.1165  0.2466
 3141TIP3    H230915   1.080   5.183  15.221 -0.3793 -0.6596  0.7029
 3142TIP3   OH230916   6.418   2.093   0.120 -0.2439 -0.1758  0.3570
 3142TIP3    H130917   6.365   2.163   0.083  0.3604  0.4522  0.6455
 3142TIP3    H230918   6.398   2.095   0.214 -1.0626 -1.1398  0.2282
 3143TIP3   OH230919   0.683   4.450  15.020 -0.5354  0.3572 -0.5868
 3143TIP3    H130920   0.634   4.373  15.049  0.7232 -0.5131 -0.6553
 3143TIP3    H230921   0.774   4.419  15.015 -0.1557  1.5575 -1.6542
 3144TIP3   OH230922   0.581   2.433  12.265 -0.2483  0.5949  0.4037
 3144TIP3    H130923   0.585   2.423  12.361  0.3780 -1.3453  0.2258
 3144TIP3    H230924   0.664   2.476  12.242  1.1981 -1.9311  0.4999
 3145TIP3   OH230925   3.237   1.249  12.884 -0.7213 -0.0947  0.4094
 3145TIP3    H130926   3.288   1.169  12.896 -1.1584 -0.5148 -0.4489
 3145TIP3    H230927   3.302   1.319  12.882 -0.3034 -0.4689  0.7707
 3146TIP3   OH230928   4.810   5.040   3.566 -0.2156 -0.1246  0.4094
 3146TIP3    H130929   4.871   5.012   3.633 -0.4048  0.2018  0.7244
 3146TIP3    H230930   4.855   5.111   3.519  0.6918 -1.6197 -1.0835
 3147TIP3   OH230931   0.205   0.657  11.319 -0.3370 -0.0854  0.1938
 3147TIP3    H130932   0.246   0.719  11.379  1.0707  0.1896 -0.9947
 3147TIP3    H230933   0.219   0.695  11.232 -2.7086 -0.2396 -0.3421
 3148TIP3   OH230934   0.688   2.350  13.117  0.4422 -0.3229  0.2854
 3148TIP3    H130935   0.775   2.388  13.106  0.4482 -0.2230  0.6891
 3148TIP3    H230936   0.699   2.282  13.183  0.0297  0.3249  1.0436
 3149TIP3   OH230937   0.527   5.840   3.892 -1.1039 -0.5323  0.1860
 3149TIP3    H130938   0.502   5.756   3.931 -0.3730  0.0401  2.0004
 3149TIP3    H230939   0.555   5.818   3.804 -1.4812 -2.1089  0.4238
 3150TIP3   OH230940   0.882   3.566  14.808 -0.1485 -0.5341  0.4955
 3150TIP3    H130941   0.833   3.613  14.740  0.2570  0.0285  0.5847
 3150TIP3    H230942   0.974   3.589  14.791 -0.1526  1.1633  2.3479
 3151TIP3   OH230943   5.194   5.955  11.657  0.8330  0.1603  0.2971
 3151TIP3    H130944   5.107   5.916  11.670  1.2232 -0.7535  0.2034
 3151TIP3    H230945   5.175   6.044  11.627 -0.0843  0.7974  2.5789
 3152TIP3   OH230946   4.133   0.795  15.033 -0.4732 -0.2902  0.0627
 3152TIP3    H130947   4.198   0.734  15.067 -0.0821  0.3704  0.5182
 3152TIP3    H230948   4.109   0.760  14.948 -0.5624 -1.3065  0.4892
 3153TIP3   OH230949   2.500   6.541   2.947 -0.3009  0.6740  0.3617
 3153TIP3    H130950   2.445   6.523   3.023 -1.7683  2.8993 -0.0679
 3153TIP3    H230951   2.467   6.483   2.879 -1.5808  1.3988  0.3491
 3154TIP3   OH230952   1.962   4.156   3.448 -0.4309  0.2127 -0.1486
 3154TIP3    H130953   1.981   4.192   3.535  0.2006  0.9719 -0.6014
 3154TIP3    H230954   2.030   4.090   3.435  0.6554  1.4269 -0.8544
 3155TIP3   OH230955   4.650   2.823   4.905  0.0991  0.1108 -0.2231
 3155TIP3    H130956   4.582   2.779   4.855 -1.0294  0.0318  1.3032
 3155TIP3    H230957   4.634   2.916   4.890 -0.2790  0.0889  0.0214
 3156TIP3   OH230958   5.810   6.031   4.466  0.1146 -0.3203 -0.0034
 3156TIP3    H130959   5.889   5.990   4.431  0.2697 -0.4839  0.5440
 3156TIP3    H230960   5.755   6.044   4.389  0.3160 -0.9913 -0.2655
 3157TIP3   OH230961   5.993   4.916   1.302  0.2414 -0.1643  0.1678
 3157TIP3    H130962   5.994   4.956   1.215  0.6281 -0.5830 -0.0256
 3157TIP3    H230963   5.925   4.848   1.296 -0.0513  0.1106  0.3357
 3158TIP3   OH230964   4.479   3.457  16.691  0.3707  0.4696 -0.6157
 3158TIP3    H130965   4.487   3.429  16.783  1.4661  2.2505 -0.1278
 3158TIP3    H230966   4.553   3.415  16.647  0.8667  0.9980 -0.3003
 3159TIP3   OH230967   0.234   0.391  14.089  0.2384  0.1253  0.4013
 3159TIP3    H130968   0.194   0.324  14.033  1.5128 -0.6465  0.3686
 3159TIP3    H230969   0.182   0.388  14.170 -0.9159  0.4664 -0.3157
 3160TIP3   OH230970   2.123   1.773   0.286  0.2132 -0.3415 -0.0024
 3160TIP3    H130971   2.066   1.821   0.347  1.1593  0.0441  0.6057
 3160TIP3    H230972   2.210   1.811   0.300  0.6889 -1.1561 -0.6623
 3161TIP3   OH230973   4.145   1.613  14.497  0.0002 -0.1353 -0.4442
 3161TIP3    H130974   4.069   1.598  14.553  0.2791  0.1508  0.0131
 3161TIP3    H230975   4.208   1.657  14.553  1.3547 -2.2813 -0.1756
 3162TIP3   OH230976   2.931   3.704  12.336  0.1762 -0.2756  0.5743
 3162TIP3    H130977   2.981   3.784  12.355 -0.4401 -0.1770  1.8665
 3162TIP3    H230978   2.871   3.695  12.410 -0.6319 -1.2600 -0.1722
 3163TIP3   OH230979   6.720   4.541   4.984  0.0416  0.5731  0.8555
 3163TIP3    H130980   6.687   4.457   4.953  0.0962  0.5902  0.7502
 3163TIP3    H230981   6.813   4.525   5.001  0.4756  1.0711 -0.8660
 3164TIP3   OH230982   0.768   1.938   2.314  0.5660 -0.0900 -0.1761
 3164TIP3    H130983   0.846   1.994   2.309 -0.5592  1.6006  0.5225
 3164TIP3    H230984   0.730   1.956   2.400 -0.5969 -0.9141 -0.4877
 3165TIP3   OH230985   1.014   0.009   1.554 -0.1034  0.0765 -0.5644
 3165TIP3    H130986   1.078   0.079   1.537  1.0728 -1.0352 -0.8319
 3165TIP3    H230987   1.030  -0.055   1.484 -0.4734 -0.9342  0.2567
 3166TIP3   OH230988   2.029   6.197   6.360 -0.5616 -0.8280  0.4200
 3166TIP3    H130989   1.956   6.140   6.383 -0.4268 -0.9021  0.6641
 3166TIP3    H230990   2.053   6.240   6.442 -1.7868  0.9071 -0.0806
 3167TIP3   OH230991   6.228   1.077  16.653  0.0827 -0.3571  0.2283
 3167TIP3    H130992   6.240   0.995  16.701  0.0620 -0.4232  0.1200
 3167TIP3    H230993   6.152   1.061  16.596  0.8536 -0.7041 -0.7345
 3168TIP3   OH230994   3.167   2.333   0.239 -0.4010  0.7091 -0.2132
 3168TIP3    H130995   3.238   2.295   0.188 -0.4254 -0.3204  0.4794
 3168TIP3    H230996   3.091   2.329   0.181  0.0021  1.3655 -0.7840
 3169TIP3   OH230997   5.620   2.712  15.228  0.5896  0.1727  0.4118
 3169TIP3    H130998   5.584   2.624  15.228  0.5576  0.1835  0.1196
 3169TIP3    H230999   5.669   2.719  15.310  2.0434 -0.7196 -0.3540
 3170TIP3   OH231000   5.652   6.414   4.667 -0.4625  0.3160 -0.4218
 3170TIP3    H131001   5.597   6.408   4.589  0.1950 -1.0551 -0.8154
 3170TIP3    H231002   5.650   6.326   4.705  2.5991 -0.2583 -1.3030
 3171TIP3   OH231003   5.779   4.664   4.989 -0.0147 -0.2941  0.3147
 3171TIP3    H131004   5.738   4.749   5.007 -1.0041 -1.0784  1.9901
 3171TIP3    H231005   5.856   4.662   5.045  0.4193 -0.2321 -0.2650
 3172TIP3   OH231006   4.795   5.738  17.243 -0.1254  0.0555  0.3147
 3172TIP3    H131007   4.735   5.750  17.169 -1.4090  0.2956  1.3546
 3172TIP3    H231008   4.880   5.721  17.202 -1.1929 -2.0500 -1.2465
 3173TIP3   OH231009   4.666   6.172   3.934 -0.0925  0.0862  0.0952
 3173TIP3    H131010   4.594   6.231   3.912 -0.8676 -0.7535  0.3031
 3173TIP3    H231011   4.623   6.092   3.964  0.9338 -0.6459 -0.3277
 3174TIP3   OH231012   3.763   1.677  15.914 -0.0406 -0.6687  0.3641
 3174TIP3    H131013   3.739   1.735  15.986  1.6823  0.6241 -0.0341
 3174TIP3    H231014   3.708   1.704  15.841 -0.2352 -0.4951  0.5762
 3175TIP3   OH231015   2.635   4.487  11.164  0.0431  0.4488 -0.1638
 3175TIP3    H131016   2.595   4.498  11.250  1.1871  0.6337  0.3619
 3175TIP3    H231017   2.563   4.455  11.108 -0.5700 -0.2624  0.9918
 3176TIP3   OH231018   4.008   2.377   1.811  0.0597  0.0014  0.1753
 3176TIP3    H131019   4.033   2.285   1.811  0.4605  0.0784 -1.7092
 3176TIP3    H231020   4.067   2.419   1.749 -0.4843  1.4380  0.5770
 3177TIP3   OH231021   4.149   2.470  14.391  0.0267 -0.0466 -0.9354
 3177TIP3    H131022   4.088   2.396  14.386  1.7228 -1.8853  2.1882
 3177TIP3    H231023   4.221   2.446  14.333  0.2641 -0.5783 -0.4357
 3178TIP3   OH231024   2.930   6.331   5.944  0.1852 -0.2076 -0.1748
 3178TIP3    H131025   2.910   6.315   5.852  1.9649  0.8290 -0.8073
 3178TIP3    H231026   2.962   6.247   5.977 -0.0975 -0.4880 -0.6123
 3179TIP3   OH231027   6.154   5.812   4.089  0.6090 -1.4394  0.1360
 3179TIP3    H131028   6.213   5.838   4.020  0.3048 -1.0103  0.0339
 3179TIP3    H231029   6.106   5.738   4.053 -0.3450 -0.5214 -0.5496
 3180TIP3   OH231030   3.337   1.272   5.332  0.7684 -0.0999 -0.0467
 3180TIP3    H131031   3.378   1.208   5.273  0.1570  1.5712 -2.4475
 3180TIP3    H231032   3.243   1.261   5.318  0.6751  1.9511 -1.2990
 3181TIP3   OH231033   5.753   2.578   3.189  0.4350 -0.1029  0.4054
 3181TIP3    H131034   5.844   2.605   3.177  0.3478  0.4619  0.9340
 3181TIP3    H231035   5.750   2.544   3.278 -0.0187  0.5703  0.6573
 3182TIP3   OH231036   6.161   0.353   3.699 -1.1536 -0.1467  0.1457
 3182TIP3    H131037   6.101   0.278   3.696  1.6994 -2.6025 -0.8297
 3182TIP3    H231038   6.158   0.382   3.790 -1.3380 -2.3842  0.9139
 3183TIP3   OH231039   4.282   4.816   4.841  0.5691  0.0406  0.5258
 3183TIP3    H131040   4.263   4.895   4.792  0.1071 -0.1965  0.3104
 3183TIP3    H231041   4.305   4.751   4.775 -0.7892 -0.4894  0.5203
 3184TIP3   OH231042   2.399   1.358   0.863  0.5768 -0.3109  0.2961
 3184TIP3    H131043   2.322   1.302   0.861  0.6870 -0.4590  0.1928
 3184TIP3    H231044   2.425   1.367   0.771  2.2273 -2.3957  0.4813
 3185TIP3   OH231045   3.083   0.696   0.393 -0.3219  0.0732 -0.5815
 3185TIP3    H131046   3.170   0.662   0.418  0.1210  0.7329 -1.1874
 3185TIP3    H231047   3.026   0.671   0.466  0.7770  1.3057  0.7686
 3186TIP3   OH231048   6.639   1.130  16.304 -0.1413  0.3661  0.2057
 3186TIP3    H131049   6.660   1.120  16.211  0.6397  1.8440  0.1805
 3186TIP3    H231050   6.544   1.136  16.306 -0.2684 -1.0439 -0.3206
 3187TIP3   OH231051   2.360   3.550   0.256  0.7004 -0.1050  0.2359
 3187TIP3    H131052   2.265   3.542   0.253  0.6449  0.6858 -1.7650
 3187TIP3    H231053   2.380   3.574   0.346 -1.3065  3.1228 -0.0445
 3188TIP3   OH231054   0.518   5.713   4.217  0.6852 -0.5076 -0.1233
 3188TIP3    H131055   0.611   5.736   4.219  0.4929  0.3309 -0.5259
 3188TIP3    H231056   0.473   5.793   4.244  0.0000 -0.4475 -1.4015
 3189TIP3   OH231057   2.832   6.384  12.827  0.1155  0.0671 -0.6289
 3189TIP3    H131058   2.845   6.412  12.917  3.0385  4.0920 -1.9864
 3189TIP3    H231059   2.886   6.306  12.818  0.7685  0.3246  0.8410
 3190TIP3   OH231060   6.791   2.590  11.455 -0.2945 -0.0269 -0.1098
 3190TIP3    H131061   6.741   2.637  11.388 -0.1278  0.8239  0.3475
 3190TIP3    H231062   6.727   2.567  11.522 -0.5689 -1.3820 -0.8041
 3191TIP3   OH231063   0.831   5.531   3.895  0.7165 -0.3737  0.6033
 3191TIP3    H131064   0.897   5.599   3.908 -0.2157  1.2319 -2.3602
 3191TIP3    H231065   0.872   5.469   3.835  0.1855 -0.3535  0.2153
 3192TIP3   OH231066   6.026   2.705  14.510  0.2044  0.6586 -0.0506
 3192TIP3    H131067   6.117   2.682  14.531 -0.1141 -1.2458 -0.5983
 3192TIP3    H231068   5.975   2.673  14.584 -0.2232 -0.1770 -0.6865
 3193TIP3   OH231069   2.087   1.306  13.700 -0.2619  0.0165 -0.4809
 3193TIP3    H131070   2.053   1.333  13.785 -2.6576  0.7855 -1.6117
 3193TIP3    H231071   2.077   1.211  13.700 -2.2493  0.1845 -0.6455
 3194TIP3   OH231072   2.061   2.547   3.314  0.1080 -0.3297  0.6344
 3194TIP3    H131073   2.132   2.594   3.271 -0.8649  0.6044  0.0264
 3194TIP3    H231074   2.084   2.454   3.303  1.5559 -0.0350  1.0280
 3195TIP3   OH231075   1.274   2.953  15.993  0.5735  0.2065  0.0907
 3195TIP3    H131076   1.297   3.046  15.987  2.4416 -0.1116  1.4106
 3195TIP3    H231077   1.185   2.953  16.027  1.3925  1.5842  2.5193
 3196TIP3   OH231078   5.201   6.392  15.198 -0.4313  0.1513 -0.2921
 3196TIP3    H131079   5.176   6.324  15.260 -2.2953  0.1105 -1.0553
 3196TIP3    H231080   5.297   6.395  15.205 -0.4981 -0.4541  1.9259
 3197TIP3   OH231081   0.022   3.979  12.692  0.6300  0.3825  0.7055
 3197TIP3    H131082   0.018   4.071  12.718  1.6306  0.6940 -0.1829
 3197TIP3    H231083   0.102   3.972  12.641 -1.1639 -0.1720 -2.2547
 3198TIP3   OH231084   1.774   5.475  13.103  0.4823  0.4835  0.2587
 3198TIP3    H131085   1.796   5.400  13.158 -0.5834  0.1364  0.2325
 3198TIP3    H231086   1.741   5.541  13.164 -0.1760  0.3025  0.1042
 3199TIP3   OH231087   6.629   3.964   4.526  0.3299 -0.2992 -0.5062
 3199TIP3    H131088   6.645   3.871   4.541 -0.8320 -0.6268 -1.1479
 3199TIP3    H231089   6.556   3.966   4.464  0.2072  1.0414 -0.3528
 3200TIP3   OH231090   3.753   1.894  13.973  0.5057 -0.0560 -0.0637
 3200TIP3    H131091   3.711   1.917  13.891  1.4913  0.5224 -0.4352
 3200TIP3    H231092   3.702   1.821  14.007 -0.5722  0.4034 -0.6416
 3201TIP3   OH231093   6.358   0.759   3.060  0.2447  0.1304 -0.1818
 3201TIP3    H131094   6.322   0.814   2.991  0.7557 -1.6259 -1.9567
 3201TIP3    H231095   6.286   0.700   3.084  0.3434  0.1299  0.1178
 3202TIP3   OH231096   6.001   6.466   5.020 -0.2506 -0.8481  0.4726
 3202TIP3    H131097   6.046   6.381   5.018  0.1208 -0.6381 -0.7687
 3202TIP3    H231098   5.950   6.468   4.939  1.4413  0.9991 -0.6195
 3203TIP3   OH231099   6.720   0.946   2.495 -0.1508 -0.2691  0.1516
 3203TIP3    H131100   6.765   0.888   2.435 -2.1937  0.3429 -2.1757
 3203TIP3    H231101   6.672   0.888   2.554 -1.7199 -1.0522 -1.7788
 3204TIP3   OH231102   3.347   3.952   3.681  0.2156  0.3283 -0.1458
 3204TIP3    H131103   3.259   3.917   3.671  0.0554 -0.3291  2.7959
 3204TIP3    H231104   3.405   3.884   3.646 -0.3377 -0.1096 -0.2051
 3205TIP3   OH231105   6.267   6.169   4.666 -0.2085  0.5574 -0.2093
 3205TIP3    H131106   6.238   6.082   4.638 -0.5197  0.8919 -0.9590
 3205TIP3    H231107   6.295   6.157   4.757 -1.4162 -0.0547  0.0996
 3206TIP3   OH231108   2.764   2.326  14.496 -0.9089 -0.4931  0.3483
 3206TIP3    H131109   2.760   2.371  14.581 -2.3623  0.8809 -0.3957
 3206TIP3    H231110   2.851   2.349  14.462 -0.3641 -0.9353  1.3678
 3207TIP3   OH231111   1.494   6.761   3.072 -0.7102 -0.5206  0.4090
 3207TIP3    H131112   1.474   6.852   3.092  0.4040  0.0262 -0.8401
 3207TIP3    H231113   1.425   6.711   3.116 -1.5912  0.9383  0.7423
 3208TIP3   OH231114   5.091   4.702  16.962  0.6078 -0.5808 -0.4863
 3208TIP3    H131115   5.164   4.653  16.923  1.8663 -0.5898  1.6898
 3208TIP3    H231116   5.110   4.793  16.940  1.3557 -0.5752  0.1137
 3209TIP3   OH231117   5.013   4.640  14.242 -0.4222  0.2427  0.5592
 3209TIP3    H131118   5.014   4.696  14.320 -2.3826  1.3378 -0.1386
 3209TIP3    H231119   5.012   4.702  14.168 -1.7830 -0.7010 -0.2494
 3210TIP3   OH231120   4.243   3.641   4.982  0.5612  0.5593 -0.3475
 3210TIP3    H131121   4.169   3.588   4.951 -0.6420  1.4065  0.9268
 3210TIP3    H231122   4.300   3.580   5.027 -0.2628  0.1485  0.1702
 3211TIP3   OH231123   5.660   1.278  10.620  0.6947  0.0955  0.0369
 3211TIP3    H131124   5.719   1.255  10.548  0.7704 -0.0591  0.1480
 3211TIP3    H231125   5.585   1.318  10.576 -0.0163 -1.4992 -0.2897
 3212TIP3   OH231126   2.553   0.726  12.566  0.2390 -0.5243 -0.4993
 3212TIP3    H131127   2.530   0.672  12.642  1.6250 -1.1720 -0.5123
 3212TIP3    H231128   2.557   0.664  12.493  0.5149 -0.1802 -0.7806
 3213TIP3   OH231129   2.983   5.311   0.848  0.0062  0.0714 -0.0839
 3213TIP3    H131130   2.924   5.288   0.920  0.8683 -0.3210  0.5111
 3213TIP3    H231131   3.023   5.229   0.822 -0.0392  0.2669 -0.7938
 3214TIP3   OH231132   1.466   4.724   6.868  0.0772 -0.0401  0.2608
 3214TIP3    H131133   1.434   4.728   6.778 -0.1406 -0.6265  0.3045
 3214TIP3    H231134   1.558   4.750   6.862  0.2138 -0.6075 -0.2218
 3215TIP3   OH231135   3.295   6.070  16.307 -0.1458 -0.1838  0.1598
 3215TIP3    H131136   3.265   6.043  16.220  0.3746  0.1763 -0.1349
 3215TIP3    H231137   3.290   5.990  16.359  0.0308 -0.5242 -0.3372
 3216TIP3   OH231138   2.916   2.523  11.618  1.0441 -0.3189 -0.2713
 3216TIP3    H131139   2.876   2.438  11.639  2.0300 -0.7283  0.0203
 3216TIP3    H231140   2.842   2.580  11.598  0.0643 -0.3096  2.8202
 3217TIP3   OH231141   0.992   1.807   2.668 -0.8222  0.1892 -0.2350
 3217TIP3    H131142   0.911   1.801   2.618 -0.6905 -0.7898 -0.3563
 3217TIP3    H231143   1.026   1.717   2.669 -0.6638  0.2393  1.3348
 3218TIP3   OH231144   2.345   1.570  12.861  0.0791 -0.0221  0.0597
 3218TIP3    H131145   2.432   1.595  12.829 -0.6089 -0.3011 -2.1407
 3218TIP3    H231146   2.290   1.569  12.783 -1.7024 -0.7957  1.2743
 3219TIP3   OH231147   2.223   0.154   3.891 -0.1332 -1.2396 -0.1066
 3219TIP3    H131148   2.236   0.217   3.820 -1.3472  1.4644  1.8816
 3219TIP3    H231149   2.302   0.164   3.945 -1.3572  0.4438  1.4697
 3220TIP3   OH231150   6.463   2.987   1.064 -0.4724  0.2425 -0.5665
 3220TIP3    H131151   6.504   3.064   1.105 -0.4691 -0.5938  1.0711
 3220TIP3    H231152   6.537   2.932   1.038 -0.4893  0.2709 -0.6721
 3221TIP3   OH231153   1.096   5.761   6.444  0.4861 -0.2610 -0.1005
 3221TIP3    H131154   1.155   5.816   6.392  1.0196  0.7364  1.4508
 3221TIP3    H231155   1.155   5.713   6.503 -0.1261 -0.8884  0.0076
 3222TIP3   OH231156   2.791   3.126  15.611 -0.3087  0.0874  0.5227
 3222TIP3    H131157   2.883   3.145  15.629 -0.6406  2.3980  0.1311
 3222TIP3    H231158   2.792   3.061  15.542  0.9977 -1.0089  1.5167
 3223TIP3   OH231159   5.316   3.484   1.729  0.5776  0.3791 -0.0324
 3223TIP3    H131160   5.399   3.532   1.721  0.8037  0.0010  0.0120
 3223TIP3    H231161   5.262   3.517   1.658  0.9705  0.2345 -0.4007
 3224TIP3   OH231162   1.649   5.783   5.689 -0.3562  0.4839  0.3875
 3224TIP3    H131163   1.649   5.691   5.714 -2.1157  0.8431  1.9088
 3224TIP3    H231164   1.581   5.823   5.742 -0.9315  2.3273 -1.5711
 3225TIP3   OH231165   4.618   3.980  11.234 -0.1673  1.0689 -0.4921
 3225TIP3    H131166   4.646   4.026  11.154 -0.8967  1.1897 -0.6889
 3225TIP3    H231167   4.699   3.968  11.284  0.2089  1.5446 -0.9643
 3226TIP3   OH231168   2.017   4.686   5.557  0.0935  0.1628  0.3731
 3226TIP3    H131169   1.945   4.746   5.576 -0.4787 -0.6321  0.8378
 3226TIP3    H231170   2.008   4.617   5.624  1.8428  0.5111  1.0153
 3227TIP3   OH231171   0.545   5.178  15.080 -0.0607  0.2131  0.0192
 3227TIP3    H131172   0.622   5.127  15.105 -0.2507  0.2811  0.7449
 3227TIP3    H231173   0.548   5.179  14.984 -0.4391 -1.7805 -0.0629
 3228TIP3   OH231174   0.497   3.257  10.349  0.0550 -0.8337  0.0756
 3228TIP3    H131175   0.431   3.224  10.410 -1.4789 -1.6924 -1.9762
 3228TIP3    H231176   0.523   3.181  10.298 -0.5969  0.3135 -2.0661
 3229TIP3   OH231177   0.440   3.171  16.492 -0.4700  0.1350 -0.0127
 3229TIP3    H131178   0.448   3.092  16.439 -0.1145 -0.6932  1.2306
 3229TIP3    H231179   0.528   3.187  16.526 -1.0495 -0.5375  1.9385
 3230TIP3   OH231180   6.222   5.905   3.286 -0.0758  0.8825 -0.5381
 3230TIP3    H131181   6.198   5.963   3.358 -1.0063  2.4095 -2.0052
 3230TIP3    H231182   6.289   5.848   3.322 -0.6136  1.4945  1.5654
 3231TIP3   OH231183   1.619   0.580  13.459 -0.6838  0.6918 -0.3369
 3231TIP3    H131184   1.683   0.509  13.466 -0.1668  1.3002  1.5543
 3231TIP3    H231185   1.544   0.540  13.414 -0.6432 -1.2469  1.1690
 3232TIP3   OH231186   3.506   1.000  11.667 -0.4537  0.3556  0.2388
 3232TIP3    H131187   3.539   0.963  11.749 -2.6407  0.4027  1.2109
 3232TIP3    H231188   3.578   1.053  11.633  0.8626 -0.5122  1.5710
 3233TIP3   OH231189   6.195   1.452  12.956 -0.0455  0.0137  0.0679
 3233TIP3    H131190   6.201   1.514  12.884  3.5483 -2.4164 -2.0584
 3233TIP3    H231191   6.121   1.396  12.933 -1.0958  1.2903  0.1862
 3234TIP3   OH231192   1.192   5.673   0.800 -0.5386  0.2345 -0.1829
 3234TIP3    H131193   1.205   5.656   0.707  0.5249  1.9573 -0.3836
 3234TIP3    H231194   1.101   5.703   0.806 -0.7259 -0.2268 -0.5916
 3235TIP3   OH231195   1.496   2.743  15.104 -1.3359 -0.3561 -0.0384
 3235TIP3    H131196   1.572   2.687  15.119 -0.8714  0.4349  0.6484
 3235TIP3    H231197   1.531   2.818  15.055 -1.3179  0.8169  1.7077
 3236TIP3   OH231198   5.137   2.671  14.842 -0.1488 -0.0545 -0.4581
 3236TIP3    H131199   5.119   2.763  14.824 -1.7627 -0.4494 -1.0134
 3236TIP3    H231200   5.074   2.647  14.910 -0.0684 -0.8587 -0.6559
 3237TIP3   OH231201   1.267   0.739  13.516 -0.7554 -0.3528  0.4663
 3237TIP3    H131202   1.247   0.814  13.572  2.1047  1.9898 -1.3462
 3237TIP3    H231203   1.217   0.756  13.436 -0.4370 -0.6128  0.2079
 3238TIP3   OH231204   1.265   4.939  13.436 -0.0947  0.1705 -0.0178
 3238TIP3    H131205   1.306   4.854  13.420  1.0433  0.7368 -0.1556
 3238TIP3    H231206   1.337   5.002  13.434 -0.7274  0.9899  1.3968
 3239TIP3   OH231207   1.039   5.772   2.430 -0.2173 -0.0134  0.0684
 3239TIP3    H131208   1.010   5.692   2.473 -1.2198  0.2834 -0.0145
 3239TIP3    H231209   1.116   5.800   2.480 -0.7371 -0.2304  1.0202
 3240TIP3   OH231210   2.257   4.183   1.636 -0.0705  0.7974  0.1700
 3240TIP3    H131211   2.229   4.257   1.584 -1.7452 -0.0712 -0.2289
 3240TIP3    H231212   2.177   4.133   1.654  1.0638 -1.2828 -0.1656
 3241TIP3   OH231213   1.209   2.594  15.473 -0.1756  0.1471  0.4509
 3241TIP3    H131214   1.146   2.570  15.541 -0.2653  0.6254  0.5439
 3241TIP3    H231215   1.157   2.642  15.409 -0.1367 -0.5144 -0.0795
 3242TIP3   OH231216   1.114   1.241   2.315  0.5518 -0.2550  0.1161
 3242TIP3    H131217   1.050   1.292   2.364  0.9316  0.2383  0.1015
 3242TIP3    H231218   1.118   1.283   2.229  0.6196 -0.5097 -0.0072
 3243TIP3   OH231219   1.031   0.695  12.426  0.6780 -0.0532 -0.2442
 3243TIP3    H131220   1.108   0.640  12.441  0.8758  0.5426  1.0667
 3243TIP3    H231221   1.017   0.740  12.509 -1.1484 -0.2075 -0.4237
 3244TIP3   OH231222   6.518   3.583  15.248 -0.0386  0.7363  0.2421
 3244TIP3    H131223   6.501   3.658  15.191  2.4332  2.2877  1.3528
 3244TIP3    H231224   6.578   3.528  15.197 -0.8648  0.1140 -0.0845
 3245TIP3   OH231225   2.866   3.415   5.019 -0.1422 -0.0458 -0.1364
 3245TIP3    H131226   2.917   3.334   5.030  0.6183  0.0396 -2.4053
 3245TIP3    H231227   2.920   3.483   5.057 -0.1933 -0.4142  0.6175
 3246TIP3   OH231228   2.530   6.389  15.474  0.7720 -0.4097  0.6537
 3246TIP3    H131229   2.534   6.478  15.440  0.9592 -1.3195 -1.8952
 3246TIP3    H231230   2.504   6.399  15.566 -0.3913  2.1953  0.1163
 3247TIP3   OH231231   3.812   0.477  11.578 -0.5136  0.0861 -0.8575
 3247TIP3    H131232   3.805   0.566  11.544 -2.0974 -0.0231 -0.8695
 3247TIP3    H231233   3.881   0.437  11.525 -1.2482  0.6617 -2.3084
 3248TIP3   OH231234   3.527   0.416   1.481 -0.4997  0.2872  0.0109
 3248TIP3    H131235   3.434   0.402   1.500 -0.4320  0.7132  0.7202
 3248TIP3    H231236   3.531   0.504   1.443 -0.4850 -0.0754 -0.8328
 3249TIP3   OH231237   1.968   5.730   0.730  0.1234 -0.1714  0.3392
 3249TIP3    H131238   2.033   5.661   0.744  0.6026  0.1531 -0.2419
 3249TIP3    H231239   1.890   5.699   0.776 -0.4816 -2.2656 -1.8997
 3250TIP3   OH231240   3.054   3.297   4.612  0.0871  0.0084  0.2224
 3250TIP3    H131241   2.965   3.263   4.602  0.6201 -2.3459  2.4904
 3250TIP3    H231242   3.088   3.301   4.522 -2.2192  0.8480 -0.6789
 3251TIP3   OH231243   0.285   3.436  15.023 -0.0198 -0.1387 -0.3069
 3251TIP3    H131244   0.272   3.363  14.963  1.1069 -0.5735 -0.0467
 3251TIP3    H231245   0.270   3.399  15.110  1.8849 -0.4474 -0.0639
 3252TIP3   OH231246   5.245   1.562  15.195  0.5168 -0.1938  0.0867
 3252TIP3    H131247   5.263   1.511  15.116  0.2791  0.7309 -0.5869
 3252TIP3    H231248   5.150   1.575  15.194  0.4155 -0.8110  0.9324
 3253TIP3   OH231249   2.627   0.593   5.475 -0.0579 -0.6117 -0.3878
 3253TIP3    H131250   2.542   0.556   5.497 -0.1127  0.1177  0.6951
 3253TIP3    H231251   2.683   0.518   5.457 -0.7211 -1.1263 -0.3251
 3254TIP3   OH231252   1.651   4.671  14.926 -0.3891  0.3712 -0.0174
 3254TIP3    H131253   1.738   4.694  14.959  0.1346 -1.6025  0.1344
 3254TIP3    H231254   1.607   4.631  15.001 -0.7238 -0.3533 -0.5876
 3255TIP3   OH231255   6.458   1.419   1.051  0.2617 -0.0803  0.1556
 3255TIP3    H131256   6.421   1.501   1.017  0.0389 -0.0358  0.5038
 3255TIP3    H231257   6.399   1.393   1.121 -1.0990 -1.8888 -1.5618
 3256TIP3   OH231258   5.576   3.752   0.928 -0.2506  0.1976 -0.2481
 3256TIP3    H131259   5.557   3.693   0.855  0.9381  0.6779 -0.9842
 3256TIP3    H231260   5.490   3.787   0.953 -0.6374  0.5067 -1.8499
 3257TIP3   OH231261   1.401   1.964  15.957  0.1965  0.6804 -0.0186
 3257TIP3    H131262   1.489   1.932  15.975  0.6481 -0.2282 -3.2292
 3257TIP3    H231263   1.346   1.885  15.958 -0.0450  0.8291 -0.6382
 3258TIP3   OH231264   1.877   4.271  16.091  0.0113 -0.6160  0.0402
 3258TIP3    H131265   1.948   4.317  16.046  0.5601  0.4068  1.8268
 3258TIP3    H231266   1.814   4.340  16.112 -0.3692 -1.1086  0.5458
 3259TIP3   OH231267   1.965   4.665  15.244 -0.0752 -0.3673 -0.0367
 3259TIP3    H131268   1.963   4.717  15.324 -1.4206 -2.1647  1.1901
 3259TIP3    H231269   2.056   4.639  15.234  0.0867 -0.2599  1.0349
 3260TIP3   OH231270   3.588   0.544   5.446 -0.2792 -0.2953  0.2082
 3260TIP3    H131271   3.575   0.605   5.373 -0.9698 -0.8761 -0.1728
 3260TIP3    H231272   3.655   0.484   5.414  0.0955  0.0062  0.4204
 3261TIP3   OH231273   1.793   5.645  14.463  0.1044 -0.3303 -0.3527
 3261TIP3    H131274   1.745   5.720  14.496  0.1969 -1.2422  2.0501
 3261TIP3    H231275   1.735   5.607  14.397 -1.1241  0.3286  0.3077
 3262TIP3   OH231276   2.432   4.895  15.152 -0.1292  0.0473 -0.0396
 3262TIP3    H131277   2.359   4.862  15.099  0.3788  0.8928 -1.3339
 3262TIP3    H231278   2.507   4.893  15.092  0.7569 -0.1547  1.0588
 3263TIP3   OH231279   3.906   0.356  12.506  0.2428 -0.1661  0.1381
 3263TIP3    H131280   3.890   0.275  12.458 -0.8960  1.0767 -1.6884
 3263TIP3    H231281   4.000   0.355  12.524  0.4870 -1.2499 -1.0649
 3264TIP3   OH231282   4.692   3.266   2.766 -0.1999 -0.8948 -0.4379
 3264TIP3    H131283   4.636   3.198   2.802 -0.2991 -0.9507 -0.6986
 3264TIP3    H231284   4.699   3.331   2.837  1.1819 -1.9063  0.3991
 3265TIP3   OH231285   3.808   0.038   3.168  0.1846 -0.2139 -0.3338
 3265TIP3    H131286   3.792  -0.015   3.247  0.1145  1.2085  0.6452
 3265TIP3    H231287   3.736   0.016   3.109 -0.5572 -0.2717  0.5677
 3266TIP3   OH231288   6.502   0.647   4.663  0.1279 -0.2434  0.3295
 3266TIP3    H131289   6.520   0.557   4.689 -2.2009 -1.2811 -1.2350
 3266TIP3    H231290   6.406   0.651   4.656  0.1036  2.5822  1.0087
 3267TIP3   OH231291   0.685   0.576  17.091  0.2968 -0.2298 -0.1117
 3267TIP3    H131292   0.731   0.496  17.117  0.7198 -0.7079 -2.1709
 3267TIP3    H231293   0.596   0.547  17.072  0.5960 -0.3593 -1.4149
 3268TIP3   OH231294   6.536   0.022  14.494  0.2900  0.2029 -0.1655
 3268TIP3    H131295   6.584  -0.058  14.512 -0.1523  0.2206  1.2182
 3268TIP3    H231296   6.446   0.002  14.519 -0.0513  0.7907 -0.8638
 3269TIP3   OH231297   6.497   2.387   3.440  0.0079  0.2424  0.3922
 3269TIP3    H131298   6.555   2.418   3.510  0.5961 -0.6720  0.3332
 3269TIP3    H231299   6.476   2.466   3.390  0.4745  0.7335  0.9490
 3270TIP3   OH231300   3.975   5.695   0.455 -0.1213 -0.0149 -0.2132
 3270TIP3    H131301   3.981   5.700   0.359  1.2080 -2.3011 -0.3283
 3270TIP3    H231302   3.916   5.620   0.470  1.2405 -0.9434  0.6909
 3271TIP3   OH231303   0.072   2.172   0.274  0.4364 -0.1385 -0.7884
 3271TIP3    H131304   0.028   2.087   0.265  0.4641 -0.2482  0.0330
 3271TIP3    H231305   0.027   2.229   0.211 -0.3223 -0.4689 -0.5589
 3272TIP3   OH231306   1.771   1.222  14.512  0.1370 -0.1238 -0.0476
 3272TIP3    H131307   1.784   1.128  14.497  2.5821  0.0235  0.7788
 3272TIP3    H231308   1.844   1.264  14.467 -0.9414  1.4200 -0.4417
 3273TIP3   OH231309   5.232   3.474   1.994 -0.0989  0.4762 -0.3064
 3273TIP3    H131310   5.272   3.473   1.907  0.5433 -0.1826 -0.0195
 3273TIP3    H231311   5.248   3.385   2.028 -0.4357  0.6945  0.4371
 3274TIP3   OH231312   4.958   1.845   1.724 -0.1507  0.7873  0.2423
 3274TIP3    H131313   4.899   1.800   1.785  1.0567 -2.0412 -0.5041
 3274TIP3    H231314   5.045   1.813   1.747  0.8914  3.1909 -0.0813
 3275TIP3   OH231315   3.076   2.216   5.152  0.4787  0.0000 -0.4902
 3275TIP3    H131316   3.166   2.215   5.120 -0.0903 -0.0381 -2.2166
 3275TIP3    H231317   3.050   2.308   5.149  0.5421  0.0443  0.2646
 3276TIP3   OH231318   3.454   4.855  12.356 -0.7989  0.1896 -0.5942
 3276TIP3    H131319   3.399   4.871  12.433  1.1261 -0.3437  0.9627
 3276TIP3    H231320   3.543   4.873  12.386  0.1860 -1.6579 -2.2157
 3277TIP3   OH231321   1.305   2.140  16.341 -0.2438 -0.2380  0.7973
 3277TIP3    H131322   1.379   2.116  16.285 -0.7384 -0.8129  0.3843
 3277TIP3    H231323   1.341   2.137  16.430  0.8479  1.7591  0.4843
 3278TIP3   OH231324   3.798   3.476   3.539 -1.1686 -0.1635  0.7796
 3278TIP3    H131325   3.742   3.549   3.565  0.9961  1.2340  1.8429
 3278TIP3    H231326   3.840   3.506   3.459 -1.3535 -0.8960  0.3957
 3279TIP3   OH231327   6.670   3.936   4.848  0.4220 -0.5038 -0.1727
 3279TIP3    H131328   6.705   3.998   4.784  0.5372  0.6550  0.9696
 3279TIP3    H231329   6.730   3.942   4.923 -0.5808 -0.6233  0.6691
 3280TIP3   OH231330   0.355   0.413   0.699  0.0505 -0.3233 -0.1156
 3280TIP3    H131331   0.414   0.448   0.765  0.4419 -1.4032  0.1234
 3280TIP3    H231332   0.317   0.335   0.739 -0.3853 -0.4880 -0.8284
 3281TIP3   OH231333   5.718   6.513   5.360 -0.0967  0.7540 -0.3984
 3281TIP3    H131334   5.730   6.608   5.358  0.9170  0.6219 -1.5620
 3281TIP3    H231335   5.805   6.478   5.342 -0.0508 -0.4504  1.7958
 3282TIP3   OH231336   5.048   5.715   2.582 -0.3114  0.0033  0.2202
 3282TIP3    H131337   5.086   5.682   2.500 -0.6149 -1.4290  0.6352
 3282TIP3    H231338   4.953   5.712   2.567 -0.5079 -2.7341  1.4713
 3283TIP3   OH231339   1.714   3.321  11.584  0.1239  0.1341  0.7274
 3283TIP3    H131340   1.628   3.362  11.596  0.8263  1.7212  0.5589
 3283TIP3    H231341   1.777   3.389  11.608  1.3518 -1.0238  0.9245
 3284TIP3   OH231342   4.379   2.590  14.954  0.4640 -0.0984 -0.1704
 3284TIP3    H131343   4.292   2.605  14.991  0.4297  1.6395 -0.8709
 3284TIP3    H231344   4.366   2.599  14.860  1.2120 -0.9734 -0.3686
 3285TIP3   OH231345   0.850   4.580  16.070 -0.1553  0.2747 -0.2897
 3285TIP3    H131346   0.876   4.513  16.007  0.4232  1.2519 -1.1248
 3285TIP3    H231347   0.758   4.597  16.051  0.0801  0.7411 -1.0628
 3286TIP3   OH231348   6.461   4.773   3.766  0.1195  1.2386  0.5635
 3286TIP3    H131349   6.553   4.754   3.786 -0.2173 -1.6526 -0.1302
 3286TIP3    H231350   6.424   4.802   3.849  1.1419  0.0542  1.4818
 3287TIP3   OH231351   3.336   6.647   6.494  0.5476  0.5935 -0.0475
 3287TIP3    H131352   3.282   6.705   6.440  0.2519  0.4114  0.0533
 3287TIP3    H231353   3.291   6.642   6.578  0.2605 -0.2387 -0.2417
 3288TIP3   OH231354   1.640   4.507   0.762 -0.3616  0.1915 -0.4248
 3288TIP3    H131355   1.697   4.584   0.764 -0.5763  0.3461 -0.1732
 3288TIP3    H231356   1.635   4.479   0.853 -0.8596  0.3106 -0.4109
 3289TIP3   OH231357   2.097   3.088   1.409 -0.1855 -0.0293 -0.1592
 3289TIP3    H131358   2.041   3.165   1.416 -0.0902 -0.0111  0.5554
 3289TIP3    H231359   2.146   3.087   1.492 -1.4033 -1.7864  0.6056
 3290TIP3   OH231360   5.191   2.169  14.632  0.1292  0.1055  0.2103
 3290TIP3    H131361   5.227   2.242  14.681  0.8159 -1.0416  1.4865
 3290TIP3    H231362   5.101   2.161  14.662 -0.3733  1.2099 -0.9052
 3291TIP3   OH231363   6.584   1.091  13.837 -0.0930  0.1780 -0.3727
 3291TIP3    H131364   6.514   1.065  13.897  0.2690 -1.1763 -0.5223
 3291TIP3    H231365   6.659   1.111  13.895 -0.7444  2.2943 -0.1595
 3292TIP3   OH231366   3.252   3.068   4.582 -0.4230 -0.1561  0.0254
 3292TIP3    H131367   3.234   3.158   4.556  0.3295 -0.0272 -0.0597
 3292TIP3    H231368   3.170   3.038   4.621 -1.2125  0.0054 -1.4452
 3293TIP3   OH231369   5.663   6.280  16.740  0.4303  0.1881 -0.1143
 3293TIP3    H131370   5.648   6.186  16.752 -1.9131  0.3222 -1.5375
 3293TIP3    H231371   5.627   6.299  16.654  2.6835  2.0662 -0.7341
 3294TIP3   OH231372   1.908   5.556   2.203 -0.2793 -0.1316 -0.1079
 3294TIP3    H131373   1.963   5.591   2.273  0.3352 -1.0499 -0.1052
 3294TIP3    H231374   1.925   5.613   2.128  3.7928 -2.5092 -1.3356
 3295TIP3   OH231375   2.428   1.585  13.700  0.6172  0.0660  0.8261
 3295TIP3    H131376   2.334   1.601  13.702  0.8527  2.6395 -1.5821
 3295TIP3    H231377   2.443   1.539  13.617  1.6056  0.9592  0.4858
 3296TIP3   OH231378   6.240   5.320  13.783 -0.3756  0.2271  0.1933
 3296TIP3    H131379   6.200   5.242  13.745  1.0017 -0.9131  0.9922
 3296TIP3    H231380   6.277   5.290  13.866  1.2032  1.4535 -0.0224
 3297TIP3   OH231381   4.043   6.239  13.537 -0.2421 -0.1360  0.6269
 3297TIP3    H131382   4.129   6.264  13.504 -0.4219 -0.0476  0.2250
 3297TIP3    H231383   4.044   6.266  13.629 -0.6549  1.9767  0.0801
 3298TIP3   OH231384   1.893   3.489   2.819  0.4961  0.1022  0.5306
 3298TIP3    H131385   1.954   3.422   2.789 -0.6933 -0.2443 -1.1991
 3298TIP3    H231386   1.909   3.564   2.761 -0.4974  0.1177  0.2650
 3299TIP3   OH231387   5.771   5.813  15.563  0.4453 -0.3325  0.3466
 3299TIP3    H131388   5.814   5.729  15.577  0.7312 -0.8577 -2.8961
 3299TIP3    H231389   5.817   5.874  15.621  1.5406 -1.9985  1.3007
 3300TIP3   OH231390   6.004   0.658   5.611 -0.4021  0.2873  0.3909
 3300TIP3    H131391   6.015   0.593   5.680 -0.9083 -0.8314 -0.5432
 3300TIP3    H231392   5.997   0.606   5.530  2.6059  1.6167 -0.8681
 3301TIP3   OH231393   3.302   6.627  16.081 -0.2392  0.2917 -0.6110
 3301TIP3    H131394   3.367   6.562  16.053  0.5631  0.9294 -0.2786
 3301TIP3    H231395   3.300   6.620  16.176  0.2475  1.0953 -0.5267
 3302TIP3   OH231396   1.756   3.100   1.602 -0.0450 -0.8219 -0.2102
 3302TIP3    H131397   1.698   3.176   1.598 -1.1762 -1.6954 -1.1856
 3302TIP3    H231398   1.711   3.033   1.551 -0.9982 -3.4274  3.6108
 3303TIP3   OH231399   5.626   2.780  14.402  0.2720  0.4595  0.0030
 3303TIP3    H131400   5.536   2.786  14.434  0.3185  1.9320 -0.0535
 3303TIP3    H231401   5.652   2.690  14.419 -0.7370  0.3887  1.3316
 3304TIP3   OH231402   0.666   2.423   1.109 -0.1713  0.1986  0.1804
 3304TIP3    H131403   0.603   2.484   1.071  1.3093  0.9834 -1.2000
 3304TIP3    H231404   0.641   2.337   1.075 -0.0329  0.6260 -1.0695
 3305TIP3   OH231405   1.419   4.644  12.459  0.1403 -0.0269 -0.4400
 3305TIP3    H131406   1.347   4.703  12.437  1.0032  0.5297 -1.8283
 3305TIP3    H231407   1.441   4.666  12.550 -1.8309 -0.6604  0.2603
 3306TIP3   OH231408   6.085   3.927  14.060 -0.3516 -0.1400  0.2071
 3306TIP3    H131409   6.111   4.018  14.046  0.0203 -0.4426 -1.1379
 3306TIP3    H231410   6.125   3.879  13.988 -1.5834 -1.1818  0.1874
 3307TIP3   OH231411   6.148   5.146   2.956  0.6983 -0.1145 -0.2026
 3307TIP3    H131412   6.165   5.224   2.902  0.5494  1.1384  1.4848
 3307TIP3    H231413   6.141   5.180   3.045  0.0302 -2.0063  0.5069
 3308TIP3   OH231414   5.713   2.532   6.054  0.0606  0.1764 -0.4664
 3308TIP3    H131415   5.665   2.450   6.041 -0.3205  0.1574  0.9279
 3308TIP3    H231416   5.746   2.527   6.144 -0.4182  1.7661 -0.1639
 3309TIP3   OH231417   0.622   2.515  13.598  0.1623 -0.0580 -0.0522
 3309TIP3    H131418   0.588   2.594  13.638  0.3638 -0.4460  0.9149
 3309TIP3    H231419   0.716   2.517  13.615  0.0965 -0.7659  0.4868
 3310TIP3   OH231420   0.844   1.458   5.408  0.0984  0.1700  0.2605
 3310TIP3    H131421   0.838   1.386   5.345  0.0961 -0.4877  0.9927
 3310TIP3    H231422   0.809   1.534   5.361 -4.0383 -1.1486  0.7522
 3311TIP3   OH231423   4.369   6.195   2.983 -0.1551 -0.3960  0.2927
 3311TIP3    H131424   4.432   6.249   3.031  0.2303 -2.1820  1.9079
 3311TIP3    H231425   4.316   6.154   3.051 -1.2111 -1.1395 -0.9405
 3312TIP3   OH231426   0.389   1.793   3.443  0.4654 -0.1923  0.5133
 3312TIP3    H131427   0.345   1.845   3.376 -1.0678 -0.8651  0.9492
 3312TIP3    H231428   0.436   1.857   3.497  0.8124  0.4505 -0.5249
 3313TIP3   OH231429   0.497   1.812  11.545 -0.0530  0.2623 -0.0085
 3313TIP3    H131430   0.403   1.794  11.536 -0.3398  0.4143  2.2378
 3313TIP3    H231431   0.502   1.878  11.613  1.6742  0.8234 -0.6354
 3314TIP3   OH231432   3.763   5.682   2.832 -0.0110 -0.2401  0.0742
 3314TIP3    H131433   3.853   5.693   2.865  0.8881 -0.8249 -2.0181
 3314TIP3    H231434   3.741   5.592   2.853 -0.6706  0.2671  1.7547
 3315TIP3   OH231435   6.411   3.596   5.826 -0.3012  0.1976 -0.5040
 3315TIP3    H131436   6.448   3.517   5.785  0.2447 -0.1363  0.5768
 3315TIP3    H231437   6.460   3.604   5.908 -1.4784  0.7387  0.1575
 3316TIP3   OH231438   0.968   4.311   3.097  0.1672  0.2013  0.2952
 3316TIP3    H131439   1.025   4.388   3.091  0.0601  0.4652  2.1037
 3316TIP3    H231440   0.879   4.347   3.098  0.1545  0.2366  2.7456
 3317TIP3   OH231441   4.903   5.515   0.088  0.2857  0.4890 -0.1499
 3317TIP3    H131442   4.989   5.555   0.104 -0.6639  1.7646  2.1846
 3317TIP3    H231443   4.857   5.577   0.032 -0.8022  2.3415  2.6085
 3318TIP3   OH231444   0.014   4.405  12.972  0.6805  0.0119  0.1456
 3318TIP3    H131445   0.097   4.450  12.989  0.8565 -0.3902  0.3529
 3318TIP3    H231446   0.031   4.351  12.895  0.1280  1.1826 -0.8348
 3319TIP3   OH231447   1.527   3.107   0.362 -0.3562  0.4302 -0.4467
 3319TIP3    H131448   1.440   3.116   0.324 -0.0290  2.3454 -0.8665
 3319TIP3    H231449   1.555   3.019   0.339 -1.9939 -0.0470 -0.6988
 3320TIP3   OH231450   5.918   3.664  17.117 -0.1506  0.6632 -0.3233
 3320TIP3    H131451   5.850   3.671  17.184  1.6752  0.9396  1.6324
 3320TIP3    H231452   5.949   3.574  17.124  0.9181  1.0484  0.1650
 3321TIP3   OH231453   5.120   5.308  13.358  1.1758 -0.4793 -0.2320
 3321TIP3    H131454   5.089   5.360  13.432 -0.0913 -2.1887  0.5224
 3321TIP3    H231455   5.083   5.351  13.281 -1.5407 -1.2624  0.4951
 3322TIP3   OH231456   0.980   1.598   3.004 -0.6267  0.4820  0.2403
 3322TIP3    H131457   0.991   1.514   2.958  1.6639  0.3790  0.8502
 3322TIP3    H231458   0.892   1.594   3.041 -0.6330 -1.6070  0.1221
 3323TIP3   OH231459   4.084   4.618  15.733  0.0487  0.4122 -0.5087
 3323TIP3    H131460   3.993   4.620  15.703  0.3680  1.6960 -1.5008
 3323TIP3    H231461   4.078   4.603  15.827 -1.1670  0.1070 -0.6202
 3324TIP3   OH231462   3.377   3.422  16.101 -0.6911 -0.1883  0.2250
 3324TIP3    H131463   3.438   3.481  16.146  1.1235 -0.7954 -1.3201
 3324TIP3    H231464   3.310   3.479  16.065  0.4187  0.8263 -0.2839
 3325TIP3   OH231465   0.138   2.394   1.228 -0.3761  0.1836 -0.2445
 3325TIP3    H131466   0.191   2.471   1.209  1.1316 -0.7721 -0.0847
 3325TIP3    H231467   0.156   2.333   1.157 -1.0109 -0.3001 -0.0063
 3326TIP3   OH231468   2.815   1.449  12.948 -0.3644 -0.1004 -0.9386
 3326TIP3    H131469   2.868   1.388  12.999 -0.3590  2.3895  2.3987
 3326TIP3    H231470   2.878   1.499  12.896  0.1188  0.0559 -0.2067
 3327TIP3   OH231471   2.295   1.713   2.054 -0.3811 -0.0547  0.4130
 3327TIP3    H131472   2.229   1.718   2.123  0.8268  1.9325  1.5068
 3327TIP3    H231473   2.256   1.759   1.980 -1.2799 -1.3154  0.0665
 3328TIP3   OH231474   4.042   4.729  12.769 -0.1306 -0.6004  0.1400
 3328TIP3    H131475   3.981   4.737  12.842  1.1254  0.6919  1.0998
 3328TIP3    H231476   4.101   4.804  12.778  0.2974 -0.6085 -1.9992
 3329TIP3   OH231477   1.480   6.616  12.184  0.2118  0.1898 -0.3057
 3329TIP3    H131478   1.423   6.539  12.181  0.5546 -0.0915  0.1408
 3329TIP3    H231479   1.567   6.581  12.164  0.3321  0.5058 -0.3334
 3330TIP3   OH231480   2.785   4.921   3.900  0.1495  0.2259 -0.7186
 3330TIP3    H131481   2.790   4.856   3.831  1.9654 -1.4659  0.9197
 3330TIP3    H231482   2.710   4.894   3.953  0.4076 -0.0597 -0.4988
 3331TIP3   OH231483   3.462   5.024  15.872 -0.1558 -0.8567 -0.6711
 3331TIP3    H131484   3.530   4.956  15.871 -0.0366 -0.7327 -1.1430
 3331TIP3    H231485   3.501   5.095  15.923 -0.5892 -1.4485  0.5156
 3332TIP3   OH231486   2.297   4.205  17.196  0.1816 -0.4304  0.1442
 3332TIP3    H131487   2.226   4.149  17.228 -1.1710  1.0625 -0.1022
 3332TIP3    H231488   2.318   4.262  17.270  0.0788  0.1137 -0.2360
 3333TIP3   OH231489   2.530   6.110   2.379 -0.2841 -0.2888  0.5476
 3333TIP3    H131490   2.606   6.052   2.371  0.7353  1.1666 -0.8968
 3333TIP3    H231491   2.454   6.052   2.374  0.7075 -1.5474 -0.4428
 3334TIP3   OH231492   0.496   5.482  14.550  0.1513  0.2673  0.4901
 3334TIP3    H131493   0.558   5.416  14.517 -0.9975 -1.3668  1.4680
 3334TIP3    H231494   0.431   5.490  14.481 -0.2091 -0.3381  0.7512
 3335TIP3   OH231495   6.656   5.199   0.883  0.1963  0.3469 -0.4511
 3335TIP3    H131496   6.749   5.190   0.858  0.4222  0.1605  0.4358
 3335TIP3    H231497   6.608   5.163   0.808  0.8852 -0.7967 -0.3633
 3336TIP3   OH231498   6.657   3.308  11.905  0.4578 -0.0148  0.0913
 3336TIP3    H131499   6.605   3.252  11.848  1.1734  1.6945 -2.4077
 3336TIP3    H231500   6.708   3.247  11.958 -1.5086 -1.6844  0.1743
 3337TIP3   OH231501   4.008   3.283   1.560 -0.2317  0.5845  0.1189
 3337TIP3    H131502   4.089   3.328   1.583  0.2913  0.0147 -0.5566
 3337TIP3    H231503   3.974   3.330   1.483  0.3697 -0.2074 -0.6514
 3338TIP3   OH231504   5.141   5.837  16.952  0.1798  0.4344 -0.2351
 3338TIP3    H131505   5.127   5.774  17.022 -0.4937 -0.1817 -0.8957
 3338TIP3    H231506   5.135   5.785  16.872 -2.4364  1.5806 -0.9069
 3339TIP3   OH231507   1.083   4.869   3.621 -0.3031 -0.3979  0.3571
 3339TIP3    H131508   1.030   4.814   3.563 -0.0978 -1.0262  0.7473
 3339TIP3    H231509   1.128   4.929   3.563 -1.9040  0.5658  0.0679
 3340TIP3   OH231510   2.672   4.958   2.941  0.2583 -0.4086 -0.1448
 3340TIP3    H131511   2.580   4.938   2.961 -0.2024 -3.3836 -3.9206
 3340TIP3    H231512   2.722   4.889   2.984  0.3846 -0.4742 -0.3903
 3341TIP3   OH231513   0.906   0.623   1.811 -0.0830  0.2516 -0.1478
 3341TIP3    H131514   0.998   0.650   1.806  0.4650 -1.2381  0.7720
 3341TIP3    H231515   0.908   0.529   1.793 -1.1142 -0.2428  1.9014
 3342TIP3   OH231516   3.079   4.958  15.530 -0.2046  0.4388 -0.1235
 3342TIP3    H131517   3.139   4.883  15.538 -0.1217  0.6634  2.1767
 3342TIP3    H231518   3.039   4.948  15.444  1.3420 -1.0818 -0.7223
 3343TIP3   OH231519   4.217   3.840  10.724 -0.2009 -0.0734 -0.4432
 3343TIP3    H131520   4.261   3.784  10.660  0.9823 -0.4353  0.6385
 3343TIP3    H231521   4.285   3.900  10.754  0.2243 -1.9444  2.7563
 3344TIP3   OH231522   2.954   4.219  14.293  1.0732  0.2158  0.5521
 3344TIP3    H131523   2.975   4.217  14.199  1.1856  0.3462  0.5741
 3344TIP3    H231524   2.980   4.132  14.325 -3.8524 -2.0154 -0.5640
 3345TIP3   OH231525   1.115   5.453  16.680 -0.6001  0.2907  0.6552
 3345TIP3    H131526   1.097   5.360  16.673 -0.3670  0.2518  0.5836
 3345TIP3    H231527   1.032   5.495  16.657 -0.6631  0.1044  0.5398
 3346TIP3   OH231528   4.104   1.845   3.316  0.3527 -0.0394 -0.6818
 3346TIP3    H131529   4.026   1.827   3.368  1.8049 -0.4235  1.5022
 3346TIP3    H231530   4.088   1.800   3.233 -1.4442 -0.6932 -0.0451
 3347TIP3   OH231531   4.780   4.027  16.310  0.8062 -0.6616  0.1819
 3347TIP3    H131532   4.700   4.077  16.326  0.7225 -0.6044 -0.3924
 3347TIP3    H231533   4.784   4.018  16.215 -0.0969 -3.2384  0.3112
 3348TIP3   OH231534   3.662   3.855   1.883 -0.5238  0.0927  0.4089
 3348TIP3    H131535   3.725   3.863   1.812 -0.8699  0.1766  0.1055
 3348TIP3    H231536   3.714   3.856   1.963 -0.2046  1.0688  0.2050
 3349TIP3   OH231537   6.465   2.152   5.981 -0.0933  0.7099 -0.0103
 3349TIP3    H131538   6.478   2.061   5.953 -1.3951  0.4963  0.0260
 3349TIP3    H231539   6.439   2.146   6.073  0.8562  1.2005  0.3058
 3350TIP3   OH231540   0.842   1.425  11.713 -0.4381 -0.0378  0.2135
 3350TIP3    H131541   0.931   1.408  11.683 -0.0220  1.9094  0.1922
 3350TIP3    H231542   0.787   1.373  11.655  0.6452 -0.9140 -0.0757
 3351TIP3   OH231543   5.774   6.152   2.894 -0.3968 -0.2088 -0.3882
 3351TIP3    H131544   5.694   6.166   2.843 -0.6471 -1.3605 -0.3388
 3351TIP3    H231545   5.789   6.057   2.890  0.2934 -0.1591  0.6154
 3352TIP3   OH231546   3.294   2.596   4.993 -0.1274 -0.3924 -0.0074
 3352TIP3    H131547   3.232   2.621   5.061  0.9030  0.4598  0.6407
 3352TIP3    H231548   3.359   2.542   5.037  0.4537  0.0188 -0.3510
 3353TIP3   OH231549   4.288   2.365  11.978 -0.0827  0.1572 -0.4760
 3353TIP3    H131550   4.251   2.297  11.922 -1.1080  0.5598 -0.3003
 3353TIP3    H231551   4.242   2.355  12.061  1.1886 -0.2176  0.2009
 3354TIP3   OH231552   1.613   0.011  10.888  0.1774  0.4021  0.1364
 3354TIP3    H131553   1.649   0.080  10.944  0.2093  1.0744 -0.6720
 3354TIP3    H231554   1.625   0.045  10.799  0.2064 -0.6679 -0.2779
 3355TIP3   OH231555   1.135   3.620  16.317 -0.3018  0.2152 -0.5925
 3355TIP3    H131556   1.131   3.589  16.227  1.3255 -0.8480 -0.3374
 3355TIP3    H231557   1.227   3.642  16.331 -0.3443 -0.5403  1.0887
 3356TIP3   OH231558   2.095   4.384   5.095 -0.4829 -0.4244  0.2100
 3356TIP3    H131559   2.071   4.456   5.036 -1.6421 -1.1671 -0.2587
 3356TIP3    H231560   2.098   4.425   5.182 -0.9862  0.2358 -0.0675
 3357TIP3   OH231561   3.920   1.258   4.165  0.6405 -0.6330  0.1669
 3357TIP3    H131562   3.891   1.226   4.250  0.9631  1.0170  0.9479
 3357TIP3    H231563   3.842   1.298   4.127  0.9890  0.6122  0.6989
 3358TIP3   OH231564   0.935   0.401  12.050  0.0067  0.1915 -0.3328
 3358TIP3    H131565   0.935   0.383  12.144 -1.6132  0.1320 -0.3214
 3358TIP3    H231566   0.906   0.319  12.010  0.6534  0.2281 -0.8948
 3359TIP3   OH231567   6.209   5.868  15.905 -0.0595  0.1621 -0.0686
 3359TIP3    H131568   6.189   5.959  15.925 -1.3395  0.3601 -1.9678
 3359TIP3    H231569   6.124   5.824  15.904  0.4384 -0.8337 -0.1417
 3360TIP3   OH231570   4.974   6.138  13.344  0.3557 -0.1381 -0.2934
 3360TIP3    H131571   4.901   6.152  13.404  0.3955 -2.6884  0.4775
 3360TIP3    H231572   5.040   6.202  13.371  0.3550 -1.1575  2.4215
 3361TIP3   OH231573   1.903   5.797  15.036  0.1420 -0.0390  0.0448
 3361TIP3    H131574   1.838   5.791  14.966 -0.6380  1.5580  0.5869
 3361TIP3    H231575   1.982   5.831  14.993 -0.7132  2.1811  0.1023
 3362TIP3   OH231576   5.337   3.398   3.499  0.1881  0.5706  0.0844
 3362TIP3    H131577   5.262   3.379   3.556  0.0657  2.7413  0.7438
 3362TIP3    H231578   5.414   3.380   3.554  0.1213  0.3495  0.1077
 3363TIP3   OH231579   1.170   6.612  13.098 -0.5324 -0.3646  0.1167
 3363TIP3    H131580   1.102   6.646  13.040  0.0797  0.4358 -0.1559
 3363TIP3    H231581   1.137   6.632  13.186 -0.9544 -0.5867  0.0131
 3364TIP3   OH231582   5.196   2.791  16.674  0.9496 -0.4184 -0.0835
 3364TIP3    H131583   5.188   2.827  16.585  1.3012  0.2221  0.1379
 3364TIP3    H231584   5.285   2.758  16.679  0.6933 -1.1531 -0.2161
 3365TIP3   OH231585   5.590   2.367   5.405  0.0934  0.3585  0.5320
 3365TIP3    H131586   5.682   2.364   5.379  0.3104  0.4475  1.2570
 3365TIP3    H231587   5.570   2.461   5.412  0.0496  0.3385  0.6970
 3366TIP3   OH231588   0.235   5.871  12.441 -0.1542  0.0185  0.5919
 3366TIP3    H131589   0.320   5.877  12.397 -0.3621  0.6596  0.2624
 3366TIP3    H231590   0.206   5.781  12.425  0.9979 -0.6068  1.7337
 3367TIP3   OH231591   5.631   4.957  12.220 -0.0553  0.1003 -0.6458
 3367TIP3    H131592   5.557   4.954  12.160 -0.9424  0.3278  0.4159
 3367TIP3    H231593   5.593   4.944  12.306  1.3152 -1.2891 -0.1969
 3368TIP3   OH231594   3.816   0.684  14.884  0.1536  0.2152 -0.0987
 3368TIP3    H131595   3.761   0.635  14.945  0.1861 -0.7824 -0.8331
 3368TIP3    H231596   3.896   0.632  14.877 -0.3390 -0.4154 -1.9244
 3369TIP3   OH231597   5.818   0.699   2.254  0.1958 -0.1767  0.5640
 3369TIP3    H131598   5.809   0.610   2.288 -0.9164 -0.0022  0.7480
 3369TIP3    H231599   5.799   0.692   2.160  0.9076 -0.2557  0.4168
 3370TIP3   OH231600   2.739   5.204  15.215  0.0430 -0.6636  0.1075
 3370TIP3    H131601   2.720   5.186  15.307  0.5896  1.0008  0.5844
 3370TIP3    H231602   2.834   5.196  15.208 -0.0900 -1.7871 -0.5646
 3371TIP3   OH231603   1.862   0.144   3.411  0.6080  0.3851 -0.4949
 3371TIP3    H131604   1.854   0.079   3.341 -0.7560  1.3832 -1.3042
 3371TIP3    H231605   1.849   0.228   3.367  1.6293  1.1794  0.6572
 3372TIP3   OH231606   1.292   2.160   3.066  0.8541 -0.3698  0.5783
 3372TIP3    H131607   1.198   2.146   3.073  0.6128  1.2494  1.0042
 3372TIP3    H231608   1.308   2.241   3.115  2.5485 -0.8847  0.9433
 3373TIP3   OH231609   4.684   1.200  12.339  0.3640  0.0162  0.8495
 3373TIP3    H131610   4.750   1.188  12.270  0.8828 -0.2488  1.3766
 3373TIP3    H231611   4.621   1.262  12.303  2.3691  2.5008  1.3424
 3374TIP3   OH231612   5.571   1.228   5.427 -0.5976  0.1575  0.1200
 3374TIP3    H131613   5.571   1.211   5.521  1.2315  0.3802  0.2106
 3374TIP3    H231614   5.578   1.141   5.387 -0.3213  0.1215  0.2421
 3375TIP3   OH231615   4.827   3.771   0.944 -0.0457 -0.0133  0.0952
 3375TIP3    H131616   4.905   3.732   0.983 -0.3612 -2.2454 -1.3075
 3375TIP3    H231617   4.771   3.696   0.924 -1.2968  1.2957 -1.5652
 3376TIP3   OH231618   3.395   5.237  11.222  0.1230  0.3494 -0.0423
 3376TIP3    H131619   3.389   5.195  11.308  0.4083  0.5512  0.0783
 3376TIP3    H231620   3.489   5.251  11.209 -0.0237  1.9976  0.4311
 3377TIP3   OH231621   4.711   5.591  13.787  0.3649 -0.2096  0.0918
 3377TIP3    H131622   4.669   5.505  13.777 -1.0433  0.2824  1.3832
 3377TIP3    H231623   4.743   5.591  13.877 -0.9680  1.1254  0.6171
 3378TIP3   OH231624   6.357   5.645   5.475  0.2186 -0.0739 -0.0560
 3378TIP3    H131625   6.348   5.601   5.559  2.1439  0.4564  0.4661
 3378TIP3    H231626   6.382   5.577   5.413  0.0046 -0.2491  0.0497
 3379TIP3   OH231627   1.873   0.695   0.978 -0.9760 -1.0532  0.0143
 3379TIP3    H131628   1.938   0.694   1.048 -0.6919  1.7612 -0.1001
 3379TIP3    H231629   1.791   0.718   1.022 -1.4800 -2.4305 -0.1610
 3380TIP3   OH231630   0.299   2.284   1.719  1.1831  0.4937  0.0875
 3380TIP3    H131631   0.239   2.340   1.768  0.4553 -0.0562 -0.1642
 3380TIP3    H231632   0.351   2.241   1.787 -1.6456 -2.3861  0.6880
 3381TIP3   OH231633   5.018   1.989   4.296  0.2598 -0.3554  0.1747
 3381TIP3    H131634   5.001   1.958   4.207  1.9609 -0.6895 -0.0807
 3381TIP3    H231635   4.933   2.015   4.330 -0.4188 -0.2048 -1.5603
 3382TIP3   OH231636   1.019   3.832   2.295 -0.1246 -0.8216  0.0616
 3382TIP3    H131637   1.057   3.781   2.367 -0.9042 -1.4687  0.0377
 3382TIP3    H231638   1.071   3.808   2.218  0.0423 -0.9468  0.2139
 3383TIP3   OH231639   3.751   2.684   1.312  0.0215  0.0960 -0.1288
 3383TIP3    H131640   3.696   2.616   1.350 -0.2235  0.7592  0.7351
 3383TIP3    H231641   3.836   2.675   1.355 -0.1152  0.5498  0.2429
 3384TIP3   OH231642   5.645   6.250  13.102  0.2306  0.0662 -0.7988
 3384TIP3    H131643   5.679   6.327  13.148  0.8235  0.0740 -1.2353
 3384TIP3    H231644   5.666   6.266  13.010  1.6531 -1.2640 -0.7435
 3385TIP3   OH231645   6.650   1.696   1.219 -0.6812  0.4935  0.0008
 3385TIP3    H131646   6.620   1.680   1.308 -2.6043 -1.2709 -0.8710
 3385TIP3    H231647   6.593   1.765   1.186  0.7561  1.9573  0.4088
 3386TIP3   OH231648   1.213   6.468   0.686 -0.4243 -0.4090 -0.0899
 3386TIP3    H131649   1.266   6.546   0.700 -0.7638 -0.0922 -0.5558
 3386TIP3    H231650   1.124   6.494   0.711 -0.8361 -0.1671 -1.6859
 3387TIP3   OH231651   4.053   6.214   3.917 -0.2983 -0.3208 -0.7979
 3387TIP3    H131652   4.128   6.161   3.941 -0.6074 -0.6383 -0.5317
 3387TIP3    H231653   4.048   6.280   3.986  0.5193  0.5135 -1.5041
 3388TIP3   OH231654   4.941   2.710  14.168  0.3014  0.0549 -0.1018
 3388TIP3    H131655   4.950   2.765  14.246  0.0254 -0.5228  0.3490
 3388TIP3    H231656   5.021   2.658  14.166  0.4135  0.2357 -0.3379
 3389TIP3   OH231657   0.006   1.200  14.765 -0.7005  0.1391  0.0322
 3389TIP3    H131658  -0.017   1.121  14.815 -2.0134  0.9595  0.7995
 3389TIP3    H231659   0.098   1.216  14.786 -0.5867 -0.8562  0.3317
 3390TIP3   OH231660   6.379   3.251  14.480  0.2097  0.1355  0.0309
 3390TIP3    H131661   6.306   3.276  14.537 -0.0904 -0.1000 -0.2494
 3390TIP3    H231662   6.399   3.330  14.430 -1.7151 -0.4997 -1.9347
 3391TIP3   OH231663   0.797   1.178   3.043 -0.0254  0.0748 -0.3668
 3391TIP3    H131664   0.769   1.127   3.119 -3.5701  3.4061  0.8843
 3391TIP3    H231665   0.872   1.229   3.075 -0.1944 -0.0639  0.2749
 3392TIP3   OH231666   6.672   5.355  12.384  0.4723  0.5144 -0.3615
 3392TIP3    H131667   6.758   5.340  12.346  0.6294  0.6647 -0.0701
 3392TIP3    H231668   6.674   5.446  12.413  0.3558  0.4035  0.0013
 3393TIP3   OH231669   3.997   1.108  14.426  0.1311 -0.3472  0.2040
 3393TIP3    H131670   3.998   1.041  14.358 -0.5133 -0.2713  0.1216
 3393TIP3    H231671   3.909   1.105  14.463  0.5142 -0.4778  1.1312
 3394TIP3   OH231672   4.076   3.630   0.652  0.1817  0.6240 -0.3578
 3394TIP3    H131673   4.109   3.556   0.704  0.6591  0.8832 -0.2839
 3394TIP3    H231674   4.034   3.687   0.716  0.7106  0.9104 -0.2621
 3395TIP3   OH231675   5.628   2.420   4.457  0.0270  0.2059  0.1714
 3395TIP3    H131676   5.626   2.327   4.434 -0.1363  0.0888  0.6609
 3395TIP3    H231677   5.680   2.425   4.537 -1.8619  0.2368  1.4704
 3396TIP3   OH231678   2.103   0.092  14.307 -0.3803 -0.0882 -0.2466
 3396TIP3    H131679   2.036   0.135  14.255 -0.5909  1.6217  1.3444
 3396TIP3    H231680   2.184   0.139  14.286 -0.2693 -0.0779  0.1957
 3397TIP3   OH231681   4.007   5.317   1.341 -0.8202 -0.0699 -0.4009
 3397TIP3    H131682   3.955   5.352   1.269 -0.3525  0.1062 -0.6553
 3397TIP3    H231683   3.972   5.362   1.419  0.2799  1.5920 -0.8110
 3398TIP3   OH231684   5.199   1.372  15.649 -0.0463  0.0147 -0.5891
 3398TIP3    H131685   5.128   1.412  15.699 -0.5776 -1.3803 -0.1776
 3398TIP3    H231686   5.278   1.415  15.681 -0.5211  0.1484  0.4367
 3399TIP3   OH231687   0.764   4.624   0.118  0.1083 -0.4213 -0.0377
 3399TIP3    H131688   0.847   4.581   0.137  0.2456 -0.3840 -0.5403
 3399TIP3    H231689   0.774   4.712   0.153  0.4974 -0.2355 -0.5981
 3400TIP3   OH231690   4.921   3.439   3.483  0.2740 -0.5258  0.0101
 3400TIP3    H131691   4.932   3.345   3.469  0.8552 -0.2427 -1.6977
 3400TIP3    H231692   5.007   3.469   3.511  0.2680 -0.3878 -0.1229
 3401TIP3   OH231693   2.437   2.945  14.650  0.5607 -0.5352 -0.1066
 3401TIP3    H131694   2.518   2.918  14.695  0.3337 -0.2613  0.4839
 3401TIP3    H231695   2.386   2.864  14.642  0.5758 -0.5777  0.1945
 3402TIP3   OH231696   3.111   0.225  16.890 -0.0159  0.4728  0.3513
 3402TIP3    H131697   3.082   0.250  16.977 -0.9477  0.3919  0.0736
 3402TIP3    H231698   3.041   0.170  16.856 -1.0509  2.7980 -1.5576
 3403TIP3   OH231699   6.224   0.565   2.037 -0.5147 -0.3271  0.4351
 3403TIP3    H131700   6.201   0.616   2.115 -1.5687  1.6856 -1.1058
 3403TIP3    H231701   6.316   0.586   2.021 -1.1328  1.9064 -0.6477
 3404TIP3   OH231702   4.106   2.575   4.416  0.6489  0.9428 -0.4239
 3404TIP3    H131703   4.085   2.536   4.501 -1.1928  2.3555 -0.1643
 3404TIP3    H231704   4.093   2.669   4.429 -0.3221  1.1312 -2.4437
 3405TIP3   OH231705   1.041   5.479   4.536  0.4923  0.2724 -0.0273
 3405TIP3    H131706   1.005   5.454   4.451 -1.6763 -0.3828  0.9759
 3405TIP3    H231707   1.088   5.560   4.521  2.5316 -1.2260 -2.3221
 3406TIP3   OH231708   4.490   2.036  13.027 -0.5898  0.6427  0.1560
 3406TIP3    H131709   4.449   2.070  13.107 -1.5976 -1.4748  0.6311
 3406TIP3    H231710   4.418   2.032  12.964 -0.6977 -1.1413  0.3366
 3407TIP3   OH231711   3.821   2.975   3.397 -0.6097 -0.3899  0.3159
 3407TIP3    H131712   3.740   2.925   3.393 -0.8008 -0.0797  0.2785
 3407TIP3    H231713   3.830   3.014   3.311 -0.5329 -0.2461  0.3887
 3408TIP3   OH231714   0.380   1.123  15.833  0.6905 -0.0488  0.2788
 3408TIP3    H131715   0.398   1.033  15.805 -1.1848  0.1776 -1.9210
 3408TIP3    H231716   0.466   1.159  15.855  1.7273 -1.7314 -0.8357
 3409TIP3   OH231717   2.790   3.806  14.467  0.0293  0.2520  0.3806
 3409TIP3    H131718   2.805   3.846  14.381  0.9041  2.2297  1.3805
 3409TIP3    H231719   2.730   3.734  14.450  0.5136  0.3234 -1.9444
 3410TIP3   OH231720   5.552   3.236   4.594 -0.0282  0.6461  0.0112
 3410TIP3    H131721   5.516   3.189   4.519  0.1899 -0.1720  0.3981
 3410TIP3    H231722   5.610   3.172   4.637 -0.4336  0.9681  1.0778
 3411TIP3   OH231723   0.811   0.713   4.992  0.1540 -0.3186  0.6769
 3411TIP3    H131724   0.729   0.684   5.031 -0.8971  0.5210 -0.8129
 3411TIP3    H231725   0.832   0.644   4.928 -0.8926  0.7445 -0.8966
 3412TIP3   OH231726   0.217   0.036   1.003  0.1420  0.2857 -0.1320
 3412TIP3    H131727   0.203  -0.036   0.940 -2.3505  0.1263  0.4951
 3412TIP3    H231728   0.290   0.006   1.057  0.2901 -0.9930 -0.9810
 3413TIP3   OH231729   4.717   2.466   3.359  1.1411  0.6146  0.2297
 3413TIP3    H131730   4.753   2.444   3.444 -0.2860  0.6138  0.8681
 3413TIP3    H231731   4.734   2.389   3.305 -0.5259 -0.6215  1.3769
 3414TIP3   OH231732   0.390   5.151   2.903 -0.3666  0.0274 -0.4909
 3414TIP3    H131733   0.451   5.201   2.849 -0.3455 -0.4406 -0.9076
 3414TIP3    H231734   0.330   5.110   2.840  0.1754 -1.2096 -0.2263
 3415TIP3   OH231735   4.907   0.571   4.968 -0.1879  0.2960 -0.1050
 3415TIP3    H131736   4.889   0.641   4.906 -0.0378  1.5821  1.2392
 3415TIP3    H231737   4.968   0.611   5.032 -0.1496 -1.0342  0.7259
 3416TIP3   OH231738   4.863   0.872   1.012 -0.5400  0.4071  0.4587
 3416TIP3    H131739   4.913   0.911   0.940 -1.6613 -0.2448 -0.6969
 3416TIP3    H231740   4.875   0.778   1.001 -0.2156  0.3112  1.5153
 3417TIP3   OH231741   5.975   1.692  14.564  0.0025 -0.0788 -0.0162
 3417TIP3    H131742   5.920   1.628  14.518  1.9073  0.4887 -3.4479
 3417TIP3    H231743   6.058   1.646  14.578  0.1604  0.4829  0.9594
 3418TIP3   OH231744   3.869   4.682  12.071  0.2304 -0.4503 -0.3505
 3418TIP3    H131745   3.829   4.755  12.119 -1.4523 -1.1386 -0.6294
 3418TIP3    H231746   3.797   4.619  12.060  1.5552 -2.0145 -0.3892
 3419TIP3   OH231747   1.107   2.048  11.239  0.1388  0.1884  0.2739
 3419TIP3    H131748   1.050   1.974  11.258 -0.3966  0.5145 -0.0504
 3419TIP3    H231749   1.178   2.011  11.186  1.4224 -0.6552  2.4116
 3420TIP3   OH231750   4.455   5.080  10.873 -0.1247 -0.1613  0.1642
 3420TIP3    H131751   4.526   5.020  10.898  0.7827 -0.6893 -3.1229
 3420TIP3    H231752   4.376   5.035  10.900  0.6725 -1.2151  0.8408
 3421TIP3   OH231753   5.050   5.981  15.940  0.2656 -0.2433 -0.1048
 3421TIP3    H131754   5.017   6.008  15.855  2.7292 -0.3201 -1.1780
 3421TIP3    H231755   5.061   5.886  15.932 -0.8772 -0.4701  0.8421
 3422TIP3   OH231756   0.748   0.439  13.962  0.0383 -0.7837 -0.2651
 3422TIP3    H131757   0.653   0.432  13.960  0.0236 -0.8334  0.2712
 3422TIP3    H231758   0.778   0.394  13.883 -0.4499  0.7222 -1.3384
 3423TIP3   OH231759   5.609   4.459   1.810 -0.3415  0.1617 -0.0275
 3423TIP3    H131760   5.684   4.432   1.757  0.3842  0.4701  0.8109
 3423TIP3    H231761   5.628   4.551   1.832 -1.1264  0.3405 -0.0750
 3424TIP3   OH231762   2.721   2.043   6.492  0.3303  0.1780 -0.1222
 3424TIP3    H131763   2.742   1.985   6.565  0.1885 -0.0665 -0.2752
 3424TIP3    H231764   2.716   2.130   6.531  0.5639  0.0911  0.1044
 3425TIP3   OH231765   5.784   2.329   1.890  0.1643  0.5756 -0.4426
 3425TIP3    H131766   5.786   2.259   1.825 -2.8012  0.3455 -0.4129
 3425TIP3    H231767   5.764   2.284   1.973 -1.6171  1.3735 -0.3943
 3426TIP3   OH231768   3.083   0.817   6.176 -0.1063 -0.3510 -0.4076
 3426TIP3    H131769   3.115   0.757   6.109  0.5758  1.4216 -1.7583
 3426TIP3    H231770   3.039   0.887   6.127  1.9260  1.9179  0.8077
 3427TIP3   OH231771   5.712   3.369  12.771  0.1272  0.0619 -0.1737
 3427TIP3    H131772   5.763   3.385  12.851 -2.2328  0.5907  1.3100
 3427TIP3    H231773   5.681   3.456  12.745  1.9884  0.1229 -2.5862
 3428TIP3   OH231774   4.421   0.112  13.257  0.4225 -0.5734 -0.0061
 3428TIP3    H131775   4.447   0.049  13.191 -1.5064 -1.2414 -0.1968
 3428TIP3    H231776   4.467   0.192  13.234  0.3226 -0.9983 -1.7653
 3429TIP3   OH231777   5.196   4.079   2.259  0.4356 -0.2801 -0.0290
 3429TIP3    H131778   5.174   4.159   2.308  1.3938 -0.3463  0.5202
 3429TIP3    H231779   5.256   4.109   2.191  0.6089 -0.5005  0.0296
 3430TIP3   OH231780   3.173   4.366  11.225  0.0266 -0.9144  0.3031
 3430TIP3    H131781   3.173   4.271  11.235 -0.6193 -1.0975 -1.0501
 3430TIP3    H231782   3.220   4.381  11.143  1.6854  0.0928  1.3854
 3431TIP3   OH231783   3.080   5.596  15.486 -0.0702  0.3293 -0.3601
 3431TIP3    H131784   3.095   5.683  15.523 -0.2294  0.3280 -0.2943
 3431TIP3    H231785   2.988   5.595  15.463  0.1865  0.6042 -1.4702
 3432TIP3   OH231786   3.494   1.182   3.333  0.3456 -0.0844  0.0176
 3432TIP3    H131787   3.513   1.146   3.420  0.0599 -0.6578 -0.1504
 3432TIP3    H231788   3.571   1.235   3.312  0.7465 -0.5339  0.3116
 3433TIP3   OH231789   0.520   6.711   1.858 -0.3590 -0.8596  0.0729
 3433TIP3    H131790   0.614   6.716   1.876 -0.4362 -0.3492  0.3601
 3433TIP3    H231791   0.500   6.793   1.812 -0.7007 -0.8703  0.1996
 3434TIP3   OH231792   3.204   6.307  15.600 -0.4624 -0.6125 -0.2456
 3434TIP3    H131793   3.183   6.302  15.506 -0.6364  0.2058 -0.2503
 3434TIP3    H231794   3.143   6.371  15.635 -1.3908 -1.9818  0.7262
 3435TIP3   OH231795   4.799   1.325  11.170 -0.2145 -0.1612 -0.2776
 3435TIP3    H131796   4.864   1.394  11.161 -0.0595 -0.4485 -1.5576
 3435TIP3    H231797   4.846   1.244  11.151 -0.1055 -0.8040  2.3959
 3436TIP3   OH231798   6.034   5.878   1.912 -0.6171 -0.4995  0.4885
 3436TIP3    H131799   6.117   5.891   1.957 -0.8733 -1.8423  1.3861
 3436TIP3    H231800   5.975   5.944   1.949 -0.0808  0.1673  0.1627
 3437TIP3   OH231801   2.055   3.058   0.224  0.0067 -0.2261  0.2413
 3437TIP3    H131802   2.094   3.137   0.261  1.2602 -0.4502 -0.5190
 3437TIP3    H231803   2.038   3.081   0.132  1.5511 -1.1827 -0.3306
 3438TIP3   OH231804   5.201   0.171   1.399  0.2141  0.0266  0.0967
 3438TIP3    H131805   5.287   0.151   1.436  0.0772  0.4020  0.6322
 3438TIP3    H231806   5.205   0.264   1.375  0.4771 -0.3263 -1.3469
 3439TIP3   OH231807   1.367   4.728  10.671 -0.1106 -0.1531  0.7698
 3439TIP3    H131808   1.324   4.693  10.593 -1.8176  0.4286  1.3996
 3439TIP3    H231809   1.441   4.669  10.687 -0.4364 -0.9538 -0.5996
 3440TIP3   OH231810   4.703   1.953   6.435  0.1901 -0.8365  0.0454
 3440TIP3    H131811   4.704   1.900   6.515  0.7637 -0.8460  0.0356
 3440TIP3    H231812   4.776   2.014   6.446 -1.8887  1.6165  1.1687
 3441TIP3   OH231813   4.112   3.766  16.049  0.2358  0.6331  0.5751
 3441TIP3    H131814   4.016   3.762  16.053  0.2906 -1.2766  0.7438
 3441TIP3    H231815   4.141   3.721  16.129  1.2967  1.3459  0.6163
 3442TIP3   OH231816   1.270   3.663  14.119  0.0236 -0.1416 -0.4113
 3442TIP3    H131817   1.189   3.647  14.168  0.1177  0.3575 -0.0926
 3442TIP3    H231818   1.278   3.587  14.061 -0.6404 -0.2217 -0.4005
 3443TIP3   OH231819   4.220   0.549   5.596  0.2923 -0.0241  0.3859
 3443TIP3    H131820   4.287   0.528   5.660  0.3888  0.1462  0.3421
 3443TIP3    H231821   4.269   0.577   5.518  0.2140 -1.3352 -0.1688
 3444TIP3   OH231822   0.167   2.049   5.174 -0.2018 -0.0942 -0.3453
 3444TIP3    H131823   0.245   2.031   5.226 -0.3810 -4.6255 -1.1824
 3444TIP3    H231824   0.201   2.086   5.092  0.7940  0.3251  0.2377
 3445TIP3   OH231825   2.946   1.407  14.054  0.0403 -0.4430 -0.1433
 3445TIP3    H131826   3.000   1.335  14.020  0.3307  0.1707 -1.0409
 3445TIP3    H231827   2.947   1.395  14.149  1.8991 -0.3775 -0.1083
 3446TIP3   OH231828   1.717   1.639  13.483  0.7604  0.8819  0.5264
 3446TIP3    H131829   1.687   1.627  13.393 -0.3199 -0.6533  1.0596
 3446TIP3    H231830   1.785   1.572  13.495  0.1129  0.3338  1.1882
 3447TIP3   OH231831   0.615   4.524  13.008 -0.4077  0.1286  0.3847
 3447TIP3    H131832   0.620   4.545  13.101  0.5191  0.9991  0.1537
 3447TIP3    H231833   0.642   4.604  12.964  1.2217 -0.9128 -0.5958
 3448TIP3   OH231834   3.743   1.729   0.481  0.1384  0.0257  0.0885
 3448TIP3    H131835   3.709   1.794   0.419 -0.1998 -1.2873 -1.1497
 3448TIP3    H231836   3.774   1.657   0.426  0.6458 -0.8134  1.4224
 3449TIP3   OH231837   1.570   0.288   0.955 -0.0008  0.5595 -0.1890
 3449TIP3    H131838   1.533   0.329   0.877 -0.0521  1.5749  0.3553
 3449TIP3    H231839   1.657   0.327   0.964 -0.5347  1.5439  1.0502
 3450TIP3   OH231840   6.660   3.313  16.935 -0.3138  0.4558 -0.5642
 3450TIP3    H131841   6.598   3.362  16.880  1.2978  0.8973 -2.1160
 3450TIP3    H231842   6.707   3.256  16.873  1.0504  0.3994  0.4728
 3451TIP3   OH231843   3.686   1.895   2.300 -0.4355  0.0726  0.2190
 3451TIP3    H131844   3.626   1.936   2.237 -0.3937 -0.2967 -0.0626
 3451TIP3    H231845   3.635   1.824   2.339  0.2009 -1.0395 -0.9174
 3452TIP3   OH231846   2.135   0.808  16.614  0.7641 -0.0945 -0.1894
 3452TIP3    H131847   2.212   0.836  16.564  0.1908  1.0959 -0.4666
 3452TIP3    H231848   2.061   0.839  16.562 -0.0860 -4.0336 -1.6156
 3453TIP3   OH231849   2.779   6.628   3.901 -0.1361  0.2260 -1.0205
 3453TIP3    H131850   2.755   6.683   3.826  0.7134  1.5738 -0.3572
 3453TIP3    H231851   2.848   6.572   3.868 -0.0965  0.4756 -1.3746
 3454TIP3   OH231852   6.498   1.626  17.018  0.0856  0.0920  0.0848
 3454TIP3    H131853   6.578   1.575  17.031 -1.3492 -1.6921  3.1145
 3454TIP3    H231854   6.497   1.688  17.091 -0.9941  0.5287 -0.2816
 3455TIP3   OH231855   5.372   0.275   2.143 -1.5842  0.2150  0.0927
 3455TIP3    H131856   5.323   0.354   2.162 -1.3799  0.2759  0.3634
 3455TIP3    H231857   5.461   0.305   2.125 -1.1097 -0.0858  1.7848
 3456TIP3   OH231858   6.611   5.507   0.872  0.2711  0.4884  0.6439
 3456TIP3    H131859   6.624   5.438   0.937  1.1125  0.2987  0.2959
 3456TIP3    H231860   6.610   5.461   0.788 -2.3838  0.5504  0.5789
 3457TIP3   OH231861   6.310   1.149  15.314 -0.4009  0.3012 -0.0282
 3457TIP3    H131862   6.237   1.160  15.253  1.7091 -0.5389 -2.9266
 3457TIP3    H231863   6.318   1.235  15.356 -1.1062  1.4271 -2.0194
 3458TIP3   OH231864   3.692   1.612  16.960  0.1012 -0.4314  0.6037
 3458TIP3    H131865   3.601   1.586  16.942  0.1256  0.0040 -0.2298
 3458TIP3    H231866   3.699   1.700  16.924  0.9798 -0.6310  0.2522
 3459TIP3   OH231867   0.384   1.361   5.047 -0.1079 -0.3038  0.1191
 3459TIP3    H131868   0.451   1.318   4.994 -1.1417  0.1224 -1.5766
 3459TIP3    H231869   0.301   1.322   5.019 -0.8499  1.1565  0.1700
 3460TIP3   OH231870   3.303   2.750  12.722  0.6320  0.0728  0.2244
 3460TIP3    H131871   3.362   2.811  12.767  0.5374  0.4399 -0.1446
 3460TIP3    H231872   3.238   2.727  12.788  0.7489  0.2646  0.4088
 3461TIP3   OH231873   5.609   6.712  11.581  0.0388 -0.0634  0.0271
 3461TIP3    H131874   5.514   6.708  11.593  0.1223 -3.5592  0.7310
 3461TIP3    H231875   5.622   6.695  11.487 -0.0181  0.0858 -0.0078
 3462TIP3   OH231876   4.481   0.617   3.324 -0.3443  0.3638 -0.3458
 3462TIP3    H131877   4.395   0.626   3.364 -0.7227 -0.1176 -1.0264
 3462TIP3    H231878   4.503   0.705   3.293 -0.2381  0.6469  0.5297
 3463TIP3   OH231879   4.533   2.184  14.056 -0.0906 -0.2352  0.8070
 3463TIP3    H131880   4.562   2.094  14.043  0.3301 -0.1605  1.2094
 3463TIP3    H231881   4.497   2.210  13.971  0.9864 -0.3508  0.2963
 3464TIP3   OH231882   5.097   5.640  14.638  0.3317 -0.0716  0.4753
 3464TIP3    H131883   5.129   5.596  14.559  3.5268  2.0070  0.3861
 3464TIP3    H231884   5.014   5.679  14.612  0.8207 -0.2621 -1.5866
 3465TIP3   OH231885   3.596   0.549   5.746 -0.2037  0.0051 -0.0181
 3465TIP3    H131886   3.659   0.481   5.771 -0.2833 -0.8036 -1.8495
 3465TIP3    H231887   3.588   0.540   5.651 -3.1687 -0.0237  0.1501
 3466TIP3   OH231888   5.977   6.725   0.632 -0.0814 -0.5113  0.8317
 3466TIP3    H131889   5.997   6.700   0.542  1.3055  1.1390  0.6255
 3466TIP3    H231890   5.881   6.727   0.636 -0.1907  0.9407 -1.1075
 3467TIP3   OH231891   5.577   4.164  15.606  0.1440 -0.0765  0.1829
 3467TIP3    H131892   5.573   4.157  15.511  0.5293  0.7512  0.1004
 3467TIP3    H231893   5.608   4.078  15.635 -1.4989 -0.8724 -0.3105
 3468TIP3   OH231894   3.533   5.008   2.826  0.6257 -0.0472  0.0145
 3468TIP3    H131895   3.538   5.104   2.826  1.2860 -0.0580 -1.4403
 3468TIP3    H231896   3.571   4.982   2.742 -1.2409 -1.5175 -0.4218
 3469TIP3   OH231897   2.626   2.983   1.379 -0.2757 -0.4282  0.1412
 3469TIP3    H131898   2.598   3.013   1.466 -0.5074 -0.1650 -0.0224
 3469TIP3    H231899   2.552   2.933   1.346  0.4809 -2.0602  0.8213
 3470TIP3   OH231900   0.637   1.914   6.444  0.2339 -0.5550  0.3201
 3470TIP3    H131901   0.589   1.832   6.430 -0.2491 -0.3075  0.5136
 3470TIP3    H231902   0.692   1.923   6.366 -2.5730  0.9228 -1.6935
 3471TIP3   OH231903   3.770   2.584  10.390 -0.3345 -0.0250 -0.2952
 3471TIP3    H131904   3.715   2.604  10.314 -0.6826 -0.1826 -0.0865
 3471TIP3    H231905   3.796   2.493  10.377 -0.1383  0.0439 -0.3835
 3472TIP3   OH231906   3.860   5.149  15.322 -0.2396  0.2423 -0.1241
 3472TIP3    H131907   3.828   5.062  15.298  3.1520 -1.4773  0.9345
 3472TIP3    H231908   3.832   5.161  15.412 -0.2816  0.0369 -0.1091
 3473TIP3   OH231909   5.441   2.691  16.697  0.6236 -0.0329  0.2246
 3473TIP3    H131910   5.531   2.687  16.664  0.9392 -0.5847  1.1201
 3473TIP3    H231911   5.419   2.600  16.718  1.3949  0.4968  3.9525
 3474TIP3   OH231912   3.563   0.111   2.818 -0.6508  0.9760 -0.7567
 3474TIP3    H131913   3.481   0.156   2.799 -0.7858  0.9770 -0.1710
 3474TIP3    H231914   3.572   0.114   2.913 -0.3145  0.3787 -0.7589
 3475TIP3   OH231915   6.581   3.771  10.678  0.2065 -0.6716  0.4488
 3475TIP3    H131916   6.558   3.860  10.652  0.4772 -0.5179  0.7185
 3475TIP3    H231917   6.498   3.726  10.690  0.0655 -0.3744  0.5745
 3476TIP3   OH231918   2.999   5.054  16.210  0.1146  0.0329 -0.0778
 3476TIP3    H131919   3.094   5.059  16.220  0.1669  1.2868 -1.0176
 3476TIP3    H231920   2.974   5.137  16.169 -1.2192 -0.8143 -1.0867
 3477TIP3   OH231921   1.040   3.021  11.964  0.1225  0.1575 -0.1700
 3477TIP3    H131922   1.091   3.089  11.921  3.2430 -1.7962  0.1533
 3477TIP3    H231923   1.043   2.946  11.904  2.8545 -1.9471  2.2759
 3478TIP3   OH231924   3.025   2.819  11.630  0.1879  0.3182 -0.2781
 3478TIP3    H131925   2.937   2.782  11.638  0.5584 -0.6627 -0.5402
 3478TIP3    H231926   3.030   2.846  11.538  0.6241 -0.9203 -0.6443
 3479TIP3   OH231927   4.302   4.984   5.899 -0.3119  0.0883 -0.3108
 3479TIP3    H131928   4.320   4.898   5.937  0.4163  0.3727  0.0141
 3479TIP3    H231929   4.360   4.989   5.823 -0.7112  0.0991 -0.6176
 3480TIP3   OH231930   4.207   6.073   2.768 -0.0365  0.1050 -0.3833
 3480TIP3    H131931   4.157   6.127   2.708 -1.9532  0.3392  1.3264
 3480TIP3    H231932   4.253   6.135   2.824 -0.8908 -0.0337  0.4907
 3481TIP3   OH231933   4.153   6.348  14.422  0.2751 -0.5161  0.3003
 3481TIP3    H131934   4.213   6.413  14.385 -0.8444  1.2010  1.3488
 3481TIP3    H231935   4.110   6.309  14.346  0.1687  0.7797 -0.3289
 3482TIP3   OH231936   2.496   6.746   1.041 -0.2197  0.4303  0.0319
 3482TIP3    H131937   2.454   6.692   0.974 -0.9158  0.3503  0.5195
 3482TIP3    H231938   2.577   6.701   1.062 -0.7527 -0.3958  0.3720
 3483TIP3   OH231939   0.511   4.874  16.871  0.4040 -0.3653 -0.1099
 3483TIP3    H131940   0.424   4.912  16.862  0.4344 -0.0770  0.7786
 3483TIP3    H231941   0.557   4.931  16.933  0.7465 -1.3183  0.5382
 3484TIP3   OH231942   4.881   0.281  11.877  0.3703  0.6018 -0.2992
 3484TIP3    H131943   4.950   0.334  11.836 -0.1938 -0.1376 -2.3204
 3484TIP3    H231944   4.852   0.222  11.807 -0.2241 -1.1826  1.3772
 3485TIP3   OH231945   0.409   4.312  14.494  0.6528 -0.5608 -0.6021
 3485TIP3    H131946   0.498   4.283  14.518  1.3880  0.8388 -1.5348
 3485TIP3    H231947   0.385   4.373  14.564  0.2318 -1.2550 -0.1264
 3486TIP3   OH231948   2.453   2.576  16.241 -0.2426 -0.3755 -0.0638
 3486TIP3    H131949   2.547   2.561  16.237 -0.0982 -0.0864  1.5575
 3486TIP3    H231950   2.437   2.601  16.332 -1.7370  0.5650 -0.5573
 3487TIP3   OH231951   6.316   1.957   2.950  0.2728  0.0834 -0.3783
 3487TIP3    H131952   6.245   1.992   3.002  0.5832  1.3995 -0.8094
 3487TIP3    H231953   6.394   2.001   2.983  0.7013 -0.3338 -0.8182
 3488TIP3   OH231954   4.791   4.282   4.292 -0.0614  0.0895 -0.6539
 3488TIP3    H131955   4.858   4.225   4.255  1.0424  0.9758 -0.0905
 3488TIP3    H231956   4.800   4.364   4.242 -0.9838  0.0941 -0.8213
 3489TIP3   OH231957   1.115   6.797   2.797 -0.1112 -0.2584 -0.4402
 3489TIP3    H131958   1.093   6.739   2.724 -1.7592 -1.2479  0.7610
 3489TIP3    H231959   1.210   6.790   2.805 -0.0759 -1.3778 -1.4818
 3490TIP3   OH231960   2.520   3.620  11.511  0.7376 -0.0639  0.0633
 3490TIP3    H131961   2.449   3.568  11.475 -0.1860  0.3162  1.2565
 3490TIP3    H231962   2.565   3.657  11.435  1.4142 -2.5365 -0.8316
 3491TIP3   OH231963   6.028   0.709   3.314 -0.2023  1.0021  0.0412
 3491TIP3    H131964   5.966   0.656   3.364 -1.2895  1.6246 -0.6020
 3491TIP3    H231965   6.096   0.732   3.377  0.4991 -1.4085  0.2562
 3492TIP3   OH231966   3.076   6.584   3.645 -0.3942  0.1311  0.1224
 3492TIP3    H131967   3.133   6.636   3.702  1.7985  1.6167 -3.1221
 3492TIP3    H231968   3.004   6.643   3.623  1.2354  1.4213 -2.2302
 3493TIP3   OH231969   4.345   5.748  16.694  0.3557  0.0874 -0.4894
 3493TIP3    H131970   4.381   5.661  16.677 -0.0241 -0.0716 -0.4655
 3493TIP3    H231971   4.366   5.798  16.615 -1.4183 -0.6523 -1.4708
 3494TIP3   OH231972   1.756   6.665  15.857  0.6224 -0.5945  0.5835
 3494TIP3    H131973   1.845   6.700  15.860  1.0122 -1.4916 -0.1942
 3494TIP3    H231974   1.761   6.592  15.796 -0.3112 -1.6044  1.6623
 3495TIP3   OH231975   6.433   3.399   3.711  0.4466  0.1064 -0.1222
 3495TIP3    H131976   6.381   3.410   3.632  0.7732  0.9667 -0.2295
 3495TIP3    H231977   6.483   3.318   3.697  1.1600  0.7139 -1.1782
 3496TIP3   OH231978   5.214   0.634   4.833 -1.2110  0.1561 -0.2184
 3496TIP3    H131979   5.291   0.624   4.890 -1.7875 -2.7411  0.2211
 3496TIP3    H231980   5.250   0.636   4.744 -0.5721 -2.7395 -0.1318
 3497TIP3   OH231981   3.539   6.756  10.964 -0.3399  0.3757  0.7041
 3497TIP3    H131982   3.519   6.710  10.882  0.1898 -0.9942  1.3185
 3497TIP3    H231983   3.569   6.842  10.936 -1.6301  0.4862 -0.4662
 3498TIP3   OH231984   1.910   6.099  11.365 -0.3849 -0.2573 -0.4733
 3498TIP3    H131985   1.895   6.161  11.436 -1.6776  0.9341 -1.7313
 3498TIP3    H231986   1.962   6.148  11.301  1.5868 -1.6027 -0.0262
 3499TIP3   OH231987   2.810   0.298   1.803 -0.2191 -0.1400  0.2385
 3499TIP3    H131988   2.830   0.382   1.845  0.0266  0.2704 -0.6805
 3499TIP3    H231989   2.890   0.247   1.811  0.6385  0.8010 -1.7544
 3500TIP3   OH231990   5.396   3.989  14.775 -0.1700 -0.2284 -0.5186
 3500TIP3    H131991   5.357   4.073  14.749 -0.6039  0.3482  1.8026
 3500TIP3    H231992   5.488   4.010  14.794 -0.6199  0.1133  1.5228
 3501TIP3   OH231993   5.379   0.248   0.217  0.2009  0.1198 -0.0843
 3501TIP3    H131994   5.307   0.271   0.158 -0.0001 -0.6799 -0.1749
 3501TIP3    H231995   5.423   0.174   0.173 -0.6458 -1.2549  1.2766
 3502TIP3   OH231996   5.404   2.831  15.558  0.0854 -0.2066 -0.1429
 3502TIP3    H131997   5.376   2.827  15.466  0.3160 -1.7676 -0.1634
 3502TIP3    H231998   5.497   2.809  15.556 -0.3914 -2.5320  0.6577
 3503TIP3   OH231999   1.139   3.063  11.138  0.2777 -0.2455 -0.2529
 3503TIP3    H132000   1.144   3.149  11.095  2.9076  0.3404  1.0481
 3503TIP3    H232001   1.074   3.075  11.206  0.2526  0.5712 -0.4054
 3504TIP3   OH232002   5.358   0.774  15.793  0.2396  0.2034 -0.1741
 3504TIP3    H132003   5.314   0.691  15.814 -0.8369  0.7915 -0.0322
 3504TIP3    H232004   5.387   0.808  15.877  0.1383  0.2638 -0.1630
 3505TIP3   OH232005   5.857   2.574   1.345  0.1395 -0.4830  0.0240
 3505TIP3    H132006   5.796   2.601   1.276  0.3011 -1.2293 -0.4217
 3505TIP3    H232007   5.819   2.494   1.382 -0.7886  0.7690  1.9266
 3506TIP3   OH232008   5.763   1.457  13.612  0.6589 -0.4271  0.4120
 3506TIP3    H132009   5.679   1.435  13.652  1.0992 -1.0884  0.9951
 3506TIP3    H232010   5.762   1.552  13.605 -0.4817 -0.4766 -0.3613
 3507TIP3   OH232011   2.203   3.596  16.508  0.7128  0.1450  0.1544
 3507TIP3    H132012   2.149   3.530  16.464  2.6494  0.2815 -2.6318
 3507TIP3    H232013   2.159   3.679  16.491 -0.1064 -0.0672  1.0963
 3508TIP3   OH232014   2.033   1.046  10.791  0.1461 -0.4683 -0.7689
 3508TIP3    H132015   2.102   1.110  10.771  0.3552 -0.8983 -1.4345
 3508TIP3    H232016   1.988   1.033  10.708 -1.2688  0.4136 -0.1728
 3509TIP3   OH232017   4.217   4.902  11.697 -0.4486  0.3986  0.4962
 3509TIP3    H132018   4.160   4.890  11.772 -0.4631  1.1761  0.6189
 3509TIP3    H232019   4.184   4.981  11.655 -0.1652  0.2156 -0.0794
 3510TIP3   OH232020   1.223   3.229   1.751  0.5474  0.1668 -0.4741
 3510TIP3    H132021   1.232   3.289   1.825 -0.1774  1.2740 -1.2632
 3510TIP3    H232022   1.153   3.169   1.777  1.2940 -0.3837  0.3302
 3511TIP3   OH232023   6.209   6.126  15.994 -0.0649  0.4585 -0.4070
 3511TIP3    H132024   6.299   6.158  16.003  1.5911 -3.3409 -1.4731
 3511TIP3    H232025   6.178   6.164  15.912  0.2737  2.2965  0.2711
 3512TIP3   OH232026   2.407   4.730   6.004 -0.3014 -0.0370  0.3962
 3512TIP3    H132027   2.435   4.808   6.051  0.6204 -0.5898  0.7935
 3512TIP3    H232028   2.483   4.672   6.006  0.0434  0.1567 -2.3660
 3513TIP3   OH232029   3.169   5.344  13.770 -0.0163 -0.0983 -0.7901
 3513TIP3    H132030   3.164   5.366  13.863 -0.6701  1.2657 -1.1334
 3513TIP3    H232031   3.167   5.248  13.769  1.2929 -0.1880  0.6607
 3514TIP3   OH232032   3.729   2.511   5.825  0.2845 -0.1311  0.2481
 3514TIP3    H132033   3.792   2.539   5.760  0.6316  0.4709  0.8301
 3514TIP3    H232034   3.777   2.512   5.908 -1.4421  4.5809  1.4935
 3515TIP3   OH232035   2.058   4.931   3.287 -0.3596 -0.2512  0.2909
 3515TIP3    H132036   2.019   5.008   3.245  0.7699  0.0690 -0.2256
 3515TIP3    H232037   2.129   4.967   3.341 -0.0281 -0.8917  0.2932
 3516TIP3   OH232038   4.295   3.941  12.523  0.3598  0.3596  0.3368
 3516TIP3    H132039   4.233   3.949  12.451 -0.3423  1.6557  1.0382
 3516TIP3    H232040   4.314   4.031  12.549  0.3797 -0.0551  1.9255
 3517TIP3   OH232041   5.476   0.094   4.902  0.0444  0.0969 -0.8224
 3517TIP3    H132042   5.558   0.054   4.873 -0.1747 -0.8722 -0.1298
 3517TIP3    H232043   5.408   0.034   4.873 -0.3399  0.2971 -0.3379
 3518TIP3   OH232044   3.604   2.457   4.415 -0.4313 -0.5770  0.5699
 3518TIP3    H132045   3.575   2.388   4.475 -0.8103 -0.9674 -0.0510
 3518TIP3    H232046   3.620   2.412   4.333 -0.6812  0.0736  0.1550
 3519TIP3   OH232047   1.476   0.473  13.242  0.4166  0.1082  0.8159
 3519TIP3    H132048   1.477   0.378  13.232 -0.5137 -0.0531  1.9817
 3519TIP3    H232049   1.392   0.500  13.205 -0.0407  0.2697  1.9363
 3520TIP3   OH232050   3.706   4.013   5.397  0.1072  0.4979 -0.1522
 3520TIP3    H132051   3.736   4.063   5.473  1.1968  0.7253 -0.7224
 3520TIP3    H232052   3.761   4.043   5.325  1.0081 -1.7499 -0.4663
 3521TIP3   OH232053   5.469   6.714  16.106 -0.1060 -0.3444 -0.4322
 3521TIP3    H132054   5.446   6.622  16.089  0.4229 -0.5957  0.1665
 3521TIP3    H232055   5.408   6.742  16.174  0.0926 -0.4215 -0.2213
 3522TIP3   OH232056   0.515   5.790  11.733 -0.0704 -0.7614  0.4113
 3522TIP3    H132057   0.513   5.745  11.817 -1.2582  1.4056  1.6150
 3522TIP3    H232058   0.426   5.782  11.699  0.1857 -0.8812 -0.2443
 3523TIP3   OH232059   4.645   5.724  16.719 -0.2921 -0.0879 -0.0978
 3523TIP3    H132060   4.729   5.682  16.701  0.1045  0.6599 -0.0076
 3523TIP3    H232061   4.595   5.657  16.766  0.3060 -0.4914 -0.0250
 3524TIP3   OH232062   5.826   0.960   1.882 -0.5662 -0.0487 -0.2496
 3524TIP3    H132063   5.871   0.987   1.962 -1.3811 -0.5824  0.4124
 3524TIP3    H232064   5.881   0.891   1.844 -0.6631 -0.4819  0.3844
 3525TIP3   OH232065   3.725   5.422   2.955  0.4445  0.6006 -0.0677
 3525TIP3    H132066   3.795   5.393   3.013  0.1445  0.1416  0.0693
 3525TIP3    H232067   3.657   5.455   3.014  0.6059  1.1894 -0.2054
 3526TIP3   OH232068   1.767   3.912   0.147  0.3317  0.2009  0.0241
 3526TIP3    H132069   1.749   4.002   0.119 -0.1896 -0.3120 -1.4041
 3526TIP3    H232070   1.708   3.896   0.220  0.8067  1.1862  0.6381
 3527TIP3   OH232071   5.979   4.808   0.373 -0.2645 -0.5161 -0.4125
 3527TIP3    H132072   6.066   4.824   0.411 -0.2105 -1.3832 -0.1429
 3527TIP3    H232073   5.932   4.890   0.386  0.0491 -0.4971  0.7186
 3528TIP3   OH232074   6.795   4.045   2.615 -0.0321  0.1664  0.0916
 3528TIP3    H132075   6.823   4.131   2.648 -0.8720  0.4049  0.2175
 3528TIP3    H232076   6.821   3.983   2.683  2.1485  0.0529 -0.7603
 3529TIP3   OH232077   3.786   5.502   0.488  0.0131  0.2697 -0.4212
 3529TIP3    H132078   3.776   5.458   0.404  0.8181 -0.1465 -0.3144
 3529TIP3    H232079   3.698   5.504   0.526 -0.3085  0.2540 -1.1684
 3530TIP3   OH232080   6.185   3.162  15.337  0.6924 -0.3214 -0.0625
 3530TIP3    H132081   6.105   3.171  15.389  1.9050  0.5937  1.7737
 3530TIP3    H232082   6.169   3.215  15.259 -0.3035  0.2503  0.5121
 3531TIP3   OH232083   4.082   3.724   6.194 -0.4792  0.9161  0.1523
 3531TIP3    H132084   4.140   3.798   6.212  0.1442  0.5969 -0.5133
 3531TIP3    H232085   4.029   3.753   6.120  2.1721 -0.5398 -2.4907
 3532TIP3   OH232086   6.456   2.878  16.067  0.2026  0.6955 -0.0017
 3532TIP3    H132087   6.447   2.920  16.153 -2.2389  1.9261 -0.7705
 3532TIP3    H232088   6.435   2.947  16.004 -1.4427 -0.9868 -1.4405
 3533TIP3   OH232089   0.019   0.849   4.725 -0.0179  0.5150  0.7308
 3533TIP3    H132090   0.110   0.872   4.705  0.1419  0.0580  0.9066
 3533TIP3    H232091  -0.004   0.784   4.658 -0.1391  0.4610  0.8244
 3534TIP3   OH232092   4.108   5.696  14.434  0.2607 -0.7201 -0.1700
 3534TIP3    H132093   4.089   5.616  14.383  0.6616  0.4187 -2.2137
 3534TIP3    H232094   4.203   5.699  14.439  0.2424 -1.7629  2.3561
 3535TIP3   OH232095   2.247   2.433  11.768  0.3576 -0.3751  0.0365
 3535TIP3    H132096   2.318   2.370  11.756  2.7633  2.2945 -0.9851
 3535TIP3    H232097   2.209   2.444  11.681  0.6292  0.2898 -0.0034
 3536TIP3   OH232098   3.832   0.304  16.160  0.3940  0.0259  0.2120
 3536TIP3    H132099   3.802   0.354  16.084  1.0379  0.6586  0.3600
 3536TIP3    H232100   3.771   0.231  16.166  0.0544  0.2237 -0.6372
 3537TIP3   OH232101   2.731   1.914   2.248  0.0853  0.7377 -0.0570
 3537TIP3    H132102   2.656   1.881   2.199 -0.5504  1.0438  0.6878
 3537TIP3    H232103   2.730   2.009   2.233  0.5557  0.7042 -0.3452
 3538TIP3   OH232104   6.535   4.551   5.699 -0.0445 -1.0446 -0.0344
 3538TIP3    H132105   6.565   4.511   5.781  1.3611  0.3374  0.1956
 3538TIP3    H232106   6.606   4.534   5.637 -0.4364 -0.8228 -0.5468
 3539TIP3   OH232107   0.547   0.621  11.732  0.3320 -0.2230  0.3735
 3539TIP3    H132108   0.561   0.567  11.810  0.1606  0.0529  0.5977
 3539TIP3    H232109   0.566   0.563  11.659  1.9363 -0.0636  0.6401
 3540TIP3   OH232110   0.826   0.454  16.400 -0.0836  0.3103 -0.6086
 3540TIP3    H132111   0.743   0.439  16.446  0.6495 -2.3882  0.0352
 3540TIP3    H232112   0.881   0.498  16.465 -0.5121  0.7105 -0.5099
 3541TIP3   OH232113   1.298   2.324  10.539  0.4023  0.4872 -0.3240
 3541TIP3    H132114   1.254   2.395  10.585  1.9447  2.0215 -1.1290
 3541TIP3    H232115   1.289   2.347  10.446  1.9412  0.2781 -0.5461
 3542TIP3   OH232116   5.175   4.714   5.326 -0.2761  0.0255 -0.1689
 3542TIP3    H132117   5.108   4.780   5.307 -0.2614  0.0516 -0.1288
 3542TIP3    H232118   5.189   4.719   5.420 -0.5309 -0.2801 -0.1142
 3543TIP3   OH232119   5.114   3.977   4.265  0.2460  0.4230  0.0799
 3543TIP3    H132120   5.046   4.021   4.214 -1.1220 -1.7826 -0.1609
 3543TIP3    H232121   5.094   4.000   4.356 -0.1451  0.7113 -0.0772
 3544TIP3   OH232122   0.298   4.446   2.389 -0.4994 -0.2476 -0.1634
 3544TIP3    H132123   0.360   4.495   2.444 -0.3248 -1.5418  0.8216
 3544TIP3    H232124   0.335   4.358   2.382 -0.7523 -0.2562 -2.0108
 3545TIP3   OH232125   6.808   4.511   5.581  0.8996 -0.2791 -0.3111
 3545TIP3    H132126   6.872   4.497   5.511  1.8046 -0.7934  0.6088
 3545TIP3    H232127   6.822   4.602   5.608 -0.2063  0.2915 -1.5088
 3546TIP3   OH232128   1.439   4.980  13.888  0.2511  0.4069  0.2208
 3546TIP3    H132129   1.369   4.914  13.891  0.3049  0.1177 -2.4899
 3546TIP3    H232130   1.513   4.935  13.846  1.9953  0.8408  2.5900
 3547TIP3   OH232131   3.140   2.569  16.133  0.2729 -0.2338  0.6283
 3547TIP3    H132132   3.209   2.612  16.185 -0.4309  1.4417  0.2423
 3547TIP3    H232133   3.077   2.639  16.114 -1.2132 -1.5856  0.4062
 3548TIP3   OH232134   5.563   1.001  13.992  0.0284  0.1861 -0.1857
 3548TIP3    H132135   5.580   0.927  14.052 -0.5114  0.2144  0.0050
 3548TIP3    H232136   5.649   1.020  13.953  0.4531  0.3569  0.7944
 3549TIP3   OH232137   4.187   1.444   1.549 -0.2007  0.5582  0.4032
 3549TIP3    H132138   4.148   1.528   1.527 -0.6589  0.3984  0.5924
 3549TIP3    H232139   4.139   1.415   1.627 -0.9282 -0.4743 -0.4010
 3550TIP3   OH232140   3.743   0.963  13.156  0.6447 -0.0836  0.5926
 3550TIP3    H132141   3.838   0.971  13.147  0.4988  0.2797 -0.7791
 3550TIP3    H232142   3.731   0.877  13.198  1.5979  0.3108  1.7391
 3551TIP3   OH232143   3.170   6.749  17.010  0.1567  0.0744 -0.0618
 3551TIP3    H132144   3.144   6.710  16.927  2.9027  0.5776 -1.2543
 3551TIP3    H232145   3.134   6.838  17.007 -1.0872 -0.4101  0.0272
 3552TIP3   OH232146   2.243   2.166   4.583  0.4118  0.3654  0.2651
 3552TIP3    H132147   2.322   2.193   4.630 -0.6753  1.2815  1.6395
 3552TIP3    H232148   2.225   2.239   4.523  1.8729 -0.8557 -1.8236
 3553TIP3   OH232149   2.546   4.874   4.025  0.4529  0.3621 -0.1098
 3553TIP3    H132150   2.496   4.874   4.107 -1.8413 -0.3748 -1.4103
 3553TIP3    H232151   2.538   4.785   3.992  0.1311  0.9781 -1.7881
 3554TIP3   OH232152   5.429   0.006   3.393 -0.1846  0.3429  0.2042
 3554TIP3    H132153   5.488   0.074   3.361 -1.1882  1.1904  0.0966
 3554TIP3    H232154   5.347   0.053   3.413 -0.8466 -0.8101  0.2676
 3555TIP3   OH232155   1.415   1.374   1.568  0.2968  0.4562 -0.2666
 3555TIP3    H132156   1.337   1.419   1.535 -0.3941  0.7809  1.6457
 3555TIP3    H232157   1.473   1.444   1.597 -0.0469  0.1730  1.1584
 3556TIP3   OH232158   5.843   0.971  11.545 -0.0530  0.4067 -0.0323
 3556TIP3    H132159   5.867   0.951  11.455  0.1151  0.4479  0.0036
 3556TIP3    H232160   5.796   0.894  11.576  1.7514 -0.5075  0.5457
 3557TIP3   OH232161   2.629   0.908   1.660  0.0100  0.5541  0.4286
 3557TIP3    H132162   2.644   0.938   1.570  0.6498  0.9599  0.6613
 3557TIP3    H232163   2.535   0.889   1.663  0.2333 -0.8824 -0.7392
 3558TIP3   OH232164   2.126   1.026  13.163  0.4319 -0.2098 -0.1773
 3558TIP3    H132165   2.066   0.953  13.180  0.8910 -0.2273  1.5292
 3558TIP3    H232166   2.193   0.989  13.105 -0.7965 -0.3717 -1.5554
 3559TIP3   OH232167   4.412   5.508  10.972  0.3907  0.1808  0.1238
 3559TIP3    H132168   4.335   5.564  10.970  0.4956  0.2996 -0.9005
 3559TIP3    H232169   4.409   5.459  10.890 -1.0581 -3.2228  2.0114
 3560TIP3   OH232170   3.334   5.562   5.318 -0.0873  0.0089  0.6042
 3560TIP3    H132171   3.248   5.577   5.357  0.1634 -1.2633  1.7256
 3560TIP3    H232172   3.324   5.588   5.227 -1.5273  0.3404  0.8394
 3561TIP3   OH232173   2.857   4.001   3.641  0.1900  0.0339  0.0796
 3561TIP3    H132174   2.905   4.030   3.563 -0.8633 -2.4580 -1.6232
 3561TIP3    H232175   2.767   4.030   3.625 -0.3215 -1.7028 -0.3826
 3562TIP3   OH232176   3.921   0.221   2.478  0.5540 -0.4303  0.3572
 3562TIP3    H132177   3.916   0.159   2.550 -2.0437 -2.0565 -1.0574
 3562TIP3    H232178   3.835   0.263   2.477  0.7205 -0.0584 -1.4390
 3563TIP3   OH232179   5.577   3.956   3.468 -0.5008  0.3462 -0.1845
 3563TIP3    H132180   5.499   3.926   3.421  0.1549 -1.2706 -0.3212
 3563TIP3    H232181   5.650   3.916   3.421  0.3148  0.6092  0.8192
 3564TIP3   OH232182   2.341   6.196  13.299 -0.0966 -0.1571  0.4368
 3564TIP3    H132183   2.359   6.243  13.380 -2.9210  0.8338  0.6208
 3564TIP3    H232184   2.250   6.166  13.308 -0.4544 -0.1993 -2.2392
 3565TIP3   OH232185   3.443   1.450  14.749 -0.4274  0.1774 -0.1597
 3565TIP3    H132186   3.529   1.409  14.754 -0.5791 -0.1020  0.2184
 3565TIP3    H232187   3.459   1.542  14.771  0.2227  0.8072 -2.8866
 3566TIP3   OH232188   2.473   1.046  11.225  0.3146  0.0904 -0.2301
 3566TIP3    H132189   2.543   0.982  11.233 -0.8676 -1.4187 -1.2130
 3566TIP3    H232190   2.478   1.075  11.134  0.1339  0.5376 -0.1000
 3567TIP3   OH232191   1.838   4.590   0.399  0.2253 -0.3485  0.5130
 3567TIP3    H132192   1.746   4.567   0.385  0.4499 -1.1748  0.3140
 3567TIP3    H232193   1.883   4.558   0.321  0.6986 -0.0461  0.6569
 3568TIP3   OH232194   3.310   2.136  14.823  0.2491 -0.3754  0.1944
 3568TIP3    H132195   3.228   2.146  14.871  0.5938 -2.9734  1.5035
 3568TIP3    H232196   3.336   2.045  14.838  3.0259  0.1577 -0.7456
 3569TIP3   OH232197   6.131   0.792   6.049 -0.1124  0.0673  0.0384
 3569TIP3    H132198   6.071   0.833   6.110  0.0400  0.9583 -0.3916
 3569TIP3    H232199   6.090   0.803   5.963  0.6795  0.7664 -0.2714
 3570TIP3   OH232200   6.629   2.537   4.433 -0.0549 -0.5226  0.5826
 3570TIP3    H132201   6.602   2.518   4.343 -0.5538 -1.3421  0.8881
 3570TIP3    H232202   6.684   2.463   4.457  1.2180  0.3689  0.5026
 3571TIP3   OH232203   3.934   5.233  12.304 -0.0252  0.3403 -1.1789
 3571TIP3    H132204   3.991   5.300  12.343  1.0142  0.6406 -3.1085
 3571TIP3    H232205   3.850   5.244  12.349  0.7802  1.4230  0.1264
 3572TIP3   OH232206   5.163   0.767   2.334 -0.2823 -0.3803 -0.0075
 3572TIP3    H132207   5.179   0.743   2.242 -0.2162 -2.2504  0.4469
 3572TIP3    H232208   5.074   0.802   2.334 -0.7875 -1.5858 -0.6064
 3573TIP3   OH232209   1.142   1.173   4.812 -0.3794 -0.6557  0.4788
 3573TIP3    H132210   1.180   1.261   4.808 -0.0332 -0.7834  0.9055
 3573TIP3    H232211   1.063   1.183   4.865 -0.4499 -0.5692  0.3602
 3574TIP3   OH232212   0.051   3.506  16.395  0.0144  0.0538 -0.3816
 3574TIP3    H132213   0.133   3.516  16.346  0.0177  0.7421 -0.2462
 3574TIP3    H232214   0.080   3.491  16.486 -0.0023 -0.3672 -0.4455
 3575TIP3   OH232215   4.648   0.619   2.619  0.6171  0.3247  1.1998
 3575TIP3    H132216   4.557   0.589   2.623  0.2599  0.9839 -0.6827
 3575TIP3    H232217   4.699   0.541   2.599 -0.3123  0.6469 -3.7810
 3576TIP3   OH232218   6.816   6.535  11.255  0.4679  0.2526  0.2792
 3576TIP3    H132219   6.787   6.559  11.343 -3.1887  0.1169 -0.7447
 3576TIP3    H232220   6.842   6.618  11.215  1.2391  0.4447  1.1471
 3577TIP3   OH232221   5.867   2.916  14.389  0.1519 -0.3565 -0.2451
 3577TIP3    H132222   5.778   2.887  14.367  1.0539 -1.6264 -2.6799
 3577TIP3    H232223   5.916   2.835  14.402  1.2954  0.2607 -0.5399
 3578TIP3   OH232224   0.034   1.948  16.697  0.0285 -0.1051  0.1120
 3578TIP3    H132225  -0.053   1.988  16.689  0.4024  1.0923  1.6894
 3578TIP3    H232226   0.078   1.971  16.615 -0.2320  1.6139  0.4218
 3579TIP3   OH232227   0.142   6.680   0.555  0.4384 -0.0768 -0.5491
 3579TIP3    H132228   0.105   6.591   0.553 -1.7085  0.7716 -0.8723
 3579TIP3    H232229   0.109   6.721   0.475  0.8412  1.2312 -0.0599
 3580TIP3   OH232230   3.027   4.263  13.628  0.1605 -0.4052  0.2526
 3580TIP3    H132231   2.965   4.190  13.633 -0.1942 -0.1141  0.1466
 3580TIP3    H232232   3.039   4.277  13.534  1.8971 -1.7260  0.2440
 3581TIP3   OH232233   1.526   3.005   1.788 -0.2518 -0.8097 -0.0036
 3581TIP3    H132234   1.575   3.032   1.865 -0.5554  0.9183 -0.3690
 3581TIP3    H232235   1.444   2.971   1.822 -0.7568  0.7589  0.4553
 3582TIP3   OH232236   4.177   1.231   0.094 -0.3172 -0.0121 -0.7988
 3582TIP3    H132237   4.156   1.324   0.095  2.0078  0.5495 -0.7349
 3582TIP3    H232238   4.221   1.215   0.177  1.0612 -0.7209 -1.6315
 3583TIP3   OH232239   3.799   0.749  12.071 -0.5484  0.7106 -0.2271
 3583TIP3    H132240   3.821   0.821  12.012 -0.1167  1.9309  1.3234
 3583TIP3    H232241   3.717   0.775  12.112  0.3238  1.0675  1.4008
 3584TIP3   OH232242   6.650   4.798   3.204  0.4619 -0.0187  0.2075
 3584TIP3    H132243   6.664   4.761   3.292  1.9045  0.0190  0.0250
 3584TIP3    H232244   6.649   4.892   3.219 -0.6614 -0.0437  0.3457
 3585TIP3   OH232245   2.522   6.379   0.635  0.1354  0.8014  0.6838
 3585TIP3    H132246   2.506   6.380   0.541 -0.4924 -0.4180  0.7532
 3585TIP3    H232247   2.499   6.290   0.662 -1.2154  1.5773  2.2426
 3586TIP3   OH232248   2.334   1.311   1.130 -0.2578 -0.8939  0.4862
 3586TIP3    H132249   2.246   1.342   1.152 -0.8372 -2.8326  1.1561
 3586TIP3    H232250   2.355   1.356   1.048 -1.4816  0.3152  0.7983
 3587TIP3   OH232251   1.291   1.179  14.828  0.2160  0.3268  0.2225
 3587TIP3    H132252   1.300   1.168  14.923  1.5296  1.5601  0.2635
 3587TIP3    H232253   1.381   1.181  14.795 -0.2054 -2.0453 -1.3380
 3588TIP3   OH232254   5.616   1.324  16.634 -0.4546 -0.4822 -0.3307
 3588TIP3    H132255   5.704   1.349  16.662 -1.1101 -0.5085  1.8988
 3588TIP3    H232256   5.573   1.406  16.612 -0.3486 -0.3136  0.0772
 3589TIP3   OH232257   1.356   2.410  16.311 -0.5440 -0.3243 -0.2678
 3589TIP3    H132258   1.326   2.320  16.297  0.0606 -0.2411 -2.4162
 3589TIP3    H232259   1.445   2.411  16.278 -1.0871  1.4413 -1.8626
 3590TIP3   OH232260   1.503   3.883  12.661  0.1625  0.7952  0.0794
 3590TIP3    H132261   1.475   3.974  12.651 -1.1384  0.5341  1.0508
 3590TIP3    H232262   1.525   3.855  12.572 -2.5087  1.1192 -0.7664
 3591TIP3   OH232263   3.165   5.080   5.889 -0.1694 -0.1534  0.1768
 3591TIP3    H132264   3.250   5.035   5.890 -0.4488 -0.7353 -0.8194
 3591TIP3    H232265   3.155   5.114   5.978  1.5213  0.7234  0.0669
 3592TIP3   OH232266   2.365   0.639   1.840  0.0532  0.2613  0.0773
 3592TIP3    H132267   2.300   0.670   1.903  0.3659 -0.3022  0.6828
 3592TIP3    H232268   2.426   0.587   1.891  0.6098  0.2238 -0.6045
 3593TIP3   OH232269   3.978   4.620  16.843 -0.0028 -0.1712  0.9425
 3593TIP3    H132270   3.980   4.559  16.916  0.6940  2.3113  3.1801
 3593TIP3    H232271   4.070   4.631  16.818 -0.1948 -0.6222 -0.0059
 3594TIP3   OH232272   2.751   3.103  12.987 -0.1404 -0.4750 -0.5332
 3594TIP3    H132273   2.732   3.039  12.918 -2.8570 -1.4166  0.9355
 3594TIP3    H232274   2.679   3.092  13.050  2.2876  0.1819  2.5794
 3595TIP3   OH232275   2.273   1.482   3.486  0.1585 -0.2934  0.1146
 3595TIP3    H132276   2.246   1.484   3.577 -1.7766 -1.0909 -0.3842
 3595TIP3    H232277   2.359   1.440   3.486  0.3842  0.1391  1.5883
 3596TIP3   OH232278   5.313   5.568   1.720 -0.5605  0.5163  0.0694
 3596TIP3    H132279   5.286   5.645   1.671 -0.2369  1.0697  0.7435
 3596TIP3    H232280   5.403   5.552   1.692 -0.4506  0.6991  0.3151
 3597TIP3   OH232281   3.655   4.166   4.261 -0.6660  0.8484 -0.2973
 3597TIP3    H132282   3.606   4.125   4.190 -0.4150  0.1800 -0.0929
 3597TIP3    H232283   3.598   4.237   4.292 -0.7071  1.2460 -1.2601
 3598TIP3   OH232284   4.934   2.994  14.226  0.0841 -0.0757 -0.0360
 3598TIP3    H132285   4.979   3.062  14.277 -0.4035 -0.2343  0.6243
 3598TIP3    H232286   4.966   3.006  14.137  0.5597  0.5495  0.2072
 3599TIP3   OH232287   2.613   1.249  12.973 -0.2050 -0.0014 -0.4760
 3599TIP3    H132288   2.638   1.342  12.974  0.4303 -0.1704  0.1540
 3599TIP3    H232289   2.654   1.215  12.893  2.0254 -0.3664  0.7426
 3600TIP3   OH232290   2.359   5.335  12.853 -0.5065 -0.3668 -0.0707
 3600TIP3    H132291   2.343   5.365  12.943  3.7665 -0.5623  0.9990
 3600TIP3    H232292   2.383   5.414  12.805  1.7358 -0.7372  0.3103
 3601TIP3   OH232293   5.297   2.914   0.778 -0.3755  0.7242 -0.4264
 3601TIP3    H132294   5.258   2.987   0.827  1.4238  1.2904  0.2341
 3601TIP3    H232295   5.391   2.927   0.787 -0.0099 -0.5521 -2.0209
 3602TIP3   OH232296   3.087   3.393  16.476  0.0254  0.0212 -0.4189
 3602TIP3    H132297   3.175   3.430  16.465  0.2738 -0.7537 -1.1242
 3602TIP3    H232298   3.028   3.464  16.449  0.3444  1.0885  1.4986
 3603TIP3   OH232299   5.391   4.566   1.482  0.2481 -0.0142 -0.3398
 3603TIP3    H132300   5.448   4.489   1.475 -0.0677 -0.2498 -0.3638
 3603TIP3    H232301   5.379   4.595   1.392  2.3785  1.5772 -0.1935
 3604TIP3   OH232302   4.523   5.709   6.534 -0.0756  0.9120 -0.2078
 3604TIP3    H132303   4.587   5.711   6.463  1.7108 -0.5682  1.2303
 3604TIP3    H232304   4.533   5.794   6.578  1.5090  0.4531  0.4183
 3605TIP3   OH232305   1.328   1.573   3.381 -0.1789 -0.8754  0.1789
 3605TIP3    H132306   1.289   1.657   3.357  1.1591 -1.0800 -3.1714
 3605TIP3    H232307   1.255   1.511   3.380 -1.0899  0.0733  2.2158
 3606TIP3   OH232308   1.473   2.492  14.152 -0.2748 -0.6138  0.1681
 3606TIP3    H132309   1.484   2.536  14.068  0.1010 -0.3269  0.3647
 3606TIP3    H232310   1.532   2.417  14.147  0.2599 -0.2227  0.4274
 3607TIP3   OH232311   3.766   5.818   4.839  0.4254 -0.9502  0.6036
 3607TIP3    H132312   3.851   5.845   4.803 -0.3314  1.1486  0.2501
 3607TIP3    H232313   3.702   5.867   4.787 -0.9282 -1.4005  1.8061
 3608TIP3   OH232314   5.994   6.597   6.505  0.1353 -0.5930  0.1140
 3608TIP3    H132315   5.945   6.617   6.585  1.7381 -1.9492  1.5171
 3608TIP3    H232316   5.941   6.531   6.460 -0.3080 -0.5475  0.5629
 3609TIP3   OH232317   6.469   2.672  16.246 -0.0982 -0.0523 -0.5881
 3609TIP3    H132318   6.464   2.735  16.174 -0.8114  0.4736 -0.1063
 3609TIP3    H232319   6.474   2.587  16.204  0.0840  0.2872 -1.2600
 3610TIP3   OH232320   4.645   0.468   3.871 -0.3173  0.3595  0.1149
 3610TIP3    H132321   4.617   0.402   3.934  1.4810  0.8024  1.4724
 3610TIP3    H232322   4.696   0.420   3.806 -0.3910  0.1912  0.1807
 3611TIP3   OH232323   2.310   6.127  16.080  0.4237 -0.0729  0.1823
 3611TIP3    H132324   2.387   6.072  16.097  0.1894 -0.1019  1.2369
 3611TIP3    H232325   2.237   6.079  16.119  0.2504  1.0717  1.3399
 3612TIP3   OH232326   4.494   0.476  15.003 -0.0574 -0.5702  0.1670
 3612TIP3    H132327   4.469   0.517  14.920 -1.5100 -1.1548  0.2891
 3612TIP3    H232328   4.589   0.485  15.006 -0.1944  1.7026 -0.3601
 3613TIP3   OH232329   0.177   1.421  10.390 -0.0738  0.1021  0.2199
 3613TIP3    H132330   0.137   1.366  10.458 -1.4624  0.3830 -0.3263
 3613TIP3    H232331   0.235   1.362  10.342 -0.7717 -0.6491  0.2796
 3614TIP3   OH232332   1.712   3.754   3.717  0.1813 -0.1301  0.1108
 3614TIP3    H132333   1.737   3.827   3.661  1.8297 -1.6479 -1.2483
 3614TIP3    H232334   1.786   3.741   3.775 -0.5509 -0.0610  1.0801
 3615TIP3   OH232335   4.135   3.477  12.431  0.5127 -0.1388 -0.0850
 3615TIP3    H132336   4.169   3.455  12.344 -0.2007 -0.8438 -0.1951
 3615TIP3    H232337   4.065   3.541  12.414  0.6670  0.0605  0.0153
 3616TIP3   OH232338   0.785   5.669   1.291 -0.2170  0.3326  0.4936
 3616TIP3    H132339   0.706   5.719   1.276 -1.5692 -1.0451  2.4819
 3616TIP3    H232340   0.843   5.692   1.218 -2.7536  0.7123 -1.5310
 3617TIP3   OH232341   6.626   4.046  14.329 -0.1906  0.1313 -0.7356
 3617TIP3    H132342   6.700   4.106  14.340  0.3830 -0.6396 -0.3352
 3617TIP3    H232343   6.590   4.068  14.243  0.1642  0.8716 -0.7055
 3618TIP3   OH232344   2.012   4.558  13.862 -0.0557 -0.2437  0.2347
 3618TIP3    H132345   1.949   4.501  13.818 -0.1784  0.4378 -0.4801
 3618TIP3    H232346   1.961   4.600  13.932 -0.0976 -0.5815  0.4117
 3619TIP3   OH232347   2.208   0.882  15.273 -0.3467  0.1214 -0.4515
 3619TIP3    H132348   2.115   0.865  15.256 -0.7507  2.1682 -0.4885
 3619TIP3    H232349   2.211   0.971  15.307  1.5280 -0.2336  0.4785
 3620TIP3   OH232350   0.950   4.235  13.262  0.4378 -0.6517  0.5282
 3620TIP3    H132351   0.911   4.321  13.281 -0.2316 -0.4781 -1.4741
 3620TIP3    H232352   0.886   4.173  13.296  0.0195 -0.3528  0.3014
 3621TIP3   OH232353   5.152   1.100   3.254  0.0759  0.0131 -0.1916
 3621TIP3    H132354   5.102   1.168   3.301  0.8355  1.4353 -1.3621
 3621TIP3    H232355   5.089   1.061   3.194 -0.4948 -0.6921  0.8397
 3622TIP3   OH232356   5.446   1.418  11.443  0.1827  0.1579  0.3495
 3622TIP3    H132357   5.538   1.422  11.420  0.1913 -0.9764  0.1074
 3622TIP3    H232358   5.406   1.366  11.373 -0.6312  0.6245  0.4571
 3623TIP3   OH232359   0.584   0.734   4.685  0.4065 -0.8545  0.7673
 3623TIP3    H132360   0.582   0.675   4.760 -0.4169 -0.5559  0.9920
 3623TIP3    H232361   0.663   0.786   4.697  1.7334 -2.5931  0.0153
 3624TIP3   OH232362   5.773   2.221  10.604  0.3959  0.3606 -0.3154
 3624TIP3    H132363   5.767   2.312  10.575 -1.3696  0.4240  0.1771
 3624TIP3    H232364   5.691   2.181  10.577  0.3896 -0.6124  1.0535
 3625TIP3   OH232365   0.249   2.470   3.576  0.5629 -0.3355  0.2930
 3625TIP3    H132366   0.309   2.432   3.640 -2.3269 -3.1809  1.5432
 3625TIP3    H232367   0.211   2.395   3.530 -1.4795  1.3383 -0.9536
 3626TIP3   OH232368   2.732   1.710   4.284  0.1135  0.1843  0.1066
 3626TIP3    H132369   2.766   1.621   4.276 -1.2604 -0.2729 -1.4237
 3626TIP3    H232370   2.764   1.755   4.206  0.4175  0.9026  0.6354
 3627TIP3   OH232371   1.037   3.644  15.794 -0.0006 -0.9695 -0.8823
 3627TIP3    H132372   1.116   3.661  15.743  0.0039  0.6041 -0.3902
 3627TIP3    H232373   0.974   3.710  15.765 -0.8074 -1.5711 -0.5505
 3628TIP3   OH232374   3.682   4.617  12.667  0.3726  0.0797  0.2464
 3628TIP3    H132375   3.712   4.533  12.700 -1.5517  0.2933  2.8343
 3628TIP3    H232376   3.648   4.662  12.744 -1.7932  1.8547 -1.6204
 3629TIP3   OH232377   4.757   1.362   3.940 -0.0723  0.2471 -0.1914
 3629TIP3    H132378   4.816   1.437   3.925 -0.2105  1.1165  2.8738
 3629TIP3    H232379   4.809   1.286   3.917  0.5404  1.1876 -2.1392
 3630TIP3   OH232380   3.899   1.161   5.348 -0.3377  0.3276  0.1549
 3630TIP3    H132381   3.964   1.153   5.278 -0.0351 -0.1600  0.4816
 3630TIP3    H232382   3.815   1.145   5.305 -0.1368 -0.1372 -0.0692
 3631TIP3   OH232383   4.318   1.346  17.008  0.6899  0.2863 -0.2610
 3631TIP3    H132384   4.306   1.404  17.083  1.6906 -0.1036  0.2172
 3631TIP3    H232385   4.375   1.396  16.949  0.5471  0.2758 -0.4099
 3632TIP3   OH232386   5.738   5.670   3.427 -0.3552  0.4811  0.4502
 3632TIP3    H132387   5.706   5.738   3.486  0.7980 -0.6387  2.4366
 3632TIP3    H232388   5.797   5.717   3.367 -2.3834  1.8208 -0.6194
 3633TIP3   OH232389   6.704   5.804   1.947  0.0934  0.1941 -0.2824
 3633TIP3    H132390   6.664   5.815   1.860 -1.6171  0.2570  0.4708
 3633TIP3    H232391   6.698   5.890   1.987  0.9040  0.1704 -0.0934
 3634TIP3   OH232392   2.208   5.236   0.443  0.4070  0.7601  0.3757
 3634TIP3    H132393   2.245   5.188   0.370 -0.5159  0.3472  0.1677
 3634TIP3    H232394   2.226   5.181   0.520 -0.0730  0.3852  0.2259
 3635TIP3   OH232395   2.412   1.834   2.852  0.5080 -0.2703  0.7495
 3635TIP3    H132396   2.491   1.884   2.871 -0.2152  0.9000  0.7481
 3635TIP3    H232397   2.386   1.796   2.936 -0.2909  1.3835  1.2830
 3636TIP3   OH232398   6.079   1.782   1.646 -0.0261  0.3132  0.6761
 3636TIP3    H132399   6.143   1.719   1.678  2.6031  0.4862 -3.5074
 3636TIP3    H232400   6.012   1.729   1.602  0.2657  0.3101  0.2337
 3637TIP3   OH232401   5.313   1.130   0.356 -0.0307  0.1923 -0.6087
 3637TIP3    H132402   5.220   1.112   0.375  0.6102  0.5948  4.2818
 3637TIP3    H232403   5.349   1.045   0.330 -1.0835 -0.9431  1.4246
 3638TIP3   OH232404   4.428   5.884  10.932 -0.0401 -0.5985  0.3168
 3638TIP3    H132405   4.333   5.886  10.936 -0.1432  1.8327 -1.3832
 3638TIP3    H232406   4.453   5.968  10.893  2.7340 -1.7142 -0.5914
 3639TIP3   OH232407   1.928   0.062  12.975 -0.0510 -0.2629 -0.2828
 3639TIP3    H132408   1.880   0.077  13.056  1.6719 -0.6766  0.8693
 3639TIP3    H232409   1.943  -0.033  12.973 -0.9127 -0.4018 -1.6071
 3640TIP3   OH232410   4.298   2.724   1.497 -0.3785 -0.1517 -0.0335
 3640TIP3    H132411   4.291   2.754   1.588  0.3524 -1.9735  0.6824
 3640TIP3    H232412   4.369   2.660   1.499  0.8517  1.0299 -2.2612
 3641TIP3   OH232413   2.753   0.126  17.091  0.1156 -0.1132  0.0981
 3641TIP3    H132414   2.726   0.174  17.170  1.0107  0.3421  0.1381
 3641TIP3    H232415   2.713   0.173  17.019  1.1665  0.8576  0.1188
 3642TIP3   OH232416   5.451   4.193   0.683 -0.0104 -0.2175 -0.4819
 3642TIP3    H132417   5.453   4.265   0.746 -0.8784  0.3723 -1.1118
 3642TIP3    H232418   5.516   4.131   0.716 -0.4880  0.0501  1.0159
 3643TIP3   OH232419   1.759   5.920   3.289 -0.4099  0.3920  0.3517
 3643TIP3    H132420   1.781   5.980   3.361 -2.2174  0.4134  0.9353
 3643TIP3    H232421   1.775   5.972   3.210 -2.7698  2.0701  0.8474
 3644TIP3   OH232422   1.559   3.943   0.450 -0.4489  0.5499 -1.6704
 3644TIP3    H132423   1.477   3.900   0.424  0.2952 -1.8888 -0.2405
 3644TIP3    H232424   1.546   3.965   0.542  0.2427  0.8130 -1.6300
 3645TIP3   OH232425   1.213   0.511  11.594 -0.5328 -0.0143 -0.0095
 3645TIP3    H132426   1.217   0.605  11.612 -0.8408  0.3585 -1.7055
 3645TIP3    H232427   1.304   0.483  11.589 -0.4377  0.3039 -0.0513
 3646TIP3   OH232428   3.180   4.309  17.185  0.5380  0.2006  0.5812
 3646TIP3    H132429   3.248   4.297  17.251  0.1512 -1.3069  0.7549
 3646TIP3    H232430   3.211   4.383  17.132  2.1121 -0.1774  0.9009
 3647TIP3   OH232431   1.781   6.120  12.272  0.2488  0.0221  0.2285
 3647TIP3    H132432   1.827   6.203  12.285 -0.4552  0.4399  0.1417
 3647TIP3    H232433   1.844   6.053  12.298  1.6342  0.4463 -1.7725
 3648TIP3   OH232434   1.485   3.559  14.980  0.3520  0.1984 -0.0371
 3648TIP3    H132435   1.398   3.577  15.016  0.2557 -0.0176 -0.1583
 3648TIP3    H232436   1.482   3.593  14.891  0.3469  0.0690 -0.0865
 3649TIP3   OH232437   6.197   1.475  11.292  0.7142  0.4218 -0.3161
 3649TIP3    H132438   6.261   1.542  11.316 -1.7228  3.3472 -1.3438
 3649TIP3    H232439   6.235   1.433  11.215  2.3086  0.5617  0.3442
 3650TIP3   OH232440   0.148   1.167   5.055  0.2053 -0.3391 -0.1354
 3650TIP3    H132441   0.053   1.178   5.055 -0.0133 -1.9819  0.2095
 3650TIP3    H232442   0.168   1.134   5.142  1.3005  1.2688  0.2773
 3651TIP3   OH232443   0.638   6.306  15.297  0.2778 -0.2168  0.4613
 3651TIP3    H132444   0.729   6.301  15.268  0.1817 -0.6072  0.2177
 3651TIP3    H232445   0.629   6.239  15.364 -0.1371 -1.0296 -0.3822
 3652TIP3   OH232446   4.930   2.507   1.309 -0.4487 -0.1334 -0.0122
 3652TIP3    H132447   4.879   2.586   1.327  1.1631  1.1715 -0.9366
 3652TIP3    H232448   4.911   2.488   1.217  0.7473  0.3969 -0.3799
 3653TIP3   OH232449   6.555   4.112  15.894  0.2610  0.1450  0.0078
 3653TIP3    H132450   6.579   4.194  15.936 -4.2810  1.1431  1.2380
 3653TIP3    H232451   6.526   4.138  15.807  1.0246 -0.5779 -0.4759
 3654TIP3   OH232452   4.005   4.883  16.868  0.5356  0.0239  0.3195
 3654TIP3    H132453   3.941   4.849  16.806 -0.3742 -0.2068  1.3411
 3654TIP3    H232454   4.007   4.817  16.938  1.5917  0.2338  0.5065
 3655TIP3   OH232455   1.197   0.030  16.029 -0.1523 -0.1265 -0.2695
 3655TIP3    H132456   1.148   0.103  15.992  1.6677  1.2120 -0.2262
 3655TIP3    H232457   1.177  -0.044  15.973 -2.1950  0.3475 -0.2190
 3656TIP3   OH232458   0.216   3.602  12.397 -0.1470  0.0906  0.8379
 3656TIP3    H132459   0.129   3.637  12.379 -0.4827 -0.8648  0.5613
 3656TIP3    H232460   0.267   3.624  12.319 -0.8178 -1.4851 -0.0901
 3657TIP3   OH232461   0.747   3.466   2.105 -0.4099 -0.0312  0.1197
 3657TIP3    H132462   0.688   3.491   2.175 -1.5991 -0.9034 -0.5378
 3657TIP3    H232463   0.817   3.417   2.148 -1.7139 -1.5475  0.5978
 3658TIP3   OH232464   6.068   3.743   3.099  0.5502  0.2602  0.1004
 3658TIP3    H132465   6.029   3.737   3.187  1.7300  1.3604  0.7356
 3658TIP3    H232466   6.001   3.785   3.046  0.1659  0.4352  0.7129
 3659TIP3   OH232467   0.015   2.915   0.561 -0.4076 -0.5288  0.1202
 3659TIP3    H132468  -0.042   2.840   0.546 -0.0189 -0.5424 -1.3739
 3659TIP3    H232469   0.103   2.882   0.542 -0.0599 -0.0982  0.9427
 3660TIP3   OH232470   3.212   3.822   0.534  0.8103  0.2467 -0.0433
 3660TIP3    H132471   3.295   3.857   0.502  0.4152  0.8938 -0.3789
 3660TIP3    H232472   3.150   3.837   0.462 -0.1760  2.0186  1.1098
 3661TIP3   OH232473   4.548   0.569  14.489  0.3394 -0.4870 -0.4477
 3661TIP3    H132474   4.539   0.645  14.547  1.6043 -0.2887 -0.4837
 3661TIP3    H232475   4.537   0.604  14.401  2.4145 -0.0266 -0.5736
 3662TIP3   OH232476   3.360   1.063  13.642  0.6461  0.0888  0.6137
 3662TIP3    H132477   3.402   1.130  13.695  0.6026 -0.2453  1.0724
 3662TIP3    H232478   3.415   1.056  13.564  1.3777 -0.2601  1.1522
 3663TIP3   OH232479   2.271   3.769  16.016 -0.5450  0.6232  0.1562
 3663TIP3    H132480   2.277   3.841  15.954 -1.4714  1.3376  0.8552
 3663TIP3    H232481   2.230   3.698  15.967 -0.3358  0.8301 -0.3245
 3664TIP3   OH232482   4.099   1.720   1.164  0.0006 -0.2888 -0.0937
 3664TIP3    H132483   4.017   1.743   1.120  1.9837  2.4608 -2.7967
 3664TIP3    H232484   4.127   1.639   1.120 -1.4516 -1.6244  1.3054
 3665TIP3   OH232485   3.942   0.164  16.486  0.5883 -0.4897  0.4641
 3665TIP3    H132486   3.930   0.201  16.574  1.4459 -0.9537  0.7887
 3665TIP3    H232487   4.021   0.206  16.453  0.5420 -0.6772  0.1142
 3666TIP3   OH232488   5.184   2.075   1.435 -0.5221 -0.3402  0.1313
 3666TIP3    H132489   5.126   2.133   1.385  0.6568  1.7202  1.0184
 3666TIP3    H232490   5.248   2.043   1.371  0.6809  1.8810  0.1336
 3667TIP3   OH232491   0.087   5.118  13.022 -0.4059  0.7517  0.1214
 3667TIP3    H132492   0.089   5.023  13.031  1.2174  0.7945  0.5753
 3667TIP3    H232493  -0.003   5.142  13.046 -1.2972 -0.7598 -1.4850
 3668TIP3   OH232494   0.632   2.441   5.934 -0.1919  0.1057  0.7023
 3668TIP3    H132495   0.675   2.388   6.001 -0.0893 -2.4233 -1.2211
 3668TIP3    H232496   0.541   2.448   5.964  0.3848  1.2810  2.3374
 3669TIP3   OH232497   0.106   1.345  14.189  0.0534  0.0488  0.2083
 3669TIP3    H132498   0.015   1.373  14.193 -0.2787 -0.8138 -0.8709
 3669TIP3    H232499   0.157   1.426  14.194 -0.7032  0.4676  1.9629
 3670TIP3   OH232500   4.072   5.263   1.708  0.5577  0.2523  0.5513
 3670TIP3    H132501   4.167   5.272   1.707  0.6196 -0.2953  0.9107
 3670TIP3    H232502   4.039   5.351   1.725  1.0446  0.2124  1.7348
 3671TIP3   OH232503   0.984   0.467  14.124  0.5110 -0.0420 -0.3715
 3671TIP3    H132504   1.007   0.462  14.031  0.3585  1.3017 -0.4915
 3671TIP3    H232505   0.890   0.454  14.126  0.5236 -0.1425 -0.3868
 3672TIP3   OH232506   4.302   2.383  12.851 -0.3233  0.0719 -0.4469
 3672TIP3    H132507   4.248   2.359  12.926 -1.6750  0.0872 -1.3544
 3672TIP3    H232508   4.327   2.300  12.811 -2.7615 -0.0081 -2.0605
 3673TIP3   OH232509   0.371   4.813  12.572 -0.4033 -0.1208  0.4638
 3673TIP3    H132510   0.419   4.795  12.653  0.8620  0.6451 -0.0891
 3673TIP3    H232511   0.295   4.755  12.576 -1.4993  1.3260  3.1527
 3674TIP3   OH232512   3.539   3.363   6.651 -0.5455 -0.0891  0.4612
 3674TIP3    H132513   3.562   3.414   6.573 -1.3007 -0.3415  0.0603
 3674TIP3    H232514   3.615   3.372   6.709 -0.9233  2.0677  0.7028
 3675TIP3   OH232515   4.749   6.776   2.841  0.2115  0.0334  0.0398
 3675TIP3    H132516   4.823   6.820   2.800 -0.2053  0.7536  0.0644
 3675TIP3    H232517   4.675   6.835   2.829 -0.8077 -1.4917 -1.6192
 3676TIP3   OH232518   1.877   1.723   4.508  0.5747  0.0070 -0.0675
 3676TIP3    H132519   1.947   1.734   4.572  2.5833 -0.3923 -2.0517
 3676TIP3    H232520   1.858   1.629   4.509  0.3958  0.0458  0.1519
 3677TIP3   OH232521   3.098   4.053   2.075  0.1680  1.1425 -0.4507
 3677TIP3    H132522   3.123   4.058   1.983 -1.7046 -0.6511 -1.1317
 3677TIP3    H232523   3.041   4.129   2.089 -2.0091 -0.1823 -1.6780
 3678TIP3   OH232524   6.065   5.892   2.846  0.0752  0.2354  0.1604
 3678TIP3    H132525   5.999   5.852   2.903  0.5007  1.4185  1.5515
 3678TIP3    H232526   6.148   5.855   2.875  0.2643  0.6117  0.1132
 3679TIP3   OH232527   6.035   2.927  16.306  0.4713  0.1827  0.0638
 3679TIP3    H132528   6.040   3.021  16.287 -1.6489  0.2133 -0.5889
 3679TIP3    H232529   6.041   2.921  16.401  2.5746  0.7627  0.0274
 3680TIP3   OH232530   2.745   5.336   2.071 -0.0581  0.1733 -0.7049
 3680TIP3    H132531   2.661   5.374   2.097 -0.3339  0.0912 -1.4584
 3680TIP3    H232532   2.806   5.410   2.073  0.5215 -0.2497  2.5566
 3681TIP3   OH232533   5.308   5.019  11.726  0.2318  0.1980  0.0283
 3681TIP3    H132534   5.309   5.026  11.630  0.5841  2.1840  0.1483
 3681TIP3    H232535   5.398   4.998  11.749  0.2850  0.3730 -0.0237
 3682TIP3   OH232536   3.999   3.677   5.567 -0.0047 -0.5797 -0.4092
 3682TIP3    H132537   4.020   3.599   5.618  0.3490 -1.1987 -1.4540
 3682TIP3    H232538   3.905   3.668   5.547 -0.1181 -0.3908  0.0309
 3683TIP3   OH232539   3.667   4.551   0.417  0.0509 -0.0911 -0.1920
 3683TIP3    H132540   3.726   4.561   0.343 -1.4178 -0.5154 -1.4603
 3683TIP3    H232541   3.665   4.457   0.433 -1.0527 -0.1904 -0.8330
 3684TIP3   OH232542   2.492   5.973   0.075  0.4011 -0.0332  0.2936
 3684TIP3    H132543   2.560   5.990   0.010  0.4794 -1.5246 -0.0453
 3684TIP3    H232544   2.467   5.882   0.060 -1.5434  0.4227  0.5315
 3685TIP3   OH232545   1.791   0.139   4.564 -0.3481 -0.4505  0.0985
 3685TIP3    H132546   1.717   0.155   4.506  0.6519 -0.8427 -1.3268
 3685TIP3    H232547   1.864   0.186   4.524 -0.1116  1.1766  2.2695
 3686TIP3   OH232548   1.580   4.879  16.545 -0.2014 -0.3825  0.2714
 3686TIP3    H132549   1.517   4.904  16.477 -1.0582 -0.6551  0.9408
 3686TIP3    H232550   1.580   4.954  16.605  1.4019  0.3546 -0.5777
 3687TIP3   OH232551   2.702   2.242  11.054  0.0291 -0.2488  0.1077
 3687TIP3    H132552   2.745   2.207  10.976 -0.2973 -0.3855 -0.0116
 3687TIP3    H232553   2.637   2.304  11.020  0.4393  0.2986  0.3062
 3688TIP3   OH232554   4.983   3.442  16.411 -0.1627  0.7392 -0.0835
 3688TIP3    H132555   4.912   3.491  16.453 -1.5822 -0.6385 -0.7570
 3688TIP3    H232556   4.978   3.355  16.450  0.5396  0.3420 -0.8433
 3689TIP3   OH232557   2.283   4.002  12.427  0.2532 -0.1143 -0.7923
 3689TIP3    H132558   2.222   4.059  12.473  0.0365 -0.5169 -0.5731
 3689TIP3    H232559   2.334   4.061  12.371  0.6176  0.3990  0.0574
 3690TIP3   OH232560   4.263   1.188   0.371  0.6508  0.6757  0.0164
 3690TIP3    H132561   4.195   1.124   0.389 -1.1855  1.7376 -2.5030
 3690TIP3    H232562   4.255   1.253   0.441  0.7929 -0.4678  1.1254
 3691TIP3   OH232563   1.902   1.212  14.101 -0.0772 -0.0971 -0.3572
 3691TIP3    H132564   1.946   1.196  14.185 -1.7153  0.2477  0.6066
 3691TIP3    H232565   1.897   1.308  14.095  0.4991 -0.1068 -1.1153
 3692TIP3   OH232566   2.397   3.579  16.726  0.1858  0.8812 -0.3641
 3692TIP3    H132567   2.477   3.595  16.675  2.1692 -1.2413  1.8173
 3692TIP3    H232568   2.331   3.560  16.659  2.5766 -1.5355 -2.3069
 3693TIP3   OH232569   6.775   2.793   0.855 -0.1204 -0.4093  0.8199
 3693TIP3    H132570   6.703   2.763   0.910 -0.4944 -0.0777  0.5186
 3693TIP3    H232571   6.796   2.718   0.799 -0.7181 -0.2835  0.4140
 3694TIP3   OH232572   4.726   4.674  16.859 -0.2258 -0.1873 -0.2026
 3694TIP3    H132573   4.766   4.758  16.834  0.0937 -0.8749 -2.1321
 3694TIP3    H232574   4.657   4.699  16.921  0.0322  1.4738 -0.5242
 3695TIP3   OH232575   3.468   4.968  10.581  0.1238 -0.4503 -0.5501
 3695TIP3    H132576   3.525   4.898  10.547  0.6098  0.0061 -0.6900
 3695TIP3    H232577   3.381   4.928  10.584  0.6949 -1.7097  1.2575
 3696TIP3   OH232578   0.175   5.696  16.401 -0.1868  0.3941  0.3586
 3696TIP3    H132579   0.260   5.709  16.360 -0.5874  0.0345 -0.6275
 3696TIP3    H232580   0.195   5.674  16.492  0.7793  0.1216  0.0901
 3697TIP3   OH232581   5.169   6.299   0.176 -0.1985 -0.7056  0.2231
 3697TIP3    H132582   5.208   6.381   0.205 -1.4138  0.2621 -0.7852
 3697TIP3    H232583   5.090   6.325   0.128 -0.9780 -2.4887  0.4483
 3698TIP3   OH232584   0.700   4.973   2.905  0.4043  1.0043 -0.0386
 3698TIP3    H132585   0.652   4.948   2.826  0.9114  0.7523 -0.2781
 3698TIP3    H232586   0.662   4.920   2.974  0.7985  0.2881 -0.3585
 3699TIP3   OH232587   5.949   4.879  11.763  0.5910 -0.1643 -0.2032
 3699TIP3    H132588   5.915   4.875  11.674  0.9013  1.2415 -0.4096
 3699TIP3    H232589   5.908   4.957  11.801 -1.4860 -2.0428  1.7514
 3700TIP3   OH232590   2.618   2.437   3.912 -0.4297 -0.1692  0.1123
 3700TIP3    H132591   2.539   2.457   3.862  0.2572  1.0695 -0.5426
 3700TIP3    H232592   2.689   2.448   3.849  0.3143 -0.4541  0.8909
 3701TIP3   OH232593   0.912   3.659  13.849  0.0411  0.0137 -0.0428
 3701TIP3    H132594   0.942   3.617  13.929 -0.8436  0.6551  0.6534
 3701TIP3    H232595   0.974   3.632  13.782 -0.1123 -1.8414  0.5159
 3702TIP3   OH232596   3.021   5.027   3.955  0.3472  0.0085  0.8462
 3702TIP3    H132597   3.002   5.106   4.006  0.2387  0.1243  0.6306
 3702TIP3    H232598   2.935   4.994   3.929  0.4112  0.0841  0.5369
 3703TIP3   OH232599   3.178   6.593   2.406 -0.0185 -0.5173  0.4152
 3703TIP3    H132600   3.240   6.556   2.343  1.0442  0.2840  0.9563
 3703TIP3    H232601   3.205   6.558   2.490 -1.5297 -1.7016  0.4405
 3704TIP3   OH232602   3.339   3.561  16.590  0.1753  0.2844 -0.6360
 3704TIP3    H132603   3.416   3.505  16.589 -0.8329 -1.1492 -0.6246
 3704TIP3    H232604   3.293   3.536  16.670 -0.5079  0.8317 -0.8521
 3705TIP3   OH232605   0.183   2.035   1.331  0.8930  0.3542 -0.0252
 3705TIP3    H132606   0.220   1.947   1.324 -1.3360 -0.7229  0.5815
 3705TIP3    H232607   0.088   2.021   1.327  0.4712  2.7354  0.1469
 3706TIP3   OH232608   4.233   5.189  11.708  0.0592  0.1662 -0.3989
 3706TIP3    H132609   4.209   5.155  11.794 -0.4219 -1.5349 -1.1647
 3706TIP3    H232610   4.327   5.207  11.715  0.2465 -0.9792  0.1624
 3707TIP3   OH232611   6.582   0.380   4.709  0.0208  0.1480 -0.0422
 3707TIP3    H132612   6.572   0.384   4.804 -1.6614  0.9581 -0.2117
 3707TIP3    H232613   6.615   0.292   4.692 -2.4527 -1.1072  1.1382
 3708TIP3   OH232614   0.608   1.269   4.932 -0.3415  0.1364 -0.0641
 3708TIP3    H132615   0.651   1.240   5.012 -0.3461 -1.6135 -0.6674
 3708TIP3    H232616   0.621   1.197   4.870 -1.3978  0.9339 -1.2520
 3709TIP3   OH232617   1.607   6.291   3.599  0.0013  0.1545 -0.0769
 3709TIP3    H132618   1.522   6.330   3.581  0.6191  0.6167 -2.1905
 3709TIP3    H232619   1.650   6.284   3.514  2.8451  1.6820  1.0850
 3710TIP3   OH232620   2.415   5.705   6.309 -0.0245  0.0159  0.2265
 3710TIP3    H132621   2.505   5.721   6.338  0.0853 -1.2020  0.6506
 3710TIP3    H232622   2.364   5.703   6.391 -0.7274  2.2226 -0.1116
 3711TIP3   OH232623   5.941   1.529  15.077 -0.4428 -0.6677 -0.1067
 3711TIP3    H132624   6.034   1.547  15.068 -0.8530  0.9033 -1.7641
 3711TIP3    H232625   5.916   1.488  14.993 -0.9331 -2.7907  0.9975
 3712TIP3   OH232626   4.019   6.530  13.977 -0.0777  0.2890  0.1524
 3712TIP3    H132627   4.114   6.527  13.967 -0.0555  1.4885 -0.0397
 3712TIP3    H232628   3.993   6.614  13.941 -1.0758  0.5289  1.3678
 3713TIP3   OH232629   0.716   4.351   2.998 -0.0448 -0.3409  0.1897
 3713TIP3    H132630   0.702   4.259   2.978 -2.0506 -0.2041  0.7414
 3713TIP3    H232631   0.639   4.396   2.962 -0.3773  0.7595  2.1022
 3714TIP3   OH232632   1.746   5.230  11.318  0.5234 -0.3991  0.8067
 3714TIP3    H132633   1.714   5.140  11.318  1.0710 -0.6110 -0.5963
 3714TIP3    H232634   1.677   5.281  11.275  1.3137 -0.5915 -0.7437
 3715TIP3   OH232635   1.128   1.487  15.680 -0.5529  0.3463 -0.5826
 3715TIP3    H132636   1.174   1.545  15.620  1.6733 -0.9649 -0.2440
 3715TIP3    H232637   1.143   1.399  15.645 -0.5181 -0.3255  1.0457
 3716TIP3   OH232638   5.543   4.434   5.090 -0.2181  0.3524 -0.0149
 3716TIP3    H132639   5.511   4.348   5.062  1.7360 -0.9729  1.5376
 3716TIP3    H232640   5.635   4.419   5.112  0.3227  2.9839 -0.1638
 3717TIP3   OH232641   0.636   1.039  15.146 -0.1524 -0.0456 -0.4950
 3717TIP3    H132642   0.656   0.976  15.076 -0.9473 -1.5137  0.5274
 3717TIP3    H232643   0.585   1.107  15.103 -0.5544 -0.8723 -1.3745
 3718TIP3   OH232644   5.448   1.047  11.400  0.1478  0.0825  0.3821
 3718TIP3    H132645   5.399   1.061  11.481  0.8843  0.1669  0.8222
 3718TIP3    H232646   5.504   0.972  11.419 -0.1305 -0.2971 -0.2719
 3719TIP3   OH232647   4.267   3.069  13.590  0.2564  0.4303  0.2322
 3719TIP3    H132648   4.304   3.007  13.528 -0.7270  0.0762 -0.0226
 3719TIP3    H232649   4.201   3.117  13.540 -1.4047 -0.6717  1.2518
 3720TIP3   OH232650   1.793   0.999   4.916  0.7011  0.3922  0.1979
 3720TIP3    H132651   1.844   0.922   4.891  0.0219  0.0908 -0.2853
 3720TIP3    H232652   1.717   0.964   4.961  1.4541  0.8869  1.9765
 3721TIP3   OH232653   1.683   3.516   5.651 -0.1138  0.0833  0.5180
 3721TIP3    H132654   1.613   3.452   5.667  0.8614 -0.9212  0.9271
 3721TIP3    H232655   1.711   3.499   5.561  0.6742 -0.6236  0.8832
 3722TIP3   OH232656   4.191   4.887  15.281 -0.1459  0.0382  0.0242
 3722TIP3    H132657   4.177   4.915  15.372 -0.6627  2.0321 -0.6344
 3722TIP3    H232658   4.251   4.813  15.289  0.7276  0.8665  1.9302
 3723TIP3   OH232659   2.463   1.746   1.789 -0.4301 -0.5664  0.3761
 3723TIP3    H132660   2.378   1.773   1.821 -1.1912  0.1867 -2.0366
 3723TIP3    H232661   2.525   1.809   1.826 -0.7978 -1.3950  2.5134
 3724TIP3   OH232662   6.415   5.370   6.705  0.0808  0.4672 -0.1076
 3724TIP3    H132663   6.356   5.396   6.775 -0.8750 -2.9456  0.5483
 3724TIP3    H232664   6.364   5.310   6.650  2.0958 -0.4440 -1.1361
 3725TIP3   OH232665   0.405   0.657  13.080  0.5082  0.2226 -0.2257
 3725TIP3    H132666   0.481   0.633  13.134  0.2828  0.3968  0.1745
 3725TIP3    H232667   0.443   0.686  12.997  1.0100  1.9821  0.5635
 3726TIP3   OH232668   2.979   5.411  13.511 -0.3084 -0.2321  0.5954
 3726TIP3    H132669   3.044   5.415  13.582 -0.3359  0.6010  0.5822
 3726TIP3    H232670   2.899   5.379  13.554 -0.3404  0.3242  0.9551
 3727TIP3   OH232671   5.679   4.353  14.913 -0.3146  0.5307  0.0217
 3727TIP3    H132672   5.667   4.364  15.008 -1.3807  3.3250 -0.3499
 3727TIP3    H232673   5.747   4.417  14.890 -2.0133  1.8823 -1.4600
 3728TIP3   OH232674   3.956   3.884  12.520 -0.2088 -0.2520 -0.4282
 3728TIP3    H132675   3.880   3.941  12.510 -1.4811 -1.5538  1.2515
 3728TIP3    H232676   4.008   3.925  12.590 -1.0000 -0.9599  0.6088
 3729TIP3   OH232677   3.168   3.112  17.113 -0.2230 -0.3720  0.0853
 3729TIP3    H132678   3.083   3.124  17.155 -0.0799 -1.2946  0.6746
 3729TIP3    H232679   3.230   3.104  17.186  0.2754 -0.3504 -0.3281
 3730TIP3   OH232680   1.698   4.718   1.501  0.1796 -0.1070  0.2027
 3730TIP3    H132681   1.675   4.766   1.581  2.1588 -0.6839  1.1667
 3730TIP3    H232682   1.623   4.733   1.442 -0.5807  1.7139  1.5276
 3731TIP3   OH232683   4.965   2.743  16.045 -0.2361 -0.6435  0.7916
 3731TIP3    H132684   4.999   2.671  16.099 -1.5066 -0.7222  1.5221
 3731TIP3    H232685   4.930   2.699  15.966  1.7865 -0.5117 -0.2408
 3732TIP3   OH232686   0.766   2.947  14.021  0.8069 -0.5861 -0.2227
 3732TIP3    H132687   0.762   2.908  14.108  0.9901 -0.6367 -0.2377
 3732TIP3    H232688   0.831   2.894  13.974  0.9304 -0.3690 -0.2955
 3733TIP3   OH232689   3.017   1.520   1.538  0.2885 -0.1403  0.2783
 3733TIP3    H132690   3.004   1.429   1.565  3.3460 -2.3513 -4.3097
 3733TIP3    H232691   3.009   1.518   1.442  1.2791  4.2908 -0.1198
 3734TIP3   OH232692   3.539   5.531   3.118 -0.5386 -0.5360 -0.0392
 3734TIP3    H132693   3.552   5.620   3.150 -0.7996 -0.2573 -0.6931
 3734TIP3    H232694   3.445   5.522   3.108 -0.7740 -1.7400  2.3840
 3735TIP3   OH232695   4.448   2.690   4.023  0.2216  0.3671  0.2913
 3735TIP3    H132696   4.523   2.684   3.964 -0.2086  1.8368 -0.4623
 3735TIP3    H232697   4.391   2.755   3.982 -0.7473  0.3989  1.6333
 3736TIP3   OH232698   3.369   5.098  17.157  0.0465  0.7680  0.4546
 3736TIP3    H132699   3.367   5.193  17.171 -1.6399  1.0693 -1.3527
 3736TIP3    H232700   3.330   5.086  17.071  0.4467 -1.5819  0.5362
 3737TIP3   OH232701   4.221   5.374   0.822 -0.5622 -0.0439  0.7463
 3737TIP3    H132702   4.198   5.467   0.820 -0.1314  0.0584  0.5676
 3737TIP3    H232703   4.285   5.367   0.892  0.4550  0.0335 -0.1566
 3738TIP3   OH232704   0.820   3.377   5.430 -0.1182  0.0363 -0.3639
 3738TIP3    H132705   0.787   3.423   5.507 -0.6243 -0.0784 -0.5100
 3738TIP3    H232706   0.769   3.296   5.426  1.6842 -1.2219  0.6725
 3739TIP3   OH232707   6.770   4.239   0.419  0.4477 -0.7120  0.5637
 3739TIP3    H132708   6.863   4.225   0.401  0.5392  0.4819 -0.0151
 3739TIP3    H232709   6.765   4.256   0.513  1.0915  0.9555  0.3404
 3740TIP3   OH232710   1.644   4.775  13.318 -0.1957  0.1878 -0.2464
 3740TIP3    H132711   1.629   4.696  13.267 -0.3352  0.4612 -0.6373
 3740TIP3    H232712   1.717   4.753  13.376  1.2111  0.4435 -1.8307
 3741TIP3   OH232713   3.569   3.209   4.335 -0.2113 -0.0563  0.6870
 3741TIP3    H132714   3.575   3.271   4.407  0.4436 -0.6866  1.1823
 3741TIP3    H232715   3.660   3.194   4.307 -0.3366 -0.9447  0.7108
 3742TIP3   OH232716   0.326   2.049   5.398 -0.5154  0.3903  0.1791
 3742TIP3    H132717   0.376   2.129   5.407 -0.8806  0.6486 -0.0387
 3742TIP3    H232718   0.256   2.056   5.463  0.1508 -0.3061  1.0016
 3743TIP3   OH232719   6.609   6.440  16.735  0.1575 -0.1233  0.5666
 3743TIP3    H132720   6.590   6.457  16.643  2.3195  0.3596  0.1483
 3743TIP3    H232721   6.584   6.348  16.749 -2.1742  0.3931  0.1160
 3744TIP3   OH232722   6.467   5.434   5.357 -0.5721  0.3788 -0.0360
 3744TIP3    H132723   6.465   5.404   5.266 -1.6690  1.2767 -0.3289
 3744TIP3    H232724   6.537   5.382   5.398 -0.6261 -0.6266 -1.1725
 3745TIP3   OH232725   1.203   5.247   1.856  0.3269  0.1688 -0.0111
 3745TIP3    H132726   1.214   5.275   1.765  1.6229 -0.3771 -0.0440
 3745TIP3    H232727   1.173   5.326   1.902 -0.0333  0.5283 -0.8499
 3746TIP3   OH232728   0.326   3.667   0.959  0.4035 -0.3509  0.1399
 3746TIP3    H132729   0.393   3.599   0.965 -1.2393 -1.9721  1.5273
 3746TIP3    H232730   0.282   3.651   0.876 -0.0041 -1.0569  0.4815
 3747TIP3   OH232731   5.545   3.543  13.946 -0.7186  0.0092 -0.0179
 3747TIP3    H132732   5.592   3.471  13.905 -0.7649  0.0313 -0.1101
 3747TIP3    H232733   5.484   3.573  13.879  1.3580  2.1343 -1.1128
 3748TIP3   OH232734   1.139   1.327   0.889 -0.2505 -0.2545 -0.2884
 3748TIP3    H132735   1.111   1.314   0.799 -0.1952  0.2853 -0.3820
 3748TIP3    H232736   1.111   1.416   0.911 -1.1402 -0.7151  0.5509
 3749TIP3   OH232737   2.900   4.593  12.607 -0.6500  0.2753 -0.1152
 3749TIP3    H132738   2.907   4.526  12.675 -0.3056  1.1126  0.7164
 3749TIP3    H232739   2.869   4.547  12.530 -0.4841 -0.8187  0.4517
 3750TIP3   OH232740   5.983   0.609  13.727 -0.4475 -0.2077  0.0152
 3750TIP3    H132741   6.002   0.547  13.798  0.1058  0.5116  0.5145
 3750TIP3    H232742   5.986   0.556  13.648  1.1657 -0.6293  0.3211
 3751TIP3   OH232743   3.593   3.636   4.944 -0.2015  0.4554 -0.7393
 3751TIP3    H132744   3.680   3.639   4.982  0.3660  0.5224 -1.9839
 3751TIP3    H232745   3.534   3.654   5.017  0.8076  0.2827  0.1465
 3752TIP3   OH232746   3.786   4.696   1.939 -0.7648  0.1304  0.5826
 3752TIP3    H132747   3.794   4.783   1.900 -0.2577 -0.1914 -0.0455
 3752TIP3    H232748   3.785   4.636   1.864 -0.9538 -0.4157  1.0165
 3753TIP3   OH232749   5.285   1.042   1.319  0.2844  0.1377  0.4131
 3753TIP3    H132750   5.215   1.104   1.299 -0.1502 -0.2937  0.6021
 3753TIP3    H232751   5.244   0.976   1.375  0.6871 -0.4648  0.0044
 3754TIP3   OH232752   4.512   6.599   3.221  0.5211 -0.5352 -0.3681
 3754TIP3    H132753   4.498   6.661   3.293  1.5747 -0.5223 -0.1608
 3754TIP3    H232754   4.537   6.653   3.147 -0.4762 -0.5570 -0.7358
 3755TIP3   OH232755   2.742   3.060  14.430  0.2218 -0.6813  0.1421
 3755TIP3    H132756   2.815   3.108  14.390  0.0748  1.5362  2.2583
 3755TIP3    H232757   2.783   3.006  14.497  0.0690 -0.5812  0.3173
 3756TIP3   OH232758   4.713   3.664  14.631 -0.3676  0.4522  0.1559
 3756TIP3    H132759   4.712   3.621  14.717  0.0917  0.1744  0.0265
 3756TIP3    H232760   4.796   3.711  14.628 -0.3291  0.3667 -0.1817
 3757TIP3   OH232761   4.268   4.997   6.272 -0.5112 -0.0131 -0.3900
 3757TIP3    H132762   4.183   4.992   6.229  0.1590 -0.0650 -1.7592
 3757TIP3    H232763   4.260   4.940   6.348 -1.1840 -1.3586 -1.4299
 3758TIP3   OH232764   1.155   1.677  15.877 -0.1490 -0.1757  0.2314
 3758TIP3    H132765   1.220   1.607  15.885 -2.4577 -2.4457  0.5489
 3758TIP3    H232766   1.105   1.654  15.799 -2.6738 -0.4836  1.8354
 3759TIP3   OH232767   0.544   5.011   2.242  0.7078 -0.7744  0.6167
 3759TIP3    H132768   0.464   5.062   2.258  0.2086 -0.9743 -1.0244
 3759TIP3    H232769   0.513   4.920   2.236  0.9199 -0.7770 -0.7489
 3760TIP3   OH232770   0.607   1.897   4.735  0.6046 -0.0883 -0.4601
 3760TIP3    H132771   0.657   1.866   4.660  0.1760 -3.0177  0.3570
 3760TIP3    H232772   0.650   1.859   4.811 -1.9579 -1.6239  0.3677
 3761TIP3   OH232773   1.559   2.612   1.429 -0.1667  0.4088 -0.3018
 3761TIP3    H132774   1.528   2.594   1.340  0.6381  0.5738 -0.6218
 3761TIP3    H232775   1.495   2.569   1.485 -0.4723 -0.0316 -0.9681
 3762TIP3   OH232776   5.523   4.627  14.005  0.4418  0.2668  0.2365
 3762TIP3    H132777   5.519   4.704  14.062 -0.7228  2.3883 -2.5194
 3762TIP3    H232778   5.591   4.648  13.941  0.8539 -1.5004  0.0310
 3763TIP3   OH232779   3.941   0.011  13.976  0.2858  0.2922  0.1792
 3763TIP3    H132780   3.889   0.086  13.944  0.2484  0.0735 -0.2892
 3763TIP3    H232781   3.928   0.012  14.071 -1.8168 -0.6341 -0.0273
 3764TIP3   OH232782   5.934   4.441  14.727  0.3316 -0.1058  0.3017
 3764TIP3    H132783   5.991   4.450  14.650  1.6288 -0.9344  1.1241
 3764TIP3    H232784   5.862   4.385  14.697  1.5572 -1.6152  0.0305
 3765TIP3   OH232785   5.321   3.018   1.435  0.3887  0.7534  0.2122
 3765TIP3    H132786   5.233   3.011   1.472  0.0636 -0.6792 -0.7432
 3765TIP3    H232787   5.365   3.083   1.490 -1.5116  2.1402  0.1676
 3766TIP3   OH232788   5.207   4.597   3.149  0.2413  0.1836  0.9652
 3766TIP3    H132789   5.232   4.689   3.163  2.1456 -0.5510  3.0117
 3766TIP3    H232790   5.127   4.586   3.199  0.0521  0.6972  0.7816
 3767TIP3   OH232791   3.112   1.624   3.353  0.1135 -0.0731 -0.4139
 3767TIP3    H132792   3.100   1.591   3.264 -0.5213 -1.4147  0.1408
 3767TIP3    H232793   3.073   1.712   3.352  0.7752  0.2224 -1.6288
 3768TIP3   OH232794   1.158   1.934  13.100  0.2240  0.6419  0.5079
 3768TIP3    H132795   1.243   1.975  13.091  0.6234  0.1751  1.9279
 3768TIP3    H232796   1.095   2.006  13.097  0.7827  1.1539  1.0303
 3769TIP3   OH232797   5.063   4.292   4.448 -0.0635  0.4996  0.2847
 3769TIP3    H132798   5.083   4.374   4.404 -1.1977  1.2771  1.1589
 3769TIP3    H232799   4.971   4.301   4.475 -0.1497 -0.9725  0.5723
 3770TIP3   OH232800   4.947   5.262   4.308  0.0455 -0.9626  0.0231
 3770TIP3    H132801   4.963   5.356   4.314 -1.7914 -0.5682 -0.6802
 3770TIP3    H232802   5.030   5.226   4.276  1.0462  0.2811  1.0525
 3771TIP3   OH232803   1.538   1.283  14.363  0.3811  1.2811  0.0571
 3771TIP3    H132804   1.612   1.259  14.419  0.9712  2.7201 -0.0634
 3771TIP3    H232805   1.463   1.238  14.401  1.4767 -1.1281 -0.4460
 3772TIP3   OH232806   1.712   2.476  12.386 -0.3134 -0.1998  0.1400
 3772TIP3    H132807   1.797   2.517  12.401 -0.7639  1.5693 -1.6685
 3772TIP3    H232808   1.690   2.435  12.470  0.1860  3.3519  2.2396
 3773TIP3   OH232809   4.981   0.001  12.874 -0.0946 -0.0017 -0.1993
 3773TIP3    H132810   5.062   0.022  12.827  1.3933 -2.8553  0.8423
 3773TIP3    H232811   4.991   0.047  12.958  0.4293 -0.2821 -0.1032
 3774TIP3   OH232812   4.136   5.653   3.594 -0.3112 -0.6671 -0.7337
 3774TIP3    H132813   4.107   5.696   3.674 -2.7349  1.1985 -2.4676
 3774TIP3    H232814   4.225   5.686   3.580 -0.1633 -0.3829  0.7287
 3775TIP3   OH232815   4.297   4.182   2.253 -0.8530 -0.0746  0.3821
 3775TIP3    H132816   4.213   4.137   2.243 -2.1473  1.9130  1.6002
 3775TIP3    H232817   4.312   4.182   2.347 -0.3837  1.1137  0.3172
 3776TIP3   OH232818   1.256   4.154  13.556 -0.0141 -0.3794 -0.4620
 3776TIP3    H132819   1.352   4.151  13.550  0.0355 -0.5068  0.2867
 3776TIP3    H232820   1.227   4.178  13.468  0.8109  2.0339 -0.1450
 3777TIP3   OH232821   2.125   4.515   5.344 -0.1843 -0.0537 -0.2061
 3777TIP3    H132822   2.098   4.474   5.426 -2.4729 -0.0845 -0.8836
 3777TIP3    H232823   2.106   4.608   5.356  0.6104  0.1288 -0.3011
 3778TIP3   OH232824   6.479   3.281  12.570  0.1284 -0.3780 -0.3600
 3778TIP3    H132825   6.528   3.284  12.652  0.7363 -0.0880 -0.7270
 3778TIP3    H232826   6.389   3.300  12.595  0.4709  0.6828  0.1239
 3779TIP3   OH232827   4.158   4.706  14.782 -0.1292 -0.3663  0.1024
 3779TIP3    H132828   4.073   4.720  14.823  0.7905 -1.7787  2.7112
 3779TIP3    H232829   4.141   4.717  14.688 -3.5169 -2.0573  0.3489
 3780TIP3   OH232830   2.790   5.588  12.579 -0.0955 -0.0258 -0.6089
 3780TIP3    H132831   2.776   5.527  12.651  0.1097 -0.1222 -0.6493
 3780TIP3    H232832   2.796   5.532  12.501 -1.1087  0.1303 -0.8156
 3781TIP3   OH232833   0.758   6.162   2.375 -0.3621 -0.0676  0.3036
 3781TIP3    H132834   0.686   6.215   2.409 -0.8174 -0.4342 -0.0644
 3781TIP3    H232835   0.801   6.127   2.453  0.3018  1.2854  0.5746
 3782TIP3   OH232836   1.784   2.567   3.128  0.4661  0.1735  0.3755
 3782TIP3    H132837   1.777   2.474   3.148  0.7228 -0.0665 -0.5732
 3782TIP3    H232838   1.694   2.599   3.130  0.4576  0.1154  1.5914
 3783TIP3   OH232839   4.942   4.632   3.377  0.0186 -0.5665 -0.2301
 3783TIP3    H132840   4.919   4.574   3.450 -1.2062  0.6027  0.3510
 3783TIP3    H232841   4.881   4.705   3.384 -0.9895 -0.9996 -3.1872
 3784TIP3   OH232842   0.679   2.403  10.278 -0.5697  0.5638  0.1230
 3784TIP3    H132843   0.734   2.407  10.199  0.7953  1.8640  1.0762
 3784TIP3    H232844   0.716   2.331  10.329 -0.5461  0.6331  0.2036
 3785TIP3   OH232845   3.739   4.524  16.334  0.0443 -0.5427 -0.0122
 3785TIP3    H132846   3.743   4.429  16.333  1.7062 -0.4931 -0.0554
 3785TIP3    H232847   3.755   4.548  16.425 -1.2266 -0.2997  0.1760
 3786TIP3   OH232848   0.072   5.445   3.013  0.0579  0.2214 -0.4127
 3786TIP3    H132849   0.076   5.508   3.085 -0.2132  1.8979 -1.8099
 3786TIP3    H232850   0.137   5.378   3.036 -0.4094  0.4064  1.6299
 3787TIP3   OH232851   3.416   5.017  13.684  0.5238  0.5904 -0.0137
 3787TIP3    H132852   3.479   4.945  13.687  0.4022  0.4455 -0.7957
 3787TIP3    H232853   3.460   5.084  13.632 -0.6354 -0.2040 -2.1495
 3788TIP3   OH232854   4.187   2.361  11.560  0.1267 -1.0825 -0.1519
 3788TIP3    H132855   4.135   2.435  11.590 -0.8181 -1.5727 -0.5438
 3788TIP3    H232856   4.183   2.365  11.465 -0.9023 -2.2716 -0.1940
 3789TIP3   OH232857   5.612   1.016   0.883  0.3248  0.6652  0.1095
 3789TIP3    H132858   5.595   1.101   0.924  0.0357  1.0513 -0.7662
 3789TIP3    H232859   5.603   1.033   0.789  0.8997 -0.1961 -0.1179
 3790TIP3   OH232860   1.391   3.062   0.901 -0.1187  0.7584  0.0200
 3790TIP3    H132861   1.377   3.157   0.893  1.1927  0.9063 -0.7374
 3790TIP3    H232862   1.346   3.039   0.983 -0.4790  2.0186  0.2100
 3791TIP3   OH232863   2.238   6.469   5.663  0.1537  0.4131  0.3294
 3791TIP3    H132864   2.332   6.473   5.683  0.3552 -0.3850 -0.3574
 3791TIP3    H232865   2.199   6.539   5.714  1.4307  2.2386 -1.0869
 3792TIP3   OH232866   6.654   5.312  15.732  0.0405  0.2158 -0.1395
 3792TIP3    H132867   6.713   5.344  15.800  0.9797  0.1990 -0.9224
 3792TIP3    H232868   6.692   5.229  15.703 -0.5350  0.0503 -0.4405
 3793TIP3   OH232869   6.370   1.131  16.220 -0.4463  0.1765 -0.2392
 3793TIP3    H132870   6.277   1.150  16.213 -0.8213 -1.9893 -2.2948
 3793TIP3    H232871   6.375   1.038  16.241  1.2764  0.5927  1.4615
 3794TIP3   OH232872   5.738   5.523   1.091 -0.3751  0.6090  0.5390
 3794TIP3    H132873   5.722   5.429   1.089  0.8746  0.3643  1.3059
 3794TIP3    H232874   5.706   5.554   1.006 -0.1738 -0.6040 -0.0075
 3795TIP3   OH232875   1.789   3.840  17.019 -0.1053  0.6107  0.5584
 3795TIP3    H132876   1.707   3.887  17.034 -0.7419 -0.6602  1.2726
 3795TIP3    H232877   1.857   3.905  17.032 -0.9919  1.6466  0.1778
 3796TIP3   OH232878   6.139   5.136   3.229  0.4252 -0.2518 -0.3038
 3796TIP3    H132879   6.048   5.154   3.256  0.2734  0.5219 -1.2806
 3796TIP3    H232880   6.183   5.111   3.310 -0.4216  0.3579  0.3685
 3797TIP3   OH232881   3.714   5.533  12.080  0.4961 -0.1758 -0.1065
 3797TIP3    H132882   3.635   5.485  12.105  0.9574 -0.3479  1.0567
 3797TIP3    H232883   3.712   5.533  11.984 -0.5636 -0.7513 -0.1013
 3798TIP3   OH232884   6.662   4.945  12.740 -0.0200 -0.2779 -0.1016
 3798TIP3    H132885   6.590   4.924  12.680 -0.6855  1.7483 -0.0831
 3798TIP3    H232886   6.741   4.927  12.688 -0.4918 -2.0855 -0.2782
 3799TIP3   OH232887   6.749   2.990  14.478 -0.2131 -0.5141 -0.0877
 3799TIP3    H132888   6.710   2.905  14.457 -0.9126 -0.4595  0.8969
 3799TIP3    H232889   6.766   3.031  14.393 -1.9922 -0.6929 -0.5814
 3800TIP3   OH232890   3.818   1.439   6.414 -0.4094  0.3222  0.4871
 3800TIP3    H132891   3.800   1.475   6.327 -0.4843 -0.4351  0.1734
 3800TIP3    H232892   3.828   1.515   6.470  0.4593  0.8423 -0.3443
 3801TIP3   OH232893   4.403   5.592   3.734  0.1854 -0.5069 -0.5102
 3801TIP3    H132894   4.366   5.659   3.791 -0.5906 -0.6901 -0.7952
 3801TIP3    H232895   4.496   5.615   3.727 -0.0329  0.4152 -0.4421
 3802TIP3   OH232896   0.154   5.352   6.176 -0.0691  0.5608 -0.3281
 3802TIP3    H132897   0.100   5.309   6.241 -0.4385  2.8447  0.9852
 3802TIP3    H232898   0.217   5.404   6.227 -0.6289  2.7489 -1.7287
 3803TIP3   OH232899   2.049   5.394  11.092  0.2628  0.5631 -0.7630
 3803TIP3    H132900   2.055   5.456  11.019  1.3011  0.5255 -0.7303
 3803TIP3    H232901   2.085   5.313  11.057 -0.7578  0.0610 -0.6962
 3804TIP3   OH232902   1.075   5.711   1.393 -0.0645  0.6422  0.0263
 3804TIP3    H132903   0.987   5.723   1.428  0.4988  0.9834  1.3991
 3804TIP3    H232904   1.131   5.709   1.470  0.9910 -1.0564 -0.7307
 3805TIP3   OH232905   2.303   2.320   3.727 -0.0943 -0.2839  0.4253
 3805TIP3    H132906   2.296   2.364   3.642 -1.0596  0.8993  1.0840
 3805TIP3    H232907   2.264   2.382   3.789  0.9152 -0.9777  1.7918
 3806TIP3   OH232908   1.541   6.311  11.224 -0.4341  0.2206 -0.0105
 3806TIP3    H132909   1.600   6.323  11.150  0.8134 -0.5896  0.8143
 3806TIP3    H232910   1.548   6.392  11.274  2.8667 -1.1025  2.0122
 3807TIP3   OH232911   3.944   1.640   5.008 -0.1835  0.3217  0.8027
 3807TIP3    H132912   3.990   1.582   4.947  0.3298  0.9319  0.5882
 3807TIP3    H232913   3.909   1.582   5.075 -0.6208 -0.3528  0.0139
 3808TIP3   OH232914   6.346   6.361  13.023  0.1317 -0.0019 -0.1615
 3808TIP3    H132915   6.418   6.423  13.036 -1.0696  1.4101  0.0093
 3808TIP3    H232916   6.290   6.403  12.958 -0.1595 -1.4269 -0.8563
 3809TIP3   OH232917   4.998   2.584  11.761 -0.6027 -0.0347 -0.1863
 3809TIP3    H132918   4.923   2.617  11.810  0.7106  0.7134  1.3882
 3809TIP3    H232919   5.031   2.660  11.713  0.4158  0.1748  0.8134
 3810TIP3   OH232920   3.895   3.178   3.585 -0.5506 -0.0222  0.4362
 3810TIP3    H132921   3.851   3.258   3.556 -0.9504 -0.4118 -0.0438
 3810TIP3    H232922   3.896   3.122   3.508 -1.6884 -1.1076  1.1830
 3811TIP3   OH232923   2.142   4.495   3.921  0.3637 -0.0472  0.0010
 3811TIP3    H132924   2.197   4.417   3.926  0.2165 -0.2173 -0.9253
 3811TIP3    H232925   2.194   4.558   3.872  0.3479  0.3340  0.4629
 3812TIP3   OH232926   6.391   4.786  15.037 -0.6172  0.0496 -0.2426
 3812TIP3    H132927   6.450   4.754  15.105 -0.3156 -1.2179 -1.0547
 3812TIP3    H232928   6.372   4.708  14.983 -1.0149  0.9603 -1.4742
 3813TIP3   OH232929   1.846   5.736   0.402 -0.3007 -0.4722 -0.1570
 3813TIP3    H132930   1.897   5.775   0.473 -0.2083  0.6770 -0.8176
 3813TIP3    H232931   1.841   5.805   0.336 -1.8427 -0.9147 -0.5501
 3814TIP3   OH232932   2.261   2.290   5.155  0.4199  0.0820  0.0698
 3814TIP3    H132933   2.343   2.291   5.205  0.7438  1.3892 -0.4548
 3814TIP3    H232934   2.231   2.199   5.162  1.3502 -0.1759  1.1659
 3815TIP3   OH232935   6.207   0.785  11.787 -0.6720 -0.0639  0.2889
 3815TIP3    H132936   6.227   0.758  11.876 -1.1766  1.1176  0.7939
 3815TIP3    H232937   6.137   0.851  11.798 -0.8516 -0.0242 -0.9832
 3816TIP3   OH232938   3.802   3.511   0.236  0.1848 -0.0503 -0.5327
 3816TIP3    H132939   3.804   3.481   0.146  1.3682 -0.1510 -0.4890
 3816TIP3    H232940   3.851   3.445   0.285 -0.7622 -0.1970  0.2509
 3817TIP3   OH232941   4.770   1.220  14.432  0.4935  0.1514 -0.0048
 3817TIP3    H132942   4.727   1.134  14.432 -1.3079  1.0122  0.3445
 3817TIP3    H232943   4.822   1.220  14.513  0.4768 -0.5879  0.0186
 3818TIP3   OH232944   1.328   5.537  15.473  0.2084  0.2073  0.0291
 3818TIP3    H132945   1.410   5.502  15.439 -0.3618 -1.9740  0.7326
 3818TIP3    H232946   1.267   5.531  15.399 -0.3905 -2.2544  0.6253
 3819TIP3   OH232947   1.888   4.132  13.993 -0.2229  0.5390  0.1387
 3819TIP3    H132948   1.842   4.216  13.999  0.4330  0.8516  0.9637
 3819TIP3    H232949   1.827   4.074  13.946 -1.7359  0.7486  1.7692
 3820TIP3   OH232950   0.624   3.074  13.826  0.6056 -0.6146  0.5824
 3820TIP3    H132951   0.549   3.015  13.818 -0.2334  0.4982 -0.0553
 3820TIP3    H232952   0.658   3.058  13.914 -0.1869 -1.3682  0.7622
 3821TIP3   OH232953   3.676   2.749  15.615 -0.0868 -0.4392 -0.1686
 3821TIP3    H132954   3.709   2.681  15.674 -0.5947 -0.0535  0.5704
 3821TIP3    H232955   3.607   2.705  15.565 -1.9563  0.0579  1.8366
 3822TIP3   OH232956   0.255   1.394   4.561  0.4162 -0.0851 -0.1129
 3822TIP3    H132957   0.308   1.342   4.501 -1.6843 -1.5005 -0.8715
 3822TIP3    H232958   0.215   1.329   4.619 -0.3215  0.9340  0.5457
 3823TIP3   OH232959   1.036   1.723   5.447  0.4290 -0.7486 -0.2165
 3823TIP3    H132960   1.104   1.672   5.404 -0.5295 -1.6791 -0.6635
 3823TIP3    H232961   0.997   1.663   5.511  1.2401  0.3418  1.3625
 3824TIP3   OH232962   0.700   3.978  15.493  0.7727 -0.5831 -0.2407
 3824TIP3    H132963   0.784   3.942  15.463  0.6959 -2.5198  1.6144
 3824TIP3    H232964   0.723   4.050  15.551  1.1841 -1.2379  0.4207
 3825TIP3   OH232965   5.920   1.850  14.770 -0.1524 -0.3626  0.8901
 3825TIP3    H132966   5.963   1.933  14.746 -1.0266  0.0777  0.8130
 3825TIP3    H232967   5.933   1.794  14.694  0.3570 -0.2691  0.9004
 3826TIP3   OH232968   2.008   6.772   1.047 -0.8004  0.1132 -0.4121
 3826TIP3    H132969   1.941   6.814   1.101 -0.1157  0.5354  0.1263
 3826TIP3    H232970   2.091   6.808   1.079 -0.2647 -0.9278 -0.5942
 3827TIP3   OH232971   5.833   0.685  11.945  0.4407 -0.4434  0.0034
 3827TIP3    H132972   5.867   0.775  11.951 -0.6270  0.2520 -2.6921
 3827TIP3    H232973   5.813   0.661  12.035 -0.1375  2.4091  0.7396
 3828TIP3   OH232974   2.407   1.912   5.839 -0.0126 -0.3131  0.7850
 3828TIP3    H132975   2.459   1.907   5.759 -0.8331  0.5090  0.1740
 3828TIP3    H232976   2.368   1.999   5.837 -0.4474 -0.4621  1.8361
 3829TIP3   OH232977   5.246   4.652  15.306 -0.1556  0.3123 -0.3823
 3829TIP3    H132978   5.181   4.694  15.251 -2.8029 -0.2895  2.0750
 3829TIP3    H232979   5.279   4.722  15.363  1.7277  0.6841 -1.8042
 3830TIP3   OH232980   4.761   6.583  13.758 -0.2934  0.1862 -0.3733
 3830TIP3    H132981   4.699   6.656  13.764 -1.1472 -0.5363 -0.1070
 3830TIP3    H232982   4.706   6.505  13.769  0.5231 -0.5164 -1.1727
 3831TIP3   OH232983   0.735   3.089   4.140  0.6161  0.1330  0.4031
 3831TIP3    H132984   0.689   3.128   4.066  0.5256 -0.4503  0.1413
 3831TIP3    H232985   0.762   3.163   4.193  1.7671  0.6423 -0.8419
 3832TIP3   OH232986   5.593   1.280  13.953 -0.0231 -0.1961 -0.0180
 3832TIP3    H132987   5.571   1.188  13.965  0.5320 -1.0584 -4.2265
 3832TIP3    H232988   5.686   1.279  13.931  0.1146  1.4774  0.3597
 3833TIP3   OH232989   2.702   4.978   3.521 -0.2231  0.2674  0.4778
 3833TIP3    H132990   2.648   4.952   3.446  0.5651  0.6097 -0.2187
 3833TIP3    H232991   2.668   5.064   3.545  0.6281  0.9462 -0.6067
 3834TIP3   OH232992   5.212   0.513  14.231  0.4448 -0.2763 -0.0783
 3834TIP3    H132993   5.159   0.496  14.154  0.1615  0.9482 -0.1868
 3834TIP3    H232994   5.158   0.484  14.305  0.7402 -1.5005 -0.3373
 3835TIP3   OH232995   4.890   5.946   1.360  0.3261 -0.0155 -0.2618
 3835TIP3    H132996   4.952   5.979   1.294 -1.1398  3.2385 -0.2031
 3835TIP3    H232997   4.920   5.857   1.378  3.0821  0.3022 -2.4903
 3836TIP3   OH232998   5.882   2.798   2.901  0.2159 -0.0623  0.0602
 3836TIP3    H132999   5.805   2.751   2.869  0.3644 -1.6711  1.9334
 3836TIP3    H233000   5.859   2.891   2.891 -0.8408 -0.4900 -1.9457
 3837TIP3   OH233001   0.499   2.482  14.518 -0.4436 -0.3627  0.8417
 3837TIP3    H133002   0.558   2.482  14.443  0.7221 -2.8952  1.6683
 3837TIP3    H233003   0.493   2.574  14.543  0.6561  0.3221 -1.1554
 3838TIP3   OH233004   2.990   5.095   0.060  0.2633  0.1565 -0.4688
 3838TIP3    H133005   3.055   5.112   0.128  0.9234 -0.8502 -0.8235
 3838TIP3    H233006   3.022   5.144  -0.016 -0.0810  0.6815 -0.2829
 3839TIP3   OH233007   4.193   0.854   1.073  0.8816  0.4714  0.1295
 3839TIP3    H133008   4.233   0.803   1.003  0.1983  2.0465 -1.4868
 3839TIP3    H233009   4.249   0.931   1.082  0.7128  0.5087  1.0261
 3840TIP3   OH233010   4.740   1.178   5.159 -0.2014 -0.4060  0.2274
 3840TIP3    H133011   4.828   1.211   5.139  0.1907 -1.1949  0.6017
 3840TIP3    H233012   4.752   1.124   5.237 -0.5354 -2.6066 -1.1605
 3841TIP3   OH233013   0.003   1.504   1.071  0.1636 -0.0038  0.0140
 3841TIP3    H133014   0.051   1.465   1.144  0.3736 -1.2718 -0.7744
 3841TIP3    H233015  -0.058   1.565   1.112  2.4032  1.6694  1.0583
 3842TIP3   OH233016   0.378   2.280  12.928  0.3360  0.1851 -0.0389
 3842TIP3    H133017   0.374   2.340  13.002  2.7809  0.7660 -0.2850
 3842TIP3    H233018   0.333   2.326  12.857 -1.4019 -0.0815  0.8407
 3843TIP3   OH233019   6.150   4.564   4.484  0.0683 -0.0559 -0.6482
 3843TIP3    H133020   6.109   4.619   4.416 -0.4103  0.7071  0.2342
 3843TIP3    H233021   6.145   4.475   4.448  0.7525  0.4364 -2.0592
 3844TIP3   OH233022   3.521   1.777   5.501 -0.5749  0.1388  0.2224
 3844TIP3    H133023   3.534   1.779   5.596 -0.0785 -0.8554  0.1907
 3844TIP3    H233024   3.528   1.685   5.478 -0.0213  0.4381 -0.8746
 3845TIP3   OH233025   6.187   0.667   0.513 -0.1774 -0.2492  0.4414
 3845TIP3    H133026   6.204   0.758   0.536 -0.6448 -0.4225  1.5453
 3845TIP3    H233027   6.154   0.670   0.423  0.6331  0.5713  0.1624
 3846TIP3   OH233028   2.119   4.151  12.622  0.1704  0.0653 -0.2078
 3846TIP3    H133029   2.164   4.169  12.705 -0.4279 -1.6052  0.5037
 3846TIP3    H233030   2.068   4.231  12.605  3.5700  2.2313 -1.2583
 3847TIP3   OH233031   2.573   5.909   5.869  0.2829 -0.1597 -0.3258
 3847TIP3    H133032   2.553   5.998   5.841  2.0520  0.5788  0.6374
 3847TIP3    H233033   2.616   5.918   5.953  0.3066 -1.9629 -0.0870
 3848TIP3   OH233034   2.113   5.675   4.782  0.5185  0.6356 -0.0231
 3848TIP3    H133035   2.078   5.654   4.869  2.8745 -0.1131  0.8260
 3848TIP3    H233036   2.053   5.634   4.721 -1.1135  1.0445  1.2281
 3849TIP3   OH233037   3.921   2.137   0.897 -0.5013  0.3272 -0.3959
 3849TIP3    H133038   3.870   2.056   0.895  0.8629 -0.5966 -3.4495
 3849TIP3    H233039   3.866   2.201   0.853 -1.5453  1.1647  1.9469
 3850TIP3   OH233040   6.373   5.238  13.491  0.1354  0.1919 -0.0274
 3850TIP3    H133041   6.333   5.154  13.469 -0.5427  0.6386 -0.5281
 3850TIP3    H233042   6.309   5.303  13.464  0.1912  0.8460  1.3320
 3851TIP3   OH233043   5.552   3.615  15.582  0.1297 -0.0594  0.0576
 3851TIP3    H133044   5.506   3.688  15.624  1.3610  0.5648  0.3874
 3851TIP3    H233045   5.623   3.657  15.533  2.2127 -1.0989  2.0008
 3852TIP3   OH233046   1.466   5.039   3.665 -0.7826 -0.4118 -0.1958
 3852TIP3    H133047   1.397   5.076   3.611  1.5959  0.6964 -2.7538
 3852TIP3    H233048   1.517   5.115   3.693  0.2009 -1.2726  0.3889
 3853TIP3   OH233049   2.081   5.945  13.815  0.3494  0.4619 -0.1708
 3853TIP3    H133050   2.157   5.948  13.874  0.7386  2.2620 -0.7092
 3853TIP3    H233051   2.046   5.857  13.827  2.7264 -0.5737 -0.1664
 3854TIP3   OH233052   0.473   6.583   0.271  0.3106  0.7309 -0.0992
 3854TIP3    H133053   0.380   6.564   0.264  0.3656  0.1006  0.7499
 3854TIP3    H233054   0.478   6.667   0.316  0.1377  1.2878 -1.0945
 3855TIP3   OH233055   0.286   5.984   4.480  0.7775 -0.1895 -0.8239
 3855TIP3    H133056   0.235   5.926   4.535  0.2051  0.9349 -0.1197
 3855TIP3    H233057   0.272   5.952   4.391 -0.1858 -0.6318 -0.5250
 3856TIP3   OH233058   3.545   0.556  11.386 -0.3858  0.2571 -0.2895
 3856TIP3    H133059   3.578   0.554  11.296  0.0593 -0.6216 -0.1161
 3856TIP3    H233060   3.563   0.645  11.416 -1.8021  1.0023 -1.5113
 3857TIP3   OH233061   5.921   6.586  14.602  0.1971  0.0627 -0.5301
 3857TIP3    H133062   5.929   6.632  14.519  0.8897 -0.1087 -0.5627
 3857TIP3    H233063   5.831   6.553  14.603 -0.2095  1.1500 -0.6419
 3858TIP3   OH233064   6.725   4.757   5.405  0.2360  0.2230  0.4874
 3858TIP3    H133065   6.772   4.831   5.366 -0.7265  0.5001 -0.1856
 3858TIP3    H233066   6.635   4.788   5.414 -0.1588 -0.8343  0.2911
 3859TIP3   OH233067   3.750   4.652   2.895  0.0484  0.1075  0.1968
 3859TIP3    H133068   3.782   4.670   2.807 -0.6460 -1.1991 -0.3620
 3859TIP3    H233069   3.657   4.633   2.883  0.1624 -1.1257  1.0366
 3860TIP3   OH233070   0.955   5.786  12.813  0.0914 -0.5270 -0.1181
 3860TIP3    H133071   0.915   5.856  12.762  0.4909  0.5483  0.9860
 3860TIP3    H233072   1.019   5.747  12.755  1.0417  1.1377 -0.2467
 3861TIP3   OH233073   3.417   6.169  13.512 -0.6654  0.7715  0.2420
 3861TIP3    H133074   3.444   6.165  13.421 -1.0294  0.2784  0.1499
 3861TIP3    H233075   3.401   6.262  13.529  1.4214  1.1273  0.4223
 3862TIP3   OH233076   5.900   4.162   4.607 -0.3442 -0.4055  0.3642
 3862TIP3    H133077   5.924   4.254   4.606 -1.4765 -0.0772  1.2281
 3862TIP3    H233078   5.871   4.145   4.697  2.8122 -2.4452  1.1741
 3863TIP3   OH233079   6.399   1.022   3.889  0.0464 -0.4051 -0.5104
 3863TIP3    H133080   6.373   0.985   3.805 -2.6119  0.6882 -0.2840
 3863TIP3    H233081   6.442   1.105   3.867  2.4194 -1.6408 -0.8446
 3864TIP3   OH233082   2.408   1.956   3.336  0.0722  0.3696  0.4586
 3864TIP3    H133083   2.368   2.004   3.408  0.8627 -0.0446  1.2055
 3864TIP3    H233084   2.456   1.885   3.379 -0.3954 -0.5936 -0.5600
 3865TIP3   OH233085   4.773   5.302   5.899  0.0767  0.1442 -0.2045
 3865TIP3    H133086   4.782   5.311   5.994  0.1416 -1.6268 -0.0203
 3865TIP3    H233087   4.679   5.300   5.883  0.0346  1.9391 -0.3665
 3866TIP3   OH233088   0.037   5.440  12.651 -0.0527 -0.2421 -0.1134
 3866TIP3    H133089   0.023   5.523  12.605  0.4963 -0.0152  0.1234
 3866TIP3    H233090   0.018   5.459  12.742  3.5361  0.6162  0.5974
 3867TIP3   OH233091   1.586   1.791  16.093  0.0466 -0.5257 -1.0395
 3867TIP3    H133092   1.659   1.813  16.035 -1.3301  2.9355 -1.7444
 3867TIP3    H233093   1.622   1.798  16.181  0.7785  0.5034 -1.3969
 3868TIP3   OH233094   5.792   1.728  13.510 -0.6636 -0.3428 -0.1579
 3868TIP3    H133095   5.881   1.763  13.501  0.0408 -1.7883  0.6362
 3868TIP3    H233096   5.737   1.804  13.525  0.4998  0.5605 -0.3597
 3869TIP3   OH233097   3.335   4.348   5.618  0.4482  0.0429  0.3239
 3869TIP3    H133098   3.325   4.344   5.713 -0.3279 -0.6539  0.2176
 3869TIP3    H233099   3.341   4.442   5.599  1.9777  0.1691  1.1780
 3870TIP3   OH233100   2.080   0.390  12.050  0.0344  0.2693 -0.1984
 3870TIP3    H133101   1.997   0.344  12.061  0.7273 -0.3896  3.3076
 3870TIP3    H233102   2.144   0.321  12.034  0.3899  0.4613  0.3786
 3871TIP3   OH233103   3.322   3.528   4.250 -0.1792  0.5070 -0.6265
 3871TIP3    H133104   3.344   3.552   4.160  0.1442 -1.6345 -1.1821
 3871TIP3    H233105   3.394   3.563   4.302 -0.0713  1.2697 -1.2720
 3872TIP3   OH233106   0.736   5.048  11.673 -0.6383  0.3350  0.1230
 3872TIP3    H133107   0.822   5.006  11.673  0.0856  1.5958  2.2893
 3872TIP3    H233108   0.704   5.036  11.763 -1.6907  1.8277 -0.0081
 3873TIP3   OH233109   1.759   6.223  16.257 -0.1625  0.4147 -0.8735
 3873TIP3    H133110   1.796   6.146  16.300  1.4183  0.8282 -1.4430
 3873TIP3    H233111   1.756   6.290  16.325  0.3741  0.4514 -0.8849
 3874TIP3   OH233112   5.326   1.633   0.859  0.4319 -0.2446 -0.1450
 3874TIP3    H133113   5.263   1.581   0.810 -0.1872  0.2318  0.1353
 3874TIP3    H233114   5.403   1.576   0.867 -0.9088 -1.9429  1.8693
 3875TIP3   OH233115   3.700   0.300  16.966 -0.7066  0.1470  0.5475
 3875TIP3    H133116   3.685   0.282  16.874  2.2303  0.5891 -0.1219
 3875TIP3    H233117   3.613   0.296  17.006 -1.7072 -3.6314 -1.5182
 3876TIP3   OH233118   3.376   2.489  13.447 -0.6886 -0.4631  0.1767
 3876TIP3    H133119   3.466   2.498  13.414 -0.9009 -0.6117 -0.4689
 3876TIP3    H233120   3.337   2.576  13.432 -0.6885 -0.4342  0.3450
 3877TIP3   OH233121   5.902   3.391   5.820 -0.1712  0.3162  0.3426
 3877TIP3    H133122   5.812   3.395   5.790  0.2719  1.6992 -0.8838
 3877TIP3    H233123   5.896   3.360   5.911 -1.7243 -1.3530 -0.2687
 3878TIP3   OH233124   4.180   4.221   5.664  0.4172  0.0307 -0.4605
 3878TIP3    H133125   4.236   4.190   5.593  1.5868  0.6891  0.1479
 3878TIP3    H233126   4.240   4.262   5.726 -0.5975 -0.4046  0.8539
 3879TIP3   OH233127   3.565   6.465  15.348 -0.4428  0.1283  0.2874
 3879TIP3    H133128   3.562   6.422  15.434  1.1271 -0.3174  0.1449
 3879TIP3    H233129   3.577   6.393  15.286 -0.7288  0.5201 -0.2284
 3880TIP3   OH233130   0.940   2.158   3.404  0.0932 -0.2016 -0.4246
 3880TIP3    H133131   0.997   2.216   3.354  1.0446 -0.2762  0.5271
 3880TIP3    H233132   0.961   2.177   3.495 -1.4576 -0.2006 -0.0362
 3881TIP3   OH233133   2.655   5.861  13.837  0.7992  0.1861 -0.2103
 3881TIP3    H133134   2.681   5.796  13.771  0.1247  0.9335 -1.2492
 3881TIP3    H233135   2.575   5.826  13.875  1.7927 -0.8086  1.0784
 3882TIP3   OH233136   2.346   4.684  12.962 -0.3709 -0.2803 -0.6846
 3882TIP3    H133137   2.358   4.659  12.870 -0.6690  1.1901 -1.1511
 3882TIP3    H233138   2.418   4.744  12.980 -0.5678 -0.2204 -0.0716
 3883TIP3   OH233139   1.542   6.473  13.002 -0.0225  0.4209 -0.8792
 3883TIP3    H133140   1.598   6.423  12.942 -0.0929  1.0990 -1.5154
 3883TIP3    H233141   1.599   6.492  13.077 -0.4544 -2.0574  0.1998
 3884TIP3   OH233142   5.479   3.816   3.912  0.6157  0.1762 -0.6095
 3884TIP3    H133143   5.416   3.836   3.981  1.3653 -0.9476  0.4336
 3884TIP3    H233144   5.520   3.901   3.892  1.1001  0.3676  1.0641
 3885TIP3   OH233145   3.478   4.152  13.699  0.0251 -0.0907  0.1089
 3885TIP3    H133146   3.471   4.078  13.639 -0.6433  0.4209 -0.4727
 3885TIP3    H233147   3.537   4.123  13.769  0.1612 -0.9810 -0.3778
 3886TIP3   OH233148   5.887   5.493  15.852 -0.2536  0.6809  0.4392
 3886TIP3    H133149   5.908   5.434  15.779 -1.0585  0.8859  0.0409
 3886TIP3    H233150   5.800   5.467  15.880 -0.2976  1.1728  0.7752
 3887TIP3   OH233151   3.782   2.369  11.926 -0.2694  0.1760  0.2175
 3887TIP3    H133152   3.737   2.449  11.953 -0.1386  0.3570 -0.0980
 3887TIP3    H233153   3.867   2.398  11.896  0.1300 -0.1857  0.9700
 3888TIP3   OH233154   4.526   4.720  14.780 -0.4251  0.2376 -0.8919
 3888TIP3    H133155   4.546   4.778  14.854 -1.6336  0.9192 -1.0721
 3888TIP3    H233156   4.469   4.653  14.816  1.1856 -1.0490 -0.6275
 3889TIP3   OH233157   0.130   5.287  12.283  0.5450  0.4033  0.5690
 3889TIP3    H133158   0.180   5.323  12.210 -0.2235  1.7117  0.6549
 3889TIP3    H233159   0.134   5.192  12.270 -0.1364  0.6165 -1.5514
 3890TIP3   OH233160   0.748   2.704   1.964 -0.6396 -0.0743  0.1455
 3890TIP3    H133161   0.812   2.716   2.035 -1.3953  0.7529  0.6994
 3890TIP3    H233162   0.673   2.662   2.006 -1.5409  1.4183  0.1191
 3891TIP3   OH233163   0.995   2.361   2.014  0.3654 -0.2463  0.3465
 3891TIP3    H133164   1.006   2.267   2.001  3.3139 -0.1539  1.3925
 3891TIP3    H233165   1.045   2.381   2.093 -0.1304  2.2333  0.1367
 3892TIP3   OH233166   4.860   5.314  14.713 -0.3070  0.4275  0.2797
 3892TIP3    H133167   4.824   5.318  14.802 -2.6977  4.0418 -0.6448
 3892TIP3    H233168   4.801   5.368  14.660  2.8661  1.2418 -2.8500
 3893TIP3   OH233169   0.595   2.938  13.128  0.4009 -0.2843  0.2358
 3893TIP3    H133170   0.591   3.004  13.198  0.8146  0.2757 -0.2506
 3893TIP3    H233171   0.662   2.876  13.158  1.5558  0.6844 -0.2549
 3894TIP3   OH233172   0.651   0.075  13.642 -0.1991 -0.0458 -0.2789
 3894TIP3    H133173   0.601  -0.006  13.641  0.8701 -0.7331 -0.0666
 3894TIP3    H233174   0.615   0.127  13.570 -0.9814 -0.6472 -0.3363
 3895TIP3   OH233175   1.713   0.556   6.044 -0.0345 -0.4048 -0.1539
 3895TIP3    H133176   1.672   0.585   6.125  0.6857 -2.3550  0.9564
 3895TIP3    H233177   1.748   0.636   6.005 -0.5126  0.5856  1.3729
 3896TIP3   OH233178   6.816   1.123  13.456 -0.2161  0.0134  0.0190
 3896TIP3    H133179   6.822   1.087  13.545 -0.2532 -0.4264 -0.1513
 3896TIP3    H233180   6.897   1.093  13.414  1.1832  2.5473  0.7182
 3897TIP3   OH233181   6.364   4.331   3.546  0.5797  0.1852  0.1482
 3897TIP3    H133182   6.450   4.371   3.559 -0.1048  1.4664  0.9557
 3897TIP3    H233183   6.367   4.298   3.456  2.1268 -0.3940  0.3711
 3898TIP3   OH233184   4.974   0.718  12.627  0.2770  0.7192  0.2437
 3898TIP3    H133185   4.937   0.737  12.713  3.2136  1.0616  1.5708
 3898TIP3    H233186   4.919   0.648  12.592 -1.2918  0.8985  2.1812
 3899TIP3   OH233187   3.778   4.821  14.086 -0.0987  0.5596 -0.2730
 3899TIP3    H133188   3.870   4.793  14.081  0.1897  1.2708  0.6824
 3899TIP3    H233189   3.728   4.741  14.071  0.6870 -0.7766  3.3148
 3900TIP3   OH233190   4.605   4.709   0.615 -0.7665  0.4083  0.2114
 3900TIP3    H133191   4.670   4.685   0.550 -1.2587  0.6120 -0.3621
 3900TIP3    H233192   4.640   4.788   0.656 -0.7614  0.6533 -0.2571
 3901TIP3   OH233193   0.732   6.780  11.210 -0.1556 -0.5206 -0.4278
 3901TIP3    H133194   0.730   6.826  11.294 -0.3941  4.4019 -2.7392
 3901TIP3    H233195   0.640   6.773  11.185 -0.0749 -1.8063 -0.4193
 3902TIP3   OH233196   0.400   0.915  16.137  0.1800 -0.0360 -0.3917
 3902TIP3    H133197   0.486   0.920  16.094  0.1156 -0.4097 -0.5697
 3902TIP3    H233198   0.394   0.824  16.166  0.2394  0.2235  0.4445
 3903TIP3   OH233199   3.888   0.296   5.892 -0.0707  0.8255  0.1794
 3903TIP3    H133200   3.858   0.242   5.964 -0.7073 -0.4214 -0.9851
 3903TIP3    H233201   3.810   0.312   5.839  0.4435  1.4338 -0.4252
 3904TIP3   OH233202   4.643   2.002   3.397 -0.1636 -0.1978 -0.3682
 3904TIP3    H133203   4.594   2.056   3.459 -0.9273 -1.4976  0.2147
 3904TIP3    H233204   4.614   2.032   3.311  0.2934  1.0746 -0.1039
 3905TIP3   OH233205   0.300   1.015  14.547  0.3890 -0.0504 -0.0363
 3905TIP3    H133206   0.272   1.065  14.470  0.3383  0.9989  0.6500
 3905TIP3    H233207   0.372   0.961  14.516  0.6740  0.7114 -0.7157
 3906TIP3   OH233208   3.751   6.465  15.809 -0.5366  0.5392 -0.0488
 3906TIP3    H133209   3.799   6.481  15.728 -0.4330  0.8303  0.0659
 3906TIP3    H233210   3.665   6.435  15.781  0.1665 -1.4590 -0.2581
 3907TIP3   OH233211   0.136   6.401   5.339  0.3386 -0.0028  0.0218
 3907TIP3    H133212   0.175   6.422   5.254  2.3453 -0.1616  0.8441
 3907TIP3    H233213   0.072   6.471   5.354 -1.6237 -1.1061 -2.5161
 3908TIP3   OH233214   2.612   5.983   1.897  0.6928  0.0933 -0.5190
 3908TIP3    H133215   2.618   6.042   1.973 -2.2096 -1.0082  0.7148
 3908TIP3    H233216   2.695   5.937   1.896  1.6528  1.6940  0.6480
 3909TIP3   OH233217   4.390   1.393  11.709  0.4377 -0.3489 -0.7007
 3909TIP3    H133218   4.466   1.392  11.767 -0.3420 -0.1262  0.3567
 3909TIP3    H233219   4.388   1.482  11.674 -1.5672  1.0491  2.4248
 3910TIP3   OH233220   3.321   2.533  15.231 -0.1162  0.2051  0.4753
 3910TIP3    H133221   3.327   2.546  15.136  3.4249  2.1441  0.7896
 3910TIP3    H233222   3.312   2.438  15.241 -3.4770  0.1158 -1.7191
 3911TIP3   OH233223   5.003   6.296   1.456  0.1605  0.2486 -0.3389
 3911TIP3    H133224   4.978   6.333   1.372 -0.2056 -0.7585 -0.6886
 3911TIP3    H233225   5.091   6.329   1.472  0.6456 -0.3774 -1.6191
 3912TIP3   OH233226   3.364   5.926  13.992 -0.2401 -0.0833 -0.0598
 3912TIP3    H133227   3.384   5.905  14.084  0.4644 -1.0700 -0.4164
 3912TIP3    H233228   3.448   5.957  13.956 -0.8773  1.8935  0.0173
 3913TIP3   OH233229   2.947   1.025   4.480  0.5590 -0.0041 -0.1087
 3913TIP3    H133230   2.929   0.940   4.439 -3.3417  0.6552 -0.1503
 3913TIP3    H233231   2.979   1.004   4.567 -1.1881 -1.5970  0.2085
 3914TIP3   OH233232   6.161   0.563  12.477 -0.0483  0.4776  0.3182
 3914TIP3    H133233   6.171   0.621  12.553 -0.8968  0.5351  0.4002
 3914TIP3    H233234   6.156   0.623  12.402 -1.2748  0.5529  0.4372
 3915TIP3   OH233235   0.458   0.538  13.759 -0.6355 -1.1433  0.4226
 3915TIP3    H133236   0.379   0.501  13.720 -0.5038  0.4051 -1.4722
 3915TIP3    H233237   0.425   0.604  13.820 -0.8111 -1.8125  1.0640
 3916TIP3   OH233238   2.422   1.829   6.094 -0.4367 -0.1028 -0.3403
 3916TIP3    H133239   2.416   1.837   5.999  0.9320 -2.0198 -0.6500
 3916TIP3    H233240   2.501   1.879   6.117 -0.4468 -0.1099 -0.2886
 3917TIP3   OH233241   4.036   5.074   3.419  0.0824 -0.8915 -0.3769
 3917TIP3    H133242   3.959   5.052   3.472 -1.1767  1.2845 -1.1531
 3917TIP3    H233243   4.030   5.016   3.343 -1.7814  0.3194 -1.2294
 3918TIP3   OH233244   2.388   3.909   6.080 -0.1586  0.4866  0.0406
 3918TIP3    H133245   2.419   3.906   5.989 -0.4380 -2.0187 -0.0172
 3918TIP3    H233246   2.410   3.823   6.116 -1.9921  0.6628  1.6968
 3919TIP3   OH233247   5.389   4.428  14.132 -0.1557 -0.3887 -0.2045
 3919TIP3    H133248   5.301   4.463  14.146  0.1969  1.9528 -2.9100
 3919TIP3    H233249   5.441   4.504  14.106  2.2213 -2.0293 -0.5555
 3920TIP3   OH233250   6.654   1.688   4.930  0.1717  0.1990  0.5355
 3920TIP3    H133251   6.617   1.714   4.846 -0.7713  2.9745  1.7105
 3920TIP3    H233252   6.743   1.724   4.929  0.7180 -1.0914  0.1800
 3921TIP3   OH233253   5.189   5.619  11.683 -0.0397 -0.0384 -0.1300
 3921TIP3    H133254   5.128   5.692  11.677 -1.1818 -1.0470 -1.4299
 3921TIP3    H233255   5.133   5.542  11.693  1.0300 -0.9310 -0.7862
 3922TIP3   OH233256   1.974   0.414   5.998  0.2968  0.4305 -0.4849
 3922TIP3    H133257   1.971   0.325   6.034  1.4212  1.5603  2.7689
 3922TIP3    H233258   1.885   0.448   6.010  0.3326  0.3431  0.0744
 3923TIP3   OH233259   1.989   1.015  11.234 -0.2623 -0.5134  0.0103
 3923TIP3    H133260   1.944   1.029  11.151  1.0444 -0.3101 -0.6907
 3923TIP3    H233261   2.077   0.986  11.209 -0.1077 -1.2753  1.3355
 3924TIP3   OH233262   6.212   0.827   3.480  0.2482  0.2814 -0.0516
 3924TIP3    H133263   6.168   0.829   3.565 -1.0146  1.1329 -0.6884
 3924TIP3    H233264   6.305   0.815   3.501 -0.0271  0.5570  1.4495
 3925TIP3   OH233265   3.788   2.674  17.009  0.0370  0.0450  0.2034
 3925TIP3    H133266   3.877   2.692  17.040 -0.6947  1.9565  1.3549
 3925TIP3    H233267   3.785   2.715  16.922 -0.1542  1.2888  0.7893
 3926TIP3   OH233268   0.909   6.311  16.246 -0.1795 -0.0152 -0.1518
 3926TIP3    H133269   0.917   6.276  16.157 -0.1798  0.3227 -0.2834
 3926TIP3    H233270   0.857   6.245  16.293 -0.9730  0.2492 -0.6467
 3927TIP3   OH233271   2.742   3.387   2.487  0.1615 -0.5660  0.4566
 3927TIP3    H133272   2.762   3.381   2.393 -1.2622 -0.6158  0.1368
 3927TIP3    H233273   2.656   3.345   2.496  1.8536 -4.0673  2.4091
 3928TIP3   OH233274   0.965   2.402   4.503  0.1037  0.3427 -0.5943
 3928TIP3    H133275   0.878   2.384   4.540  0.5002  1.5612  1.0485
 3928TIP3    H233276   0.948   2.468   4.435 -0.5165 -1.1957 -1.9865
 3929TIP3   OH233277   0.631   6.417  13.459  0.1611  0.0121  0.4365
 3929TIP3    H133278   0.684   6.411  13.380  0.5557  0.2219  0.6834
 3929TIP3    H233279   0.577   6.338  13.459  0.6113 -0.2917  0.2880
 3930TIP3   OH233280   6.395   4.194   0.095 -0.0628 -0.0749  0.1500
 3930TIP3    H133281   6.446   4.252   0.040  1.3896  0.5132  2.0037
 3930TIP3    H233282   6.312   4.183   0.049 -0.2819  3.2434 -0.4384
 3931TIP3   OH233283   4.191   5.997   3.578 -0.3164  0.0235  0.3467
 3931TIP3    H133284   4.231   5.981   3.663 -1.0704 -2.0558  0.3653
 3931TIP3    H233285   4.260   5.976   3.515  0.0031  0.8405  0.4057
 3932TIP3   OH233286   6.458   1.397  13.866 -0.4697 -0.0561 -0.6659
 3932TIP3    H133287   6.406   1.318  13.853 -0.6854 -0.6607  2.7725
 3932TIP3    H233288   6.548   1.369  13.853 -0.6481 -0.4167 -1.1565
 3933TIP3   OH233289   1.299   4.657  13.051  0.5964 -0.0947 -0.1100
 3933TIP3    H133290   1.286   4.562  13.041 -2.2971  0.1775  0.1484
 3933TIP3    H233291   1.210   4.693  13.047  1.7050  2.7339 -1.2372
 3934TIP3   OH233292   6.601   1.371   1.330 -0.3943  0.5618  0.0375
 3934TIP3    H133293   6.625   1.436   1.264  0.5240  1.2815  1.0548
 3934TIP3    H233294   6.510   1.349   1.310 -0.5633  1.7873 -0.6377
 3935TIP3   OH233295   2.448   5.958  14.189  0.0072 -0.3671  0.0680
 3935TIP3    H133296   2.510   6.025  14.218  2.0377 -1.2107 -2.0296
 3935TIP3    H233297   2.503   5.882  14.170 -1.6372 -1.1042 -2.0613
 3936TIP3   OH233298   0.852   5.484  10.796 -0.0388 -0.1378  0.6517
 3936TIP3    H133299   0.890   5.568  10.819  1.5105 -0.2398 -1.2628
 3936TIP3    H233300   0.757   5.498  10.801  0.1786  1.1478  2.1176
 3937TIP3   OH233301   0.095   2.976  10.911 -0.4556  0.3851 -0.4302
 3937TIP3    H133302   0.082   3.059  10.864  0.3519  1.1747  0.6884
 3937TIP3    H233303   0.086   2.909  10.843 -3.0297  1.2227 -1.0446
 3938TIP3   OH233304   0.166   5.888  14.967  0.0186 -0.1114  0.2772
 3938TIP3    H133305   0.108   5.902  14.892  0.1906 -1.9773 -0.2524
 3938TIP3    H233306   0.124   5.819  15.018  1.7470 -1.5748 -0.1617
 3939TIP3   OH233307   5.697   4.550   3.394 -0.0879  0.2623 -0.4189
 3939TIP3    H133308   5.655   4.500   3.325 -0.2528  1.0678 -0.9239
 3939TIP3    H233309   5.679   4.642   3.371 -0.3854  0.5310  0.8485
 3940TIP3   OH233310   5.194   5.557   0.744 -0.0066  0.5303 -0.4001
 3940TIP3    H133311   5.121   5.615   0.765 -1.3510 -0.8660 -1.0131
 3940TIP3    H233312   5.210   5.573   0.651  0.6257  0.9832 -0.2179
 3941TIP3   OH233313   3.104   5.541  16.102 -0.5033  0.1778  0.0351
 3941TIP3    H133314   3.191   5.554  16.141 -1.0123 -1.6057  1.9268
 3941TIP3    H233315   3.116   5.469  16.040 -0.5969  0.0514  0.1643
 3942TIP3   OH233316   1.503   2.096   5.612  0.7382  0.4949  0.0611
 3942TIP3    H133317   1.581   2.053   5.646  0.3207  0.6545  1.2663
 3942TIP3    H233318   1.498   2.068   5.521  0.4376 -2.0929  0.7956
 3943TIP3   OH233319   6.493   1.842  10.850  0.4751 -0.4216  0.0760
 3943TIP3    H133320   6.404   1.807  10.854  0.2388  0.2655  1.3858
 3943TIP3    H233321   6.543   1.777  10.800 -0.3883 -1.6419  0.7648
 3944TIP3   OH233322   5.077   5.130   0.963 -0.2629 -0.1132 -0.2234
 3944TIP3    H133323   5.172   5.133   0.957 -0.0840 -3.0149 -0.4060
 3944TIP3    H233324   5.047   5.205   0.912  1.9031  1.7387  1.0916
 3945TIP3   OH233325   4.501   0.137   5.161  0.1016 -1.1689  0.5617
 3945TIP3    H133326   4.484   0.206   5.097  0.9909  0.0969  1.6346
 3945TIP3    H233327   4.423   0.082   5.159 -1.2924  0.7004  0.7003
 3946TIP3   OH233328   2.134   1.218   0.861  0.0875  0.3301  0.0935
 3946TIP3    H133329   2.067   1.194   0.797  0.5047 -2.4620  0.5788
 3946TIP3    H233330   2.085   1.245   0.939 -0.4397  0.4588 -0.2817
 3947TIP3   OH233331   2.275   5.591   3.442  0.5408  0.0056 -0.0051
 3947TIP3    H133332   2.327   5.671   3.431  1.1442 -0.3508  0.2352
 3947TIP3    H233333   2.193   5.621   3.482  1.0152  0.4289  0.6684
 3948TIP3   OH233334   5.300   1.558  11.641  0.0580  0.1845  0.1962
 3948TIP3    H133335   5.206   1.570  11.628  0.1475  0.2557 -0.4016
 3948TIP3    H233336   5.329   1.513  11.562  0.5318  0.1706  0.3770
 3949TIP3   OH233337   3.686   5.529  15.876  0.0329  0.1386 -0.2013
 3949TIP3    H133338   3.628   5.548  15.949 -0.2682 -1.8873  0.1296
 3949TIP3    H233339   3.649   5.579  15.803 -0.3292  1.2649  0.7215
 3950TIP3   OH233340   1.697   0.130   5.225 -0.0724  1.1278 -0.0335
 3950TIP3    H133341   1.740   0.175   5.152 -0.8216  1.0609 -0.5257
 3950TIP3    H233342   1.632   0.192   5.257 -0.6729  0.6496 -0.3037
 3951TIP3   OH233343   3.915   6.301   0.613 -0.2945 -0.1135 -0.0919
 3951TIP3    H133344   3.916   6.368   0.681  1.1304 -1.4018  1.2436
 3951TIP3    H233345   3.894   6.219   0.659  0.4145 -0.9736 -1.2162
 3952TIP3   OH233346   0.245   0.914  12.376  0.8159 -0.2009 -0.1857
 3952TIP3    H133347   0.330   0.870  12.380  1.8340  1.5105 -1.2685
 3952TIP3    H233348   0.215   0.900  12.286  1.4648  1.7340 -0.7539
 3953TIP3   OH233349   4.553   1.478  17.176  0.1066 -0.5365  0.5344
 3953TIP3    H133350   4.574   1.483  17.083 -0.5958 -0.3701  0.3774
 3953TIP3    H233351   4.511   1.562  17.195  0.5136 -0.4525  1.0736
 3954TIP3   OH233352   4.780   4.217   0.081 -0.0824  0.2703  0.2725
 3954TIP3    H133353   4.814   4.134   0.113 -1.8225 -0.6610 -0.1691
 3954TIP3    H233354   4.795   4.215  -0.014  0.7486  0.9206  0.3728
 3955TIP3   OH233355   2.179   5.359   1.360  0.1592  0.4608  0.2367
 3955TIP3    H133356   2.147   5.332   1.274  1.4718  2.3694 -0.9059
 3955TIP3    H233357   2.141   5.446   1.373  0.6932  0.5627  1.1950
 3956TIP3   OH233358   1.768   4.043  13.319  0.4964 -0.2986  1.0876
 3956TIP3    H133359   1.805   4.065  13.233  3.2739 -0.5266  2.1330
 3956TIP3    H233360   1.772   3.948  13.323 -0.7075 -0.3603  1.0485
 3957TIP3   OH233361   4.691   0.014  12.303  0.0896 -0.0844 -0.4483
 3957TIP3    H133362   4.665   0.081  12.366 -0.7945  0.2976 -1.1971
 3957TIP3    H233363   4.786   0.006  12.314  0.4948  2.4648 -1.4656
 3958TIP3   OH233364   0.966   3.908   3.509  0.1242  0.5538 -0.3161
 3958TIP3    H133365   0.925   3.986   3.471 -0.2903  0.9211  0.8447
 3958TIP3    H233366   1.059   3.916   3.488 -0.0733  0.8023 -1.1339
 3959TIP3   OH233367   4.934   3.425  11.835 -0.1011 -0.1462  0.0847
 3959TIP3    H133368   5.001   3.357  11.836  0.4670  0.4131  0.5256
 3959TIP3    H233369   4.930   3.456  11.925 -0.7733  0.0063  0.0091
 3960TIP3   OH233370   2.723   3.766   1.012 -0.0642  0.1258 -0.1359
 3960TIP3    H133371   2.696   3.733   0.927  2.0691  0.0578 -0.8509
 3960TIP3    H233372   2.703   3.860   1.009  1.1661  0.3931 -1.2815
 3961TIP3   OH233373   3.054   4.713  12.847 -0.4481 -0.4475 -0.5091
 3961TIP3    H133374   3.074   4.624  12.820 -2.1603 -1.0739  0.1640
 3961TIP3    H233375   3.088   4.768  12.775  2.2188 -1.4455 -0.1264
 3962TIP3   OH233376   3.790   3.703  16.433 -0.4552  0.0064 -0.2421
 3962TIP3    H133377   3.807   3.675  16.524  2.2322  1.8617 -0.0579
 3962TIP3    H233378   3.817   3.628  16.380 -1.9646 -1.0639  0.4385
 3963TIP3   OH233379   1.606   0.834  14.804  0.1338  0.3151 -0.4661
 3963TIP3    H133380   1.664   0.766  14.769  1.5062  1.3263 -0.2363
 3963TIP3    H233381   1.566   0.794  14.881 -0.5313 -0.8602 -1.3810
 3964TIP3   OH233382   1.541   0.889  13.519 -0.1126 -0.4097  0.1438
 3964TIP3    H133383   1.477   0.820  13.537  1.3867 -1.4209  2.0767
 3964TIP3    H233384   1.581   0.864  13.435 -0.4559 -1.2120  0.2131
 3965TIP3   OH233385   6.066   5.725  13.383 -0.5422  0.0566  0.6188
 3965TIP3    H133386   6.065   5.817  13.409 -0.2399  0.6318 -1.2348
 3965TIP3    H233387   6.026   5.724  13.296 -0.3860 -1.5391  0.5326
 3966TIP3   OH233388   2.395   1.006   4.614 -0.6424  0.1902  0.3665
 3966TIP3    H133389   2.484   1.041   4.608 -0.7758  0.6556  0.9589
 3966TIP3    H233390   2.343   1.065   4.559 -0.7615  0.5680  0.8745
 3967TIP3   OH233391   0.457   3.702  15.825  0.6857  0.2853 -0.4119
 3967TIP3    H133392   0.425   3.780  15.871 -0.2084 -0.4991  0.3050
 3967TIP3    H233393   0.417   3.708  15.738  1.3270  1.0699 -0.6770
 3968TIP3   OH233394   1.877   0.952  14.531 -0.1200 -0.5023 -0.6782
 3968TIP3    H133395   1.936   0.879  14.553  0.7553  0.3710 -0.0775
 3968TIP3    H233396   1.793   0.909  14.513  0.0737 -1.5878  0.7819
 3969TIP3   OH233397   6.700   6.139  16.523 -0.0874  0.0455 -0.2152
 3969TIP3    H133398   6.621   6.123  16.576 -1.1715  1.2128 -1.4041
 3969TIP3    H233399   6.727   6.052  16.494  0.2628 -0.5799  1.8220
 3970TIP3   OH233400   5.463   3.345   4.992  0.0905 -0.5739  0.4500
 3970TIP3    H133401   5.552   3.319   5.018 -0.0668 -1.0445  0.5186
 3970TIP3    H233402   5.433   3.401   5.063  0.8467  0.7321 -0.2137
 3971TIP3   OH233403   0.540   4.121   3.377 -0.8485 -0.2694  0.3689
 3971TIP3    H133404   0.450   4.148   3.395 -0.5636 -0.2452  1.8920
 3971TIP3    H233405   0.584   4.201   3.348 -1.0741 -0.0537  0.6224
 3972TIP3   OH233406   4.628   2.695   1.328  0.3789 -0.5962 -0.3127
 3972TIP3    H133407   4.552   2.647   1.296  0.1287 -1.1824  1.0787
 3972TIP3    H233408   4.639   2.665   1.418 -0.8042  3.1305  1.2700
 3973TIP3   OH233409   6.789   5.964   6.194 -0.3303 -0.3795 -0.1728
 3973TIP3    H133410   6.791   5.944   6.288 -1.7569 -2.0576 -0.4421
 3973TIP3    H233411   6.863   5.915   6.158  1.6666  2.0565  0.2757
 3974TIP3   OH233412   3.793   4.645  15.525 -0.0660 -0.3051 -0.1519
 3974TIP3    H133413   3.823   4.735  15.512 -0.1240 -0.5681 -2.7953
 3974TIP3    H233414   3.841   4.595  15.459 -0.1476 -2.2029  1.1614
 3975TIP3   OH233415   4.742   2.580  13.277  0.3453  0.0741  0.0484
 3975TIP3    H133416   4.786   2.523  13.214  0.3035 -1.7425  1.5847
 3975TIP3    H233417   4.649   2.568  13.260  0.3344  1.5631 -1.1731
 3976TIP3   OH233418   5.343   0.480   2.391  0.1146  0.1241  0.6222
 3976TIP3    H133419   5.396   0.401   2.381 -0.0843 -0.1222  1.4399
 3976TIP3    H233420   5.273   0.470   2.326  0.8288  0.2606 -0.1763
 3977TIP3   OH233421   2.897   1.138  13.786  0.3652  0.3920  0.0159
 3977TIP3    H133422   2.930   1.227  13.777  0.1193  0.5533  0.6357
 3977TIP3    H233423   2.975   1.083  13.797  0.4364  0.8101  1.8232
 3978TIP3   OH233424   6.667   5.402  16.368  0.2132 -0.1250  0.8423
 3978TIP3    H133425   6.721   5.326  16.387  0.2485  0.1015  1.6680
 3978TIP3    H233426   6.618   5.378  16.289  1.5943 -0.2989  0.0064
 3979TIP3   OH233427   2.267   1.077  16.086  0.1606  0.2395 -0.0643
 3979TIP3    H133428   2.237   1.162  16.054  0.5953  0.5557  0.3447
 3979TIP3    H233429   2.286   1.027  16.007 -1.2736  0.0767 -0.3335
 3980TIP3   OH233430   5.777   6.341   0.174  0.4653  0.2111  0.3027
 3980TIP3    H133431   5.765   6.433   0.199 -1.2492  0.2315 -0.4590
 3980TIP3    H233432   5.863   6.318   0.211  2.6009  3.0612 -2.3296
 3981TIP3   OH233433   1.654   3.167  15.968  1.1288 -0.5555  0.0518
 3981TIP3    H133434   1.619   3.080  15.954 -0.0479 -0.2422  0.8680
 3981TIP3    H233435   1.745   3.162  15.939  0.6009 -1.5743 -1.5087
 3982TIP3   OH233436   0.409   4.309  17.228  0.5285 -0.6626  0.4664
 3982TIP3    H133437   0.382   4.338  17.141  1.6097 -0.9550  0.0095
 3982TIP3    H233438   0.407   4.213  17.223  0.0862 -0.6825  0.9386
 3983TIP3   OH233439   4.806   3.616   6.141 -0.2143  0.3750 -0.5034
 3983TIP3    H133440   4.761   3.601   6.224  0.0267  0.2768 -0.3896
 3983TIP3    H233441   4.792   3.709   6.123 -1.3212  0.1345 -0.9815
 3984TIP3   OH233442   4.840   1.382  11.489  0.7784  0.0631 -0.4712
 3984TIP3    H133443   4.932   1.404  11.478  0.9398  0.6800  1.5767
 3984TIP3    H233444   4.838   1.322  11.564 -0.6040  1.7834  0.9736
 3985TIP3   OH233445   4.087   5.648   0.690  0.4201  0.2736 -0.0341
 3985TIP3    H133446   4.078   5.630   0.596  0.2055  0.7765 -0.1116
 3985TIP3    H233447   4.020   5.594   0.731 -1.0107  1.7330 -0.3629
 3986TIP3   OH233448   2.476   5.974  11.115  0.2668  0.1926 -0.0322
 3986TIP3    H133449   2.497   5.914  11.187  1.0066  1.6444  1.0172
 3986TIP3    H233450   2.489   5.922  11.036  2.9918 -0.4870  0.7495
 3987TIP3   OH233451   2.487   4.927   5.460 -0.8377  0.1665 -0.2376
 3987TIP3    H133452   2.539   4.869   5.515  1.5928 -1.5841 -4.0062
 3987TIP3    H233453   2.402   4.884   5.453 -1.2843  0.5517  2.1745
 3988TIP3   OH233454   3.557   5.250  10.595  0.2292 -0.5650 -0.1719
 3988TIP3    H133455   3.467   5.262  10.567 -0.1313 -0.3654  1.0307
 3988TIP3    H233456   3.560   5.161  10.630  0.4584 -0.5212 -0.0738
 3989TIP3   OH233457   4.110   0.469  13.171  0.1094  0.7642  0.3424
 3989TIP3    H133458   4.024   0.465  13.213  0.3291 -0.6361  0.7077
 3989TIP3    H233459   4.136   0.377  13.160  1.6472  1.1583  0.4329
 3990TIP3   OH233460   1.368   5.700   0.992  0.2601 -0.4890 -0.3992
 3990TIP3    H133461   1.440   5.726   0.934 -0.1088 -2.1837 -1.7101
 3990TIP3    H233462   1.289   5.716   0.941 -0.4436  2.1029  1.3180
 3991TIP3   OH233463   5.102   1.269  12.726  0.1637  0.0657  0.1533
 3991TIP3    H133464   5.059   1.201  12.778  3.6446 -0.3282  2.8637
 3991TIP3    H233465   5.155   1.220  12.664  0.9100  0.3558  0.5569
 3992TIP3   OH233466   4.297   2.423   3.885 -0.2939  0.2085  0.0116
 3992TIP3    H133467   4.327   2.511   3.905  0.3393  0.1096 -0.4564
 3992TIP3    H233468   4.252   2.394   3.964 -0.9066  1.1151  0.0117
 3993TIP3   OH233469   5.942   2.175  16.666 -0.0483  0.3178 -0.1329
 3993TIP3    H133470   5.858   2.136  16.643  0.9516 -1.6744 -0.5952
 3993TIP3    H233471   5.964   2.139  16.751  1.2918 -0.8973 -0.9424
 3994TIP3   OH233472   6.304   2.303   4.656 -0.3346  0.1284  0.0395
 3994TIP3    H133473   6.267   2.357   4.726  0.6292  0.6755  0.1422
 3994TIP3    H233474   6.239   2.308   4.586 -0.9676  0.1679  0.6201
 3995TIP3   OH233475   1.794   0.281  12.862 -0.2535  0.2997  0.7254
 3995TIP3    H133476   1.845   0.221  12.916  0.4758  1.7088  1.6685
 3995TIP3    H233477   1.840   0.365  12.869 -0.2881  0.6314 -1.8610
 3996TIP3   OH233478   6.403   5.662  11.493 -0.9029  0.1208 -0.0978
 3996TIP3    H133479   6.386   5.719  11.568  2.3992  0.8750  0.2249
 3996TIP3    H233480   6.379   5.715  11.417 -1.4519  0.4763  0.3162
 3997TIP3   OH233481   1.950   1.074   0.653 -0.1057 -0.0739 -0.0737
 3997TIP3    H133482   1.957   1.003   0.589  2.2062  0.5735 -0.6468
 3997TIP3    H233483   1.952   1.154   0.600 -2.8794  0.4966  0.5415
 3998TIP3   OH233484   0.462   2.478   0.568  0.5263 -0.0428 -0.6124
 3998TIP3    H133485   0.467   2.571   0.546 -2.8070  0.6652  1.0558
 3998TIP3    H233486   0.372   2.453   0.547  1.5368 -3.1685 -1.7710
 3999TIP3   OH233487   1.127   0.485   1.556  0.2174  0.3423 -0.2802
 3999TIP3    H133488   1.045   0.450   1.590 -1.0055  0.2835 -2.9829
 3999TIP3    H233489   1.169   0.528   1.631 -3.9887  3.5886  0.5848
 4000TIP3   OH233490   4.381   4.375   5.737  0.2117  0.3556  0.3484
 4000TIP3    H133491   4.397   4.465   5.766  0.2988  0.1260  1.0133
 4000TIP3    H233492   4.467   4.333   5.739  0.2341  0.3512 -0.3165
 4001TIP3   OH233493   1.438   5.950  15.446 -0.2899  0.3578  0.0816
 4001TIP3    H133494   1.389   5.903  15.513 -0.2842  0.8579  0.4433
 4001TIP3    H233495   1.447   6.039  15.481  0.9950  0.2396  0.0877
 4002TIP3   OH233496   1.948   5.190  12.335 -0.0113 -0.1613  0.1910
 4002TIP3    H133497   1.940   5.186  12.430 -0.5410 -0.3988  0.1379
 4002TIP3    H233498   1.858   5.182  12.303  0.3317 -2.2884 -0.4012
 4003TIP3   OH233499   4.953   1.773  11.855  0.2031  0.3643  0.0226
 4003TIP3    H133500   4.995   1.846  11.900 -0.9859  0.8082  0.4537
 4003TIP3    H233501   4.920   1.810  11.773 -1.4707  0.6594  0.7797
 4004TIP3   OH233502   0.998   0.972  17.188  0.1378 -0.2063  0.6718
 4004TIP3    H133503   0.966   0.931  17.269  0.2157 -4.3563 -1.1485
 4004TIP3    H233504   0.974   0.911  17.119  1.8640  2.1398 -2.2574
 4005TIP3   OH233505   0.729   5.191  15.985 -0.2981 -0.3836  0.2972
 4005TIP3    H133506   0.735   5.096  15.997 -1.3613 -0.4457  0.3996
 4005TIP3    H233507   0.638   5.207  15.963 -0.5421  0.7833  1.9473
 4006TIP3   OH233508   3.354   0.723   4.261 -0.1649 -0.2380 -0.4142
 4006TIP3    H133509   3.275   0.695   4.309  0.0413 -1.1813 -0.6144
 4006TIP3    H233510   3.410   0.762   4.329 -0.0044 -1.2893  0.0749
 4007TIP3   OH233511   1.671   2.707   2.070 -0.1866 -0.2869  0.5734
 4007TIP3    H133512   1.691   2.658   2.150 -0.1967  1.4470  1.6887
 4007TIP3    H233513   1.757   2.735   2.038 -0.3060  0.6865  1.0890
 4008TIP3   OH233514   5.888   3.421  12.326 -0.0517 -0.3776  0.4939
 4008TIP3    H133515   5.795   3.403  12.338 -0.1529 -0.2662 -0.0931
 4008TIP3    H233516   5.899   3.511  12.355  0.0442 -0.6736  1.3942
 4009TIP3   OH233517   4.418   4.029   1.070 -0.3559  0.3961  0.1056
 4009TIP3    H133518   4.476   4.039   0.995  0.0423 -0.2145  0.3280
 4009TIP3    H233519   4.441   4.103   1.127  0.6231 -0.1537  0.4552
 4010TIP3   OH233520   3.361   0.718  16.068  0.2370  0.1837  0.1368
 4010TIP3    H133521   3.342   0.737  16.160  1.5117  0.4048  0.3593
 4010TIP3    H233522   3.324   0.791  16.020  2.0397  1.5359  0.7121
 4011TIP3   OH233523   4.751   3.974   6.158  0.5030 -0.0793  0.5466
 4011TIP3    H133524   4.824   4.017   6.203  1.4754 -1.2708  0.1485
 4011TIP3    H233525   4.720   3.908   6.221  1.3463 -1.2049 -0.1830
 4012TIP3   OH233526   2.983   6.295   2.776  0.2828  0.7170  0.4259
 4012TIP3    H133527   2.898   6.299   2.821  1.0825  0.1199  2.0882
 4012TIP3    H233528   3.001   6.385   2.750 -0.9204  0.8297 -0.0804
 4013TIP3   OH233529   4.454   3.632   2.724  0.2727 -0.3942  0.1456
 4013TIP3    H133530   4.519   3.658   2.658  0.6236  0.9044  0.9610
 4013TIP3    H233531   4.390   3.580   2.676  2.8249 -3.3465 -0.3753
 4014TIP3   OH233532   6.579   5.892   0.384  0.2774  0.6449 -0.5993
 4014TIP3    H133533   6.534   5.836   0.448  0.2760  1.6833  0.3374
 4014TIP3    H233534   6.578   5.841   0.303 -0.4016 -0.3847  0.0291
 4015TIP3   OH233535   6.697   2.534   2.076 -0.4808  0.3546 -0.1001
 4015TIP3    H133536   6.681   2.628   2.083 -0.5929  0.4762 -1.6770
 4015TIP3    H233537   6.743   2.512   2.157  1.0364  2.0974 -0.4255
 4016TIP3   OH233538   5.468   5.687   2.749 -0.0704 -0.0750 -0.4587
 4016TIP3    H133539   5.505   5.759   2.698  2.2132 -0.7505  0.1456
 4016TIP3    H233540   5.473   5.717   2.840  0.4943 -0.8138 -0.2382
 4017TIP3   OH233541   0.507   3.070  12.641 -0.0345  0.9174  0.2173
 4017TIP3    H133542   0.562   2.992  12.640  0.4263  1.2120  1.2940
 4017TIP3    H233543   0.422   3.040  12.674 -0.2726  0.6272 -0.6377
 4018TIP3   OH233544   3.336   3.753  12.864  0.6690 -0.4606  0.3914
 4018TIP3    H133545   3.309   3.669  12.901 -0.4760 -0.4296 -0.3285
 4018TIP3    H233546   3.280   3.818  12.908  0.5731 -0.2304 -0.0582
 4019TIP3   OH233547   0.471   1.104  12.510  0.0834 -0.2450  0.4304
 4019TIP3    H133548   0.390   1.083  12.556 -0.2042  1.0379  0.5425
 4019TIP3    H233549   0.511   1.175  12.562  1.0039 -0.4880  0.0788
 4020TIP3   OH233550   4.411   0.611  14.766  0.5073 -0.1483 -0.0478
 4020TIP3    H133551   4.363   0.529  14.774  1.3549 -0.8030 -1.4552
 4020TIP3    H233552   4.369   0.658  14.695  0.2594  0.4973  0.5074
 4021TIP3   OH233553   1.210   0.493  14.893 -0.0049 -0.0070  0.3203
 4021TIP3    H133554   1.265   0.417  14.873  0.2216  0.0100  0.8574
 4021TIP3    H233555   1.155   0.464  14.966  0.3768  0.4772  0.8110
 4022TIP3   OH233556   1.951   1.834   1.819  0.0080  0.0650 -0.1417
 4022TIP3    H133557   1.984   1.773   1.753  0.1256  0.5389 -0.5323
 4022TIP3    H233558   1.973   1.921   1.784  0.5309  0.3118  0.7620
 4023TIP3   OH233559   5.438   6.259  17.283 -0.3038  0.2182  0.5507
 4023TIP3    H133560   5.423   6.266  17.377 -1.1592  1.0870  0.3681
 4023TIP3    H233561   5.529   6.232  17.275 -0.7712 -1.9925  1.6724
 4024TIP3   OH233562   5.792   6.369  10.647 -0.4373 -0.3691  0.5426
 4024TIP3    H133563   5.720   6.417  10.607 -1.2588 -1.9705  0.0169
 4024TIP3    H233564   5.798   6.404  10.736  0.1245  1.8582 -0.3023
 4025TIP3   OH233565   1.984   6.237   4.321 -0.6803  0.2216  0.0333
 4025TIP3    H133566   1.973   6.143   4.308  1.4253 -0.0476 -0.2074
 4025TIP3    H233567   2.036   6.244   4.401 -0.9133  1.1933  0.1128
 4026TIP3   OH233568   5.982   5.376  11.892 -0.5844  0.2225 -0.1994
 4026TIP3    H133569   5.983   5.378  11.988  3.1325  0.9479 -0.1149
 4026TIP3    H233570   5.960   5.466  11.867 -0.6411  0.2558 -0.0320
 4027TIP3   OH233571   2.917   4.773   0.500  0.3493 -0.4206 -0.0142
 4027TIP3    H133572   2.987   4.782   0.436 -0.7734  2.2520 -0.9767
 4027TIP3    H233573   2.851   4.719   0.456  0.9719 -1.3933  0.2072
 4028TIP3   OH233574   6.107   4.643   0.697 -0.4732  0.3963  0.8354
 4028TIP3    H133575   6.195   4.679   0.682 -0.2203 -0.0257  1.2887
 4028TIP3    H233576   6.107   4.561   0.648 -0.8758  0.7559  0.2213
 4029TIP3   OH233577   2.165   5.042  15.838 -0.0154  0.0710  0.5585
 4029TIP3    H133578   2.193   5.040  15.930 -0.0866 -3.2176  0.6260
 4029TIP3    H233579   2.246   5.031  15.788 -0.0896  0.8192  0.2735
 4030TIP3   OH233580   6.143   2.856   4.354  0.5244  0.2713  0.2692
 4030TIP3    H133581   6.057   2.824   4.325  0.2839 -0.4738  1.6710
 4030TIP3    H233582   6.202   2.834   4.282 -0.4321  0.6827 -0.6662
 4031TIP3   OH233583   3.896   1.122  15.969  0.2150 -0.3536  0.5812
 4031TIP3    H133584   3.934   1.209  15.967  0.6454 -0.5425  0.4617
 4031TIP3    H233585   3.901   1.095  16.061  1.5741 -0.8937  0.3810
 4032TIP3   OH233586   2.093   4.434  15.568  0.3071 -0.6654  0.3187
 4032TIP3    H133587   2.066   4.459  15.656  0.6481  0.3813  0.1350
 4032TIP3    H233588   2.188   4.430  15.572  0.3635  0.0146 -0.1507
 4033TIP3   OH233589   1.772   0.330   1.497 -0.0304  0.6321  0.7090
 4033TIP3    H133590   1.686   0.368   1.516 -0.7019 -1.1796  1.4733
 4033TIP3    H233591   1.763   0.238   1.520  1.8036  0.1702 -0.2524
 4034TIP3   OH233592   6.068   4.660   6.453 -0.2879 -0.1665 -0.0778
 4034TIP3    H133593   6.080   4.625   6.365  0.3695  1.7323 -0.8063
 4034TIP3    H233594   6.098   4.590   6.511 -2.0503 -1.9968 -1.2655
 4035TIP3   OH233595   3.340   6.221  12.572 -0.2486 -0.4091 -0.1695
 4035TIP3    H133596   3.270   6.260  12.520 -0.7118  1.0296  1.4466
 4035TIP3    H233597   3.328   6.126  12.562  0.2809 -0.2257 -3.3785
 4036TIP3   OH233598   0.093   2.799   2.787 -0.1784 -0.4904 -0.2860
 4036TIP3    H133599   0.120   2.891   2.794  0.5113 -0.6616 -0.6397
 4036TIP3    H233600   0.025   2.798   2.720  0.4166 -0.3627 -0.8962
 4037TIP3   OH233601   5.245   3.326  15.209 -0.4728  0.3647 -0.2954
 4037TIP3    H133602   5.215   3.367  15.128  1.8052  1.0314 -0.8583
 4037TIP3    H233603   5.287   3.397  15.258  1.8010 -0.8442 -0.4079
 4038TIP3   OH233604   3.726   6.605  11.628 -0.2091 -0.0971  0.1631
 4038TIP3    H133605   3.809   6.560  11.614  0.1860  0.4559  0.7245
 4038TIP3    H233606   3.725   6.677  11.565 -0.3358 -0.1933  0.0523
 4039TIP3   OH233607   1.116   2.613  15.810  0.1363  0.2437 -0.2775
 4039TIP3    H133608   1.146   2.704  15.800 -0.8503  0.6053 -0.0555
 4039TIP3    H233609   1.190   2.567  15.849  0.9255  0.7746 -1.1075
 4040TIP3   OH233610   0.215   3.589  13.944 -0.0866 -0.9245 -0.2849
 4040TIP3    H133611   0.283   3.655  13.935  1.0236 -1.9376  0.3385
 4040TIP3    H233612   0.205   3.552  13.857 -1.1673  0.4471 -0.7853
 4041TIP3   OH233613   6.129   1.279  13.450  0.0260  0.3693  0.3712
 4041TIP3    H133614   6.153   1.356  13.502  0.9932  0.8720 -0.7716
 4041TIP3    H233615   6.057   1.309  13.394  0.6953  0.5926 -0.3877
 4042TIP3   OH233616   1.838   5.758   4.113 -0.1720  0.0387 -0.1439
 4042TIP3    H133617   1.879   5.708   4.043 -0.4535  1.1868 -1.1706
 4042TIP3    H233618   1.821   5.694   4.182  1.3867 -0.8634 -0.5457
 4043TIP3   OH233619   0.928   2.348   0.787 -0.0852 -0.1837 -0.4382
 4043TIP3    H133620   0.857   2.384   0.734  0.6132 -1.2379 -2.1508
 4043TIP3    H233621   0.884   2.307   0.861 -1.2826 -0.7083 -1.4012
 4044TIP3   OH233622   1.052   5.570  11.897  0.7579  0.0203 -0.3035
 4044TIP3    H133623   0.975   5.559  11.841  0.8505 -2.1669 -0.1012
 4044TIP3    H233624   1.031   5.645  11.952 -1.2898 -0.5373 -0.2167
 4045TIP3   OH233625   2.662   0.191   3.890  0.3914 -0.0939  0.5026
 4045TIP3    H133626   2.633   0.269   3.843 -0.3054 -0.5088  0.2352
 4045TIP3    H233627   2.601   0.123   3.864  0.6762 -0.6079  1.1454
 4046TIP3   OH233628   3.733   5.557  14.330 -0.1132  0.6207  0.0128
 4046TIP3    H133629   3.648   5.523  14.303  0.0452  0.5423 -0.3833
 4046TIP3    H233630   3.751   5.629  14.270 -1.6881  3.2863  2.4285
 4047TIP3   OH233631   2.827   5.916  14.582 -0.4357  0.2832 -0.1325
 4047TIP3    H133632   2.871   5.984  14.531 -0.2697  1.5654  1.6452
 4047TIP3    H233633   2.898   5.867  14.624 -0.4744 -1.9310 -2.4112
 4048TIP3   OH233634   2.155   5.984   3.251  0.2830  0.6251 -0.1976
 4048TIP3    H133635   2.197   6.069   3.255 -0.0152  0.7546  3.2282
 4048TIP3    H233636   2.227   5.921   3.255  0.4765  0.8502  3.9105
 4049TIP3   OH233637   1.076   1.588   4.444  0.6290 -0.2037  0.0284
 4049TIP3    H133638   1.088   1.517   4.381 -0.7249 -1.4524  1.0997
 4049TIP3    H233639   1.007   1.642   4.406  0.8938 -0.0820 -0.2804
 4050TIP3   OH233640   4.037   0.333  11.424  0.4199  0.2990 -0.3543
 4050TIP3    H133641   4.010   0.252  11.468 -1.1921  0.6238 -0.6589
 4050TIP3    H233642   4.132   0.332  11.428  0.4042 -1.1348  0.5054
 4051TIP3   OH233643   1.393   6.208  14.539 -0.2136  0.4816 -0.3085
 4051TIP3    H133644   1.417   6.299  14.524 -1.2294  0.4857 -2.2015
 4051TIP3    H233645   1.299   6.205  14.517 -0.3546 -0.8745  0.4165
 4052TIP3   OH233646   5.046   1.720   3.116 -0.3134 -0.1986 -0.1996
 4052TIP3    H133647   5.057   1.674   3.200 -1.8605 -1.8089 -0.8220
 4052TIP3    H233648   4.993   1.797   3.138  0.0779 -0.1002  0.4402
 4053TIP3   OH233649   3.935   5.563  14.059 -0.4399 -0.5771 -0.4836
 4053TIP3    H133650   3.927   5.558  13.963  0.3499  3.7716 -1.0184
 4053TIP3    H233651   3.896   5.648  14.081  2.1200 -0.0156  2.6116
 4054TIP3   OH233652   1.901   5.100  17.273 -0.1532 -0.2252 -0.2092
 4054TIP3    H133653   1.830   5.109  17.337  0.5822 -2.0327  0.9202
 4054TIP3    H233654   1.898   5.009  17.246  2.1951 -0.5802  0.4685
 4055TIP3   OH233655   4.880   4.474  11.479  0.1754 -0.2517 -0.4347
 4055TIP3    H133656   4.945   4.451  11.546 -0.6034  0.2398  0.5103
 4055TIP3    H233657   4.922   4.542  11.427  0.6257 -0.3159 -0.1608
 4056TIP3   OH233658   5.154   5.668   4.650 -0.2590  0.3117 -0.7831
 4056TIP3    H133659   5.059   5.657   4.648 -0.3522  0.9298 -0.1722
 4056TIP3    H233660   5.182   5.622   4.729 -0.0073 -0.1550 -1.1408
 4057TIP3   OH233661   4.218   1.235  15.693  0.5292 -0.3864 -0.6708
 4057TIP3    H133662   4.193   1.280  15.613  2.0845 -0.7038 -1.3785
 4057TIP3    H233663   4.250   1.304  15.751  3.6162 -0.5453 -2.0293
 4058TIP3   OH233664   1.229   5.137  13.223 -0.1107 -0.0092 -0.0176
 4058TIP3    H133665   1.296   5.133  13.154 -1.3442  1.2526 -1.3605
 4058TIP3    H233666   1.258   5.073  13.288  0.9271 -1.5382 -1.8732
 4059TIP3   OH233667   4.331   4.539  14.916  0.4911 -0.0831  0.3002
 4059TIP3    H133668   4.272   4.510  14.986  0.3048  0.8408  0.5374
 4059TIP3    H233669   4.274   4.586  14.855  0.6745 -0.7807 -0.4254
 4060TIP3   OH233670   6.419   4.334  15.356 -0.2765  0.1611  0.1893
 4060TIP3    H133671   6.499   4.371  15.393  0.0075  0.8410 -1.0691
 4060TIP3    H233672   6.447   4.251  15.317  0.0817  0.9380 -1.2746
 4061TIP3   OH233673   6.088   2.210  15.745  0.5180 -0.4967  0.4484
 4061TIP3    H133674   6.146   2.135  15.738  0.3217 -0.6656  0.6109
 4061TIP3    H233675   6.097   2.256  15.661 -1.7685 -2.4581 -0.9943
 4062TIP3   OH233676   4.823   2.823   1.879  0.2595 -0.3096  0.0669
 4062TIP3    H133677   4.795   2.761   1.946 -0.7972 -0.4677 -0.4930
 4062TIP3    H233678   4.796   2.908   1.912 -2.0700 -0.5586 -0.9759
 4063TIP3   OH233679   5.854   6.587  16.842  0.1708  0.0440 -0.1199
 4063TIP3    H133680   5.819   6.523  16.781 -1.2871 -0.1421  0.8543
 4063TIP3    H233681   5.937   6.614  16.804 -0.2403 -0.7732 -1.6712
 4064TIP3   OH233682   0.041   0.836  12.558  0.5036 -0.8622  0.2627
 4064TIP3    H133683   0.097   0.874  12.490 -1.7662 -0.1020 -1.2893
 4064TIP3    H233684  -0.042   0.818  12.514 -1.4195  0.5139  3.0108
 4065TIP3   OH233685   6.024   0.461   5.817 -0.4540  0.3393  0.0697
 4065TIP3    H133686   6.071   0.439   5.897  0.6987 -2.6170 -1.2610
 4065TIP3    H233687   5.936   0.423   5.830 -0.6226  0.8291  0.3578
 4066TIP3   OH233688   5.699   4.248   2.590 -0.0128  0.8243  0.3576
 4066TIP3    H133689   5.664   4.159   2.588  0.9520  0.4279  0.7325
 4066TIP3    H233690   5.794   4.237   2.597  0.2329  1.8844 -0.9214
 4067TIP3   OH233691   0.870   0.899   2.253  0.4535  0.1490  0.0514
 4067TIP3    H133692   0.882   0.984   2.210 -0.3824  0.5538  0.5983
 4067TIP3    H233693   0.815   0.918   2.329 -0.1732 -0.9699 -0.1027
 4068TIP3   OH233694   3.399   5.292   2.208  0.0158 -0.2970  0.5207
 4068TIP3    H133695   3.389   5.306   2.302  0.9583  0.2773  0.5449
 4068TIP3    H233696   3.374   5.201   2.194 -0.8809 -0.1777  1.2020
 4069TIP3   OH233697   1.776   4.238   1.594 -0.4580  0.5717  0.1452
 4069TIP3    H133698   1.808   4.324   1.619 -0.0199  0.3175  0.4767
 4069TIP3    H233699   1.687   4.253   1.563 -0.4605  1.1086  0.4100
 4070TIP3   OH233700   1.343   2.257  12.495 -0.0833  0.4984  0.2957
 4070TIP3    H133701   1.425   2.269  12.544  0.4496  0.7697 -0.6309
 4070TIP3    H233702   1.360   2.299  12.411 -1.8124  2.1403  0.7114
 4071TIP3   OH233703   4.715   5.064  16.272 -0.8304  0.3333 -0.0506
 4071TIP3    H133704   4.680   5.110  16.196  1.4597  2.1956 -0.0918
 4071TIP3    H233705   4.644   5.067  16.337 -1.6317  1.7752 -0.9363
 4072TIP3   OH233706   6.220   4.146   3.082 -0.0892 -0.5503  0.5693
 4072TIP3    H133707   6.293   4.170   3.026 -1.5775  0.3797 -1.0978
 4072TIP3    H233708   6.240   4.058   3.112  1.5287 -0.4469 -0.1260
 4073TIP3   OH233709   3.109   0.155   1.872 -0.3657  0.0378 -0.0241
 4073TIP3    H133710   3.106   0.081   1.933  0.8602  0.0538  0.0784
 4073TIP3    H233711   3.126   0.231   1.927 -0.1095  0.1731 -0.2871
 4074TIP3   OH233712   6.262   0.747   0.211 -0.3202 -0.0425 -0.0574
 4074TIP3    H133713   6.191   0.798   0.173  1.1090  0.8155 -1.7323
 4074TIP3    H233714   6.316   0.812   0.258 -1.1693 -0.8427  2.1424
 4075TIP3   OH233715   4.811   6.687   5.721  0.7877 -0.5092 -0.2846
 4075TIP3    H133716   4.837   6.595   5.714 -0.0861 -0.9667  1.9738
 4075TIP3    H233717   4.716   6.685   5.731  0.9235  0.4770  1.6497
 4076TIP3   OH233718   5.278   3.979  16.272 -0.7366 -0.8222 -0.1825
 4076TIP3    H133719   5.320   4.013  16.351  0.0949  1.9131 -1.6473
 4076TIP3    H233720   5.185   4.002  16.283 -0.5798 -0.2024 -0.1047
 4077TIP3   OH233721   2.233   2.433  16.056  0.1722 -0.0965  0.1493
 4077TIP3    H133722   2.302   2.464  16.115 -0.0964  0.0933  0.3668
 4077TIP3    H233723   2.180   2.374  16.109  0.2910 -0.4150 -0.0768
 4078TIP3   OH233724   0.045   1.135  16.982  0.0040  0.6790 -0.4797
 4078TIP3    H133725  -0.021   1.153  16.916 -0.4478 -0.9892 -0.5323
 4078TIP3    H233726   0.086   1.053  16.954  1.2820  1.0656  0.1787
 4079TIP3   OH233727   0.502   6.430  14.062  0.0211  0.1231  0.0224
 4079TIP3    H133728   0.565   6.491  14.023 -0.2508 -0.2430 -1.0339
 4079TIP3    H233729   0.486   6.464  14.150  1.6851  0.2288  0.3065
 4080TIP3   OH233730   2.145   2.341   1.613 -0.1182 -0.7141  0.2122
 4080TIP3    H133731   2.221   2.398   1.621  0.7322 -1.9882  1.9065
 4080TIP3    H233732   2.118   2.349   1.521  1.9030 -0.0320 -0.3752
 4081TIP3   OH233733   3.096   2.179  14.983 -0.2052  0.5095  0.1143
 4081TIP3    H133734   3.096   2.161  15.077 -1.2808 -0.5997 -0.0699
 4081TIP3    H233735   3.011   2.221  14.966  0.1821  1.1515 -0.2974
 4082TIP3   OH233736   0.926   6.818   5.307  0.1037  0.3350  0.3256
 4082TIP3    H133737   1.011   6.859   5.291  0.5724  0.0344  1.8245
 4082TIP3    H233738   0.901   6.849   5.394 -0.2005 -1.3880  0.8924
 4083TIP3   OH233739   6.383   5.540  13.980 -0.0885 -0.4530  0.4277
 4083TIP3    H133740   6.322   5.534  13.906  1.7002 -1.8475 -1.0284
 4083TIP3    H233741   6.468   5.519  13.942  1.0888 -0.0345  2.6871
 4084TIP3   OH233742   1.732   0.951   3.337 -0.5202 -0.2020 -0.5151
 4084TIP3    H133743   1.715   0.903   3.256  0.8315 -0.4339 -0.6788
 4084TIP3    H233744   1.796   1.017   3.313  1.1025 -1.2712  0.6628
 4085TIP3   OH233745   4.752   3.897   5.427  0.4265 -0.5850  0.0136
 4085TIP3    H133746   4.819   3.829   5.438  0.1414 -0.9830 -0.6194
 4085TIP3    H233747   4.705   3.871   5.347  0.0909  0.1721 -0.0425
 4086TIP3   OH233748   3.651   4.242  17.230  0.2205  0.6594  0.0148
 4086TIP3    H133749   3.737   4.273  17.203 -0.1104  0.0408 -1.9205
 4086TIP3    H233750   3.659   4.147  17.230 -0.0667  0.6155  1.3264
 4087TIP3   OH233751   1.376   5.914  16.224  0.3104 -0.5655  0.3254
 4087TIP3    H133752   1.459   5.931  16.179 -1.6568  1.5239 -2.9579
 4087TIP3    H233753   1.340   6.001  16.241 -1.9372 -1.3830  0.0896
 4088TIP3   OH233754   0.823   3.035   5.578 -0.3948 -0.0369 -0.1119
 4088TIP3    H133755   0.836   3.039   5.483 -0.4727 -2.4132 -0.2891
 4088TIP3    H233756   0.736   2.999   5.589 -1.9031  3.5074  0.9888
 4089TIP3   OH233757   2.418   4.329   0.911 -0.0238 -0.0913  0.3012
 4089TIP3    H133758   2.346   4.267   0.917  0.8041 -1.2429 -0.9881
 4089TIP3    H233759   2.386   4.396   0.850 -0.1758 -0.3661  0.0745
 4090TIP3   OH233760   3.463   6.066   1.653  0.7253  0.2149  0.2049
 4090TIP3    H133761   3.393   6.061   1.718  1.3185 -1.9767  0.7553
 4090TIP3    H233762   3.435   6.008   1.583  1.8344 -0.5208  0.3336
 4091TIP3   OH233763   0.624   4.148  14.541  0.1178  0.1514 -0.4624
 4091TIP3    H133764   0.583   4.145  14.627  1.6444 -2.9920  0.2613
 4091TIP3    H233765   0.714   4.177  14.557  0.3220 -0.1387 -1.0321
 4092TIP3   OH233766   1.514   6.008  17.098 -0.0730  0.6540 -0.7462
 4092TIP3    H133767   1.604   6.041  17.098 -0.1708  0.9292 -1.0641
 4092TIP3    H233768   1.513   5.940  17.165  0.4183  0.5285 -0.8639
 4093TIP3   OH233769   3.274   1.884   4.520  0.0186  0.0820 -0.7148
 4093TIP3    H133770   3.217   1.935   4.464  1.2687  1.4931 -0.7753
 4093TIP3    H233771   3.272   1.929   4.605  0.1660 -0.5103 -0.3829
 4094TIP3   OH233772   4.442   4.941  12.232 -0.3190 -0.8723 -0.4188
 4094TIP3    H133773   4.362   4.889  12.222  1.0819 -3.4194  0.4722
 4094TIP3    H233774   4.468   4.928  12.323  0.2107  1.3701 -0.1883
 4095TIP3   OH233775   5.187   5.592   6.132  0.4827  0.6749 -0.3116
 4095TIP3    H133776   5.103   5.610   6.091  0.5266  1.3241 -0.1161
 4095TIP3    H233777   5.239   5.552   6.062 -0.5770 -1.4758  0.0506
 4096TIP3   OH233778   6.533   2.979  12.270  0.0205 -0.4052 -0.1429
 4096TIP3    H133779   6.476   2.929  12.329 -0.6533 -0.0755 -0.5000
 4096TIP3    H233780   6.619   2.939  12.280  0.0522  0.0020  1.4830
 4097TIP3   OH233781   0.593   1.926  13.397  0.2783  0.1807  0.0160
 4097TIP3    H133782   0.540   1.860  13.352 -0.0070  0.4814 -0.0900
 4097TIP3    H233783   0.678   1.883  13.409 -0.1737 -0.5394  0.7738
 4098TIP3   OH233784   6.236   4.745  13.278  0.0408  0.0896  0.0138
 4098TIP3    H133785   6.295   4.687  13.230 -0.4266  1.0373 -1.7893
 4098TIP3    H233786   6.172   4.687  13.319 -1.5956 -0.6860 -3.3310
 4099TIP3   OH233787   0.161   4.441   5.373 -0.4032  0.7602 -0.4091
 4099TIP3    H133788   0.214   4.514   5.343  0.9567 -0.9044 -2.2986
 4099TIP3    H233789   0.224   4.370   5.389 -1.6646 -0.0566  1.3472
 4100TIP3   OH233790   0.885   6.015  16.995 -0.3050 -0.4408  0.0416
 4100TIP3    H133791   0.926   5.999  17.080  0.0609  3.2857  0.7321
 4100TIP3    H233792   0.841   6.099  17.005 -0.9135 -0.2291 -3.2488
 4101TIP3   OH233793   3.477   3.187   4.716 -0.2612 -0.2888 -0.0444
 4101TIP3    H133794   3.417   3.147   4.653 -1.1936 -1.8467  1.7197
 4101TIP3    H233795   3.424   3.253   4.761  0.1133  0.1166 -0.1879
 4102TIP3   OH233796   1.039   4.137  15.574  0.0867 -0.2968 -0.5904
 4102TIP3    H133797   1.107   4.132  15.641 -0.4124  0.6640  0.0042
 4102TIP3    H233798   1.065   4.212  15.520  0.1601 -0.6923 -1.1110
 4103TIP3   OH233799   2.476   1.115  11.508 -0.2324 -0.0333  0.0683
 4103TIP3    H133800   2.569   1.129  11.529 -0.1681 -1.6137  1.0877
 4103TIP3    H233801   2.477   1.045  11.442 -0.6664  1.1078 -1.1879
 4104TIP3   OH233802   2.746   5.940  12.181 -0.4385 -0.2627 -0.6456
 4104TIP3    H133803   2.820   5.994  12.152 -1.1602  2.4599  2.0430
 4104TIP3    H233804   2.771   5.908  12.268 -2.3367  0.7872  0.3689
 4105TIP3   OH233805   1.586   4.433   2.401  0.2357  0.1576 -0.2707
 4105TIP3    H133806   1.621   4.504   2.455 -0.0045  0.4026 -0.4390
 4105TIP3    H233807   1.556   4.368   2.465 -1.1361  0.9463 -0.0549
 4106TIP3   OH233808   5.002   1.045  12.875  0.4099  0.1590  0.1562
 4106TIP3    H133809   4.949   1.070  12.951 -0.9034 -0.0084 -0.6760
 4106TIP3    H233810   4.979   0.953  12.859  1.0130  0.0600 -0.1952
 4107TIP3   OH233811   4.026   0.938  13.143 -0.0296 -0.0215  0.4400
 4107TIP3    H133812   4.081   0.977  13.211  1.8268  0.4377 -1.2456
 4107TIP3    H233813   4.070   0.856  13.121 -0.8725 -0.3982  0.1030
 4108TIP3   OH233814   3.348   4.945   4.557 -0.0328 -0.0766  0.6555
 4108TIP3    H133815   3.271   4.938   4.501 -1.7657 -1.8945  3.0669
 4108TIP3    H233816   3.378   5.035   4.546 -1.3374  0.1451 -1.7558
 4109TIP3   OH233817   2.178   0.478   6.187 -0.0342 -0.1694 -0.1335
 4109TIP3    H133818   2.124   0.500   6.111  1.6653  0.2177 -1.2893
 4109TIP3    H233819   2.200   0.385   6.174 -0.9293 -0.5048  0.6760
 4110TIP3   OH233820   5.458   1.907  14.946  0.2702  0.2544  0.0990
 4110TIP3    H133821   5.466   2.000  14.923  0.3993  0.2078 -0.0396
 4110TIP3    H233822   5.535   1.865  14.907  0.5521  0.1960  0.7175
 4111TIP3   OH233823   0.790   6.511   3.540  0.1778  0.1452 -0.3712
 4111TIP3    H133824   0.804   6.495   3.447  0.1061  1.4965 -0.6422
 4111TIP3    H233825   0.877   6.532   3.574  0.2975 -0.9138  0.0003
 4112TIP3   OH233826   4.931   4.879   0.439  0.0293 -0.4148 -0.0503
 4112TIP3    H133827   4.881   4.866   0.358 -0.3387 -0.0925  0.1189
 4112TIP3    H233828   4.969   4.967   0.429 -0.9560  0.1058  0.6085
 4113TIP3   OH233829   2.447   2.962  11.243 -0.3490 -0.3299 -0.0751
 4113TIP3    H133830   2.436   2.969  11.148 -3.1909 -1.2005  0.0958
 4113TIP3    H233831   2.492   2.878  11.255  1.8453  0.6940 -0.6598
 4114TIP3   OH233832   2.075   6.166  13.296  0.1404  0.2284 -0.4597
 4114TIP3    H133833   2.042   6.150  13.384  1.5515 -1.1549 -0.1557
 4114TIP3    H233834   2.043   6.092  13.244  2.1749 -0.8514 -0.2811
 4115TIP3   OH233835   4.082   2.070  16.090 -0.3901 -0.3418 -0.2331
 4115TIP3    H133836   4.095   1.981  16.058 -2.9542 -0.6227 -0.6398
 4115TIP3    H233837   4.063   2.121  16.012 -2.3756 -0.1574  0.3333
 4116TIP3   OH233838   3.252   5.564   2.914  0.4535 -0.6591 -0.7963
 4116TIP3    H133839   3.336   5.594   2.880  0.4580  0.5681  0.2211
 4116TIP3    H233840   3.229   5.490   2.858  1.9980 -0.7574 -1.3603
 4117TIP3   OH233841   4.460   1.543   5.038  0.4843  0.0569  0.2895
 4117TIP3    H133842   4.446   1.585   5.123  1.8727 -0.7506  0.9550
 4117TIP3    H233843   4.550   1.511   5.042  0.2291 -0.9099 -1.0900
 4118TIP3   OH233844   6.391   5.947   3.880  0.0971  0.1868  0.5849
 4118TIP3    H133845   6.328   5.899   3.827  0.9707  1.4743 -1.7689
 4118TIP3    H233846   6.434   5.881   3.933  0.4952 -1.5113 -1.7218
 4119TIP3   OH233847   5.564   5.292   2.056  0.1096  0.2344  0.0085
 4119TIP3    H133848   5.642   5.271   2.005 -1.5743 -1.4607 -2.0318
 4119TIP3    H233849   5.575   5.385   2.079  2.6950  0.0551 -0.1513
 4120TIP3   OH233850   1.588   3.814  12.419  0.0180  0.2085 -0.0770
 4120TIP3    H133851   1.616   3.876  12.351  1.8517  0.3115  0.7107
 4120TIP3    H233852   1.547   3.742  12.370  1.2487  0.3015 -1.3181
 4121TIP3   OH233853   0.494   1.217   6.419 -0.0689  0.0350 -0.4724
 4121TIP3    H133854   0.507   1.268   6.499 -0.8065  1.0878 -0.9845
 4121TIP3    H233855   0.580   1.183   6.397  0.5978  1.6358 -0.4634
 4122TIP3   OH233856   1.213   4.780  12.337  1.1532  0.1293 -0.0756
 4122TIP3    H133857   1.174   4.764  12.251  1.9299  0.4545 -0.4958
 4122TIP3    H233858   1.247   4.869  12.331  0.3953  0.5033  0.8927
 4123TIP3   OH233859   0.051   0.929  14.874 -0.3086  0.3941 -0.5817
 4123TIP3    H133860   0.145   0.912  14.882 -0.3365  0.1949 -0.6647
 4123TIP3    H233861   0.030   0.906  14.783 -0.8996 -1.8613  0.0692
 4124TIP3   OH233862   5.926   3.589   6.293 -0.0775  0.7257 -0.2034
 4124TIP3    H133863   5.962   3.650   6.358 -1.5783 -0.5165  1.9562
 4124TIP3    H233864   5.945   3.502   6.329 -1.9782 -0.0008 -0.8022
 4125TIP3   OH233865   0.260   3.880  15.918  0.2037 -0.2235 -0.4022
 4125TIP3    H133866   0.187   3.912  15.971  0.1396  0.9218 -1.1364
 4125TIP3    H233867   0.235   3.792  15.892  0.2904 -0.8664  1.5307
 4126TIP3   OH233868   4.532   3.217   0.595 -0.3615  0.1874 -0.7534
 4126TIP3    H133869   4.566   3.236   0.508 -0.4464  0.3727 -0.7476
 4126TIP3    H233870   4.445   3.257   0.596 -0.4181  0.0635 -0.6320
 4127TIP3   OH233871   0.301   3.634   3.014 -0.8089 -0.2967  0.2039
 4127TIP3    H133872   0.305   3.708   3.074 -0.4448 -0.3997  0.3078
 4127TIP3    H233873   0.211   3.601   3.022 -1.0342  0.2574  0.0036
 4128TIP3   OH233874   5.935   1.730  11.889 -0.2254 -0.1512 -0.0964
 4128TIP3    H133875   6.026   1.748  11.866 -0.0377 -0.7685  0.1216
 4128TIP3    H233876   5.887   1.809  11.864  0.3340  0.0911 -0.4212
 4129TIP3   OH233877   4.968   5.479   2.355 -0.2360 -0.3588  0.0493
 4129TIP3    H133878   4.964   5.414   2.425  0.3197  0.6526  1.0663
 4129TIP3    H233879   5.052   5.462   2.312  0.0763 -0.0906  0.5464
 4130TIP3   OH233880   5.725   1.756  15.466  0.2159  0.3961 -0.3378
 4130TIP3    H133881   5.722   1.717  15.553 -0.9870  0.3330 -0.3840
 4130TIP3    H233882   5.639   1.737  15.428  0.8430  0.0937 -1.6888
 4131TIP3   OH233883   5.848   4.406   5.561 -0.5197 -0.3700 -0.2141
 4131TIP3    H133884   5.890   4.423   5.477 -2.1334 -0.1593 -0.9984
 4131TIP3    H233885   5.839   4.492   5.602  0.6038 -0.5081  0.3777
 4132TIP3   OH233886   5.836   3.549   4.243  0.5082 -0.3686  0.2225
 4132TIP3    H133887   5.799   3.461   4.255  0.3206 -0.3869 -0.4442
 4132TIP3    H233888   5.772   3.594   4.187  0.9400 -0.0340 -0.0032
 4133TIP3   OH233889   2.746   4.019  15.567  0.2370 -0.1255  0.0036
 4133TIP3    H133890   2.689   3.949  15.535  0.3419  0.4860 -1.5981
 4133TIP3    H233891   2.761   4.075  15.491  2.4358  0.0984  0.5212
 4134TIP3   OH233892   6.437   5.518   2.405 -0.0778 -0.4154 -0.2919
 4134TIP3    H133893   6.406   5.579   2.472  2.9190 -0.2503  1.1017
 4134TIP3    H233894   6.507   5.566   2.360 -2.1422 -0.4185 -3.8704
 4135TIP3   OH233895   2.817   5.459   3.100  0.5009 -0.8146  0.5928
 4135TIP3    H133896   2.831   5.402   3.025 -1.3458 -0.9076  0.2895
 4135TIP3    H233897   2.814   5.547   3.064 -0.7839 -0.8923  0.4889
 4136TIP3   OH233898   6.106   0.992   5.068  0.6559  0.1256 -0.2487
 4136TIP3    H133899   6.142   1.008   4.981 -0.7525 -0.3210 -0.9313
 4136TIP3    H233900   6.168   1.035   5.127  1.9806 -0.1336 -1.4118
 4137TIP3   OH233901   5.906   6.611   2.381  0.5556 -0.3391 -0.7009
 4137TIP3    H133902   5.856   6.670   2.437 -0.0974 -1.3545 -0.1767
 4137TIP3    H233903   5.839   6.561   2.334  1.0975  0.2306 -2.1055
 4138TIP3   OH233904   4.149   4.070  11.959  0.1373  0.3192  0.0528
 4138TIP3    H133905   4.095   4.109  12.027 -2.5616 -1.0432 -1.1263
 4138TIP3    H233906   4.155   4.137  11.891 -2.5328 -0.3433 -0.9734
 4139TIP3   OH233907   1.065   4.642  13.530  0.1430 -0.0523  0.0657
 4139TIP3    H133908   1.102   4.560  13.563 -0.6309 -0.3767  0.1367
 4139TIP3    H233909   0.975   4.641  13.560  0.0764  0.7367 -0.1090
 4140TIP3   OH233910   6.187   3.667  14.637 -0.7126  0.3764  0.5292
 4140TIP3    H133911   6.249   3.650  14.707 -0.3369  1.3390  0.4509
 4140TIP3    H233912   6.222   3.745  14.593 -2.1442  1.1410  0.6941
 4141TIP3   OH233913   1.142   0.096   1.805 -0.1897 -0.2384  0.2860
 4141TIP3    H133914   1.113   0.034   1.738  1.0999  0.9168 -1.4318
 4141TIP3    H233915   1.236   0.105   1.790 -0.4558  2.7529 -0.0828
 4142TIP3   OH233916   3.634   6.208  12.457 -0.3511 -0.4373  0.4532
 4142TIP3    H133917   3.552   6.254  12.474 -0.4718 -0.6404  0.4205
 4142TIP3    H233918   3.667   6.185  12.544 -0.1872 -0.1059  0.4786
 4143TIP3   OH233919   6.531   4.034   1.639  0.1286 -0.5783 -0.2620
 4143TIP3    H133920   6.576   3.980   1.703 -0.4780 -0.7671  0.0168
 4143TIP3    H233921   6.457   3.980   1.609 -0.1598 -0.1234 -0.3908
 4144TIP3   OH233922   2.334   1.488   2.949  0.5090  0.0731 -0.6096
 4144TIP3    H133923   2.263   1.551   2.934  0.3765 -0.2135 -1.2146
 4144TIP3    H233924   2.406   1.541   2.985  0.4082  0.5779 -1.1406
 4145TIP3   OH233925   3.191   5.116  16.513  0.2996  0.1064  0.8393
 4145TIP3    H133926   3.103   5.097  16.545  0.1048  1.0244  0.8612
 4145TIP3    H233927   3.196   5.211  16.511  1.6720  0.0706  1.8466
 4146TIP3   OH233928   3.341   4.903   0.047  0.0505  0.0550  0.0314
 4146TIP3    H133929   3.356   4.969  -0.022 -0.6919 -1.1423 -1.3283
 4146TIP3    H233930   3.427   4.890   0.086  0.8774 -0.4991 -1.8605
 4147TIP3   OH233931   0.259   4.466   2.896  0.2522  0.3889  0.2691
 4147TIP3    H133932   0.177   4.504   2.927  0.3233  2.9745 -2.3681
 4147TIP3    H233933   0.242   4.371   2.896 -2.3403  0.7693  0.8062
 4148TIP3   OH233934   6.132   4.365   4.075 -0.0923 -0.2040  0.0889
 4148TIP3    H133935   6.193   4.410   4.016  0.9602 -0.2598  1.1112
 4148TIP3    H233936   6.089   4.300   4.019 -0.3994  0.8939 -1.0143
 4149TIP3   OH233937   1.895   3.499   3.367  0.3505 -0.6907 -0.3967
 4149TIP3    H133938   1.953   3.506   3.291 -0.9601 -1.1074 -1.4776
 4149TIP3    H233939   1.808   3.488   3.329 -0.5084  0.3762  1.1790
 4150TIP3   OH233940   6.291   4.505  15.617  0.3479 -0.0305 -0.3860
 4150TIP3    H133941   6.221   4.528  15.556 -1.6126  0.0262  1.7318
 4150TIP3    H233942   6.351   4.580  15.615 -2.3463  2.3674  1.3666
 4151TIP3   OH233943   6.244   1.742  16.500  0.0977  0.3564  0.4340
 4151TIP3    H133944   6.268   1.675  16.565  0.2436  0.3370  0.3611
 4151TIP3    H233945   6.270   1.825  16.541 -0.1057  0.3699  0.5353
 4152TIP3   OH233946   0.229   1.118  14.274 -0.1616  0.0998  0.4965
 4152TIP3    H133947   0.256   1.085  14.188 -1.4861 -1.1341  0.5113
 4152TIP3    H233948   0.206   1.209  14.258  2.5288  0.8215  0.2143
 4153TIP3   OH233949   2.669   1.757  12.283  0.2340 -0.5472 -0.5462
 4153TIP3    H133950   2.759   1.772  12.252  0.7281 -2.1462  0.0517
 4153TIP3    H233951   2.615   1.767  12.205  0.9627  0.0677 -0.9862
 4154TIP3   OH233952   0.736   5.811   5.926  0.2556 -0.5685 -1.0862
 4154TIP3    H133953   0.759   5.828   6.017 -0.2496 -0.1551 -1.0347
 4154TIP3    H233954   0.768   5.722   5.910  1.7072 -0.0854 -0.9614
 4155TIP3   OH233955   4.919   4.379  15.599 -0.0351  0.2874  0.6455
 4155TIP3    H133956   4.858   4.368  15.672 -0.1476 -1.4908  0.3155
 4155TIP3    H233957   4.977   4.450  15.628 -0.9198  0.5509  1.8720
 4156TIP3   OH233958   5.641   5.121   2.566  0.0304 -0.0034  0.1230
 4156TIP3    H133959   5.611   5.201   2.610 -1.0374 -2.0169  3.3542
 4156TIP3    H233960   5.626   5.139   2.473  1.5267  4.1622  0.4704
 4157TIP3   OH233961   6.007   5.646  12.673 -0.0280 -0.1749 -0.3282
 4157TIP3    H133962   5.920   5.666  12.707 -0.3966 -0.6647 -0.9585
 4157TIP3    H233963   6.035   5.727  12.630 -1.2698 -0.7510 -2.3582
 4158TIP3   OH233964   5.711   6.779  10.417  0.7976 -0.7141 -0.5203
 4158TIP3    H133965   5.696   6.852  10.478  0.6091 -0.6923 -0.5938
 4158TIP3    H233966   5.677   6.703  10.463 -0.0225 -0.5844 -0.9051
 4159TIP3   OH233967   5.418   0.389   4.660  0.3588  0.6377  1.1921
 4159TIP3    H133968   5.427   0.423   4.571 -0.5741 -0.4638  0.6427
 4159TIP3    H233969   5.398   0.296   4.648 -1.2643  0.7713  2.4933
 4160TIP3   OH233970   5.377   6.342  16.885 -0.3453 -0.3182  0.3757
 4160TIP3    H133971   5.426   6.421  16.865  0.3070 -1.1978 -1.7380
 4160TIP3    H233972   5.444   6.276  16.906 -0.7233 -0.8985 -0.1810
 4161TIP3   OH233973   5.018   2.054   3.417 -0.0855  0.1224  0.1729
 4161TIP3    H133974   5.054   2.092   3.497  1.3520 -0.8159 -0.0056
 4161TIP3    H233975   5.087   2.064   3.351 -0.4473 -0.9678 -0.4010
 4162TIP3   OH233976   6.504   1.701   5.164  0.3624  0.3235  0.0557
 4162TIP3    H133977   6.459   1.779   5.133  0.8057 -0.2782 -2.2784
 4162TIP3    H233978   6.547   1.665   5.086  0.2832 -2.1715  1.0587
 4163TIP3   OH233979   4.810   0.070   0.453  0.2551  0.1352 -0.0991
 4163TIP3    H133980   4.856   0.086   0.371  0.1935  0.7213 -0.0216
 4163TIP3    H233981   4.879   0.062   0.518  0.3110 -0.4494 -0.2158
 4164TIP3   OH233982   4.492   1.711   2.688 -0.0451 -0.1900  0.7012
 4164TIP3    H133983   4.574   1.759   2.702 -0.5538  1.2303 -0.9653
 4164TIP3    H233984   4.507   1.661   2.607 -0.5220 -0.6702  0.9011
 4165TIP3   OH233985   3.383   2.022  11.724 -0.2247 -0.1200 -0.0233
 4165TIP3    H133986   3.460   2.076  11.744 -0.3813  0.1865 -0.2426
 4165TIP3    H233987   3.397   1.941  11.774 -1.3696  1.2233  2.6690
 4166TIP3   OH233988   2.077   1.057   5.517  0.2633  0.0373 -0.5420
 4166TIP3    H133989   2.011   1.102   5.569 -0.1402  0.5096 -1.4402
 4166TIP3    H233990   2.050   0.965   5.517  1.5884 -0.4428  2.0688
 4167TIP3   OH233991   6.506   1.863  11.432  0.5423 -0.0052 -0.0092
 4167TIP3    H133992   6.469   1.952  11.431  1.3271  0.3389  0.5528
 4167TIP3    H233993   6.600   1.877  11.438  0.6212 -0.8735  1.1006
 4168TIP3   OH233994   5.276   6.077  10.446  0.4504  0.6759 -0.5806
 4168TIP3    H133995   5.233   6.056  10.364  0.2625 -0.1082 -0.2929
 4168TIP3    H233996   5.346   6.012  10.453 -1.4368 -1.3445  1.3402
 4169TIP3   OH233997   0.100   1.855   3.534  0.3055  0.7139 -0.4014
 4169TIP3    H133998   0.013   1.869   3.497 -0.0477 -1.1180 -0.3589
 4169TIP3    H233999   0.109   1.759   3.538  2.0021  0.8759  0.3353
 4170TIP3   OH234000   3.914   2.225  11.366  0.2532 -0.0686 -0.1236
 4170TIP3    H134001   3.995   2.275  11.362  0.5742 -0.5952 -0.3137
 4170TIP3    H234002   3.909   2.195  11.457  0.3826 -0.2163 -0.1653
 4171TIP3   OH234003   3.833   4.558   3.127 -0.0140 -0.4348 -0.3520
 4171TIP3    H134004   3.803   4.593   3.043  1.2189  0.2945 -0.4996
 4171TIP3    H234005   3.921   4.526   3.110  0.3744 -0.0024  0.7411
 4172TIP3   OH234006   5.680   5.633   0.016  0.1654 -0.2820  0.1790
 4172TIP3    H134007   5.643   5.627   0.104  2.4836 -4.2993  1.1542
 4172TIP3    H234008   5.639   5.561  -0.032  0.7669  0.2844 -1.2354
 4173TIP3   OH234009   4.365   3.603  12.191  0.0726  0.1065 -0.0125
 4173TIP3    H134010   4.277   3.640  12.190 -0.2173 -0.2322  3.2788
 4173TIP3    H234011   4.351   3.509  12.206  0.9424  0.2388  1.9302
 4174TIP3   OH234012   6.361   2.254  12.728  0.1106 -0.1351 -0.3889
 4174TIP3    H134013   6.385   2.169  12.690 -0.3067  0.4396 -2.0226
 4174TIP3    H234014   6.388   2.318  12.662 -0.9171  0.9064  0.1731
 4175TIP3   OH234015   6.339   1.542   5.330 -0.1763 -0.1238 -0.9133
 4175TIP3    H134016   6.310   1.593   5.404 -0.4020 -2.1788  0.4988
 4175TIP3    H234017   6.409   1.594   5.290  1.6396  0.0183  2.1883
 4176TIP3   OH234018   5.625   1.177   4.415  0.0151  0.0594 -0.1330
 4176TIP3    H134019   5.549   1.189   4.359  0.0703  0.5492 -0.1040
 4176TIP3    H234020   5.691   1.236   4.379  0.9757 -1.5943 -1.2132
 4177TIP3   OH234021   0.004   2.823   4.070  0.1339  0.1595  0.0699
 4177TIP3    H134022  -0.083   2.861   4.076 -0.8515 -1.6018 -1.6485
 4177TIP3    H234023   0.017   2.777   4.153 -0.5652  0.4232  0.3294
 4178TIP3   OH234024   1.068   1.158  13.917 -0.1460 -0.5468  0.4907
 4178TIP3    H134025   1.012   1.171  13.994  1.0062 -0.0834  1.2772
 4178TIP3    H234026   1.007   1.144  13.845 -1.2556 -0.7948  1.4524
 4179TIP3   OH234027   2.127   4.166  16.754  0.1727 -0.1684 -0.2911
 4179TIP3    H134028   2.157   4.075  16.759  0.1840 -0.2199 -1.1436
 4179TIP3    H234029   2.079   4.171  16.672  0.1144  0.5881 -0.2201
 4180TIP3   OH234030   5.863   2.843  16.077  0.1312 -0.9845  0.0864
 4180TIP3    H134031   5.885   2.856  15.984 -1.1998 -3.2829 -0.6551
 4180TIP3    H234032   5.946   2.852  16.123  0.7460  0.7273 -1.2386
 4181TIP3   OH234033   2.301   2.658  12.281  0.6017  0.8298 -0.1057
 4181TIP3    H134034   2.241   2.627  12.213  0.4860  1.2293 -0.1884
 4181TIP3    H234035   2.294   2.592  12.351  1.1604  0.1159 -0.7127
 4182TIP3   OH234036   3.002   6.690  11.441  0.0476 -0.5911  0.0582
 4182TIP3    H134037   3.073   6.716  11.499 -0.5368 -2.7864  1.9011
 4182TIP3    H234038   2.997   6.595  11.451 -1.6294 -0.7709 -1.8513
 4183TIP3   OH234039   5.867   4.331  13.278  0.2397 -0.0271  0.1922
 4183TIP3    H134040   5.917   4.270  13.333 -0.6334 -0.3865  0.5977
 4183TIP3    H234041   5.817   4.276  13.219  1.2672  0.3660 -1.0789
 4184TIP3   OH234042   0.810   0.220   3.247  0.1777  0.1402 -0.3141
 4184TIP3    H134043   0.770   0.168   3.316 -0.7538  1.3380  0.0935
 4184TIP3    H234044   0.738   0.275   3.214  1.1571  1.3305 -0.5363
 4185TIP3   OH234045   3.176   3.178   5.811  0.2703  0.1550  0.2581
 4185TIP3    H134046   3.151   3.266   5.837 -0.7660 -0.5593  1.8916
 4185TIP3    H234047   3.230   3.146   5.883  0.3122 -0.6701 -0.1178
 4186TIP3   OH234048   2.574   1.446   5.247  0.4688 -0.3681 -0.2235
 4186TIP3    H134049   2.567   1.405   5.333 -1.3462  2.4126  1.1207
 4186TIP3    H234050   2.668   1.447   5.228  0.7253 -3.2060  0.5351
 4187TIP3   OH234051   3.385   4.333   1.980  0.3821  0.1389 -0.4471
 4187TIP3    H134052   3.334   4.318   1.901  1.2634 -0.3928 -0.9376
 4187TIP3    H234053   3.320   4.353   2.048 -0.4847 -0.7045 -0.9997
 4188TIP3   OH234054   6.471   5.280   2.512  0.0019  0.1622  0.0414
 4188TIP3    H134055   6.448   5.359   2.463  1.8518  1.0548  0.5015
 4188TIP3    H234056   6.505   5.220   2.446  1.1185  0.8019  0.0144
 4189TIP3   OH234057   4.191   6.471  15.732 -0.2673 -0.1492  0.8307
 4189TIP3    H134058   4.126   6.488  15.799 -0.8554  0.7240  0.0605
 4189TIP3    H234059   4.169   6.531  15.660  1.3298  0.1260  0.5211
 4190TIP3   OH234060   3.390   3.309  11.661  0.5626 -0.8732 -1.0989
 4190TIP3    H134061   3.327   3.239  11.680  0.6022 -0.4504  0.7552
 4190TIP3    H234062   3.353   3.386  11.703  2.3794 -0.6551  0.1865
 4191TIP3   OH234063   5.556   1.198   1.067 -0.4554 -0.0365 -0.2165
 4191TIP3    H134064   5.557   1.241   1.153 -1.3262  0.4851 -0.4542
 4191TIP3    H234065   5.467   1.212   1.034  0.0054  0.2241 -1.4190
 4192TIP3   OH234066   6.582   3.045   0.628 -0.3148  0.3791  0.1523
 4192TIP3    H134067   6.665   3.002   0.607 -0.5158 -1.0487  2.0047
 4192TIP3    H234068   6.606   3.118   0.685 -0.2741  0.5218 -0.0453
 4193TIP3   OH234069   0.039   0.309  13.163  0.0953  0.3271  0.3069
 4193TIP3    H134070   0.061   0.368  13.090 -0.8490 -1.1195 -1.2338
 4193TIP3    H234071   0.120   0.302  13.213  1.3475 -0.0412 -1.6602
 4194TIP3   OH234072   3.887   0.239   4.115 -0.3218  0.4758  0.2649
 4194TIP3    H134073   3.845   0.240   4.029 -0.5454 -0.3950  0.3579
 4194TIP3    H234074   3.931   0.324   4.121 -1.3966  1.0826 -0.1565
 4195TIP3   OH234075   0.751   2.528   1.363  0.6011  0.0958 -0.3199
 4195TIP3    H134076   0.810   2.466   1.405 -1.0991 -0.4915  1.3096
 4195TIP3    H234077   0.705   2.476   1.297  0.4008  0.0432 -0.1384
 4196TIP3   OH234078   2.135   4.893  10.874  0.1250 -0.1502 -0.4720
 4196TIP3    H134079   2.166   4.888  10.784 -0.7844 -4.0266 -0.7543
 4196TIP3    H234080   2.194   4.836  10.923 -1.0114 -0.2464  0.8412
 4197TIP3   OH234081   0.485   4.761   5.380  0.2006  0.6301  0.0993
 4197TIP3    H134082   0.548   4.803   5.322  0.5442 -0.2545 -0.1906
 4197TIP3    H234083   0.413   4.735   5.324 -0.3037  1.3926  0.3855
 4198TIP3   OH234084   6.179   6.124   3.771 -0.1773  0.3298  0.1792
 4198TIP3    H134085   6.261   6.168   3.793  0.0437  0.5692 -1.0512
 4198TIP3    H234086   6.172   6.052   3.835  0.5388  0.8340  0.8404
 4199TIP3   OH234087   5.800   4.981  14.775  0.6282  0.0941  0.5664
 4199TIP3    H134088   5.836   5.063  14.741  0.2651 -0.5072 -1.3661
 4199TIP3    H234089   5.837   4.974  14.863  2.1012  1.4272  0.1075
 4200TIP3   OH234090   6.078   1.964   0.213 -0.0991 -1.0402 -0.3289
 4200TIP3    H134091   6.085   1.953   0.307  2.5213 -0.1222 -0.3244
 4200TIP3    H234092   6.062   1.876   0.179 -1.5171 -1.3108  0.9709
 4201TIP3   OH234093   3.788   0.357   6.427  0.3958 -0.2841  0.3450
 4201TIP3    H134094   3.797   0.336   6.334  0.4832  0.9164  0.0638
 4201TIP3    H234095   3.711   0.414   6.431 -0.9393 -2.0529  1.3194
 4202TIP3   OH234096   4.372   4.143   1.626 -0.7227  0.5789 -0.4690
 4202TIP3    H134097   4.392   4.161   1.718  1.6905  0.6308 -0.9531
 4202TIP3    H234098   4.314   4.067   1.630  0.9402 -0.7223  1.0895
 4203TIP3   OH234099   3.509   5.024   4.055 -0.0610 -0.0048  0.1687
 4203TIP3    H134100   3.576   5.037   3.988  0.0523  2.5714  0.6733
 4203TIP3    H234101   3.511   4.930   4.074  2.8036 -0.1560 -0.4344
 4204TIP3   OH234102   4.039   4.241   1.693  0.3158  0.0881  0.2125
 4204TIP3    H134103   4.026   4.311   1.757 -1.5425 -0.7780  0.8763
 4204TIP3    H234104   4.073   4.167   1.744  1.4713  0.2292 -0.3296
 4205TIP3   OH234105   5.530   3.718   5.904  0.2498 -0.0903  0.4620
 4205TIP3    H134106   5.451   3.757   5.941  0.3264 -0.6083  1.1796
 4205TIP3    H234107   5.533   3.630   5.940  3.1456  1.0416  3.5412
 4206TIP3   OH234108   5.618   4.104   4.739 -0.0331  0.4051  0.6015
 4206TIP3    H134109   5.673   4.145   4.805 -0.0435 -0.1421  0.9585
 4206TIP3    H234110   5.595   4.019   4.777  1.4080 -0.6745 -0.8325
 4207TIP3   OH234111   1.949   2.634   5.963  0.1802 -0.5294  0.4365
 4207TIP3    H134112   1.865   2.614   6.003  0.2851 -3.2089 -0.4929
 4207TIP3    H234113   1.929   2.699   5.895 -1.0752 -0.8849  0.4505
 4208TIP3   OH234114   3.772   4.284   5.402 -0.2742  0.3756 -0.0096
 4208TIP3    H134115   3.839   4.340   5.362  0.6383 -0.7368 -0.0586
 4208TIP3    H234116   3.754   4.218   5.337  0.8191 -1.1274  1.1360
 4209TIP3   OH234117   3.876   4.356   4.178  0.2507  0.4251 -0.1984
 4209TIP3    H134118   3.821   4.415   4.126  1.2919  1.9803  0.3940
 4209TIP3    H234119   3.859   4.380   4.269  0.0031 -0.8580  0.1204
 4210TIP3   OH234120   3.759   0.172  12.057 -0.4924  0.0153  0.1057
 4210TIP3    H134121   3.729   0.262  12.049  0.0517  0.1160 -1.1014
 4210TIP3    H234122   3.848   0.179  12.092 -0.8765 -0.1348  1.1486
 4211TIP3   OH234123   2.743   0.476   5.711  0.1504 -0.1001  0.1930
 4211TIP3    H134124   2.793   0.496   5.632 -0.2724  0.2237  0.0089
 4211TIP3    H234125   2.729   0.381   5.707  1.1141 -0.2709  0.4642
 4212TIP3   OH234126   1.048   3.988   3.769  0.2035  0.2911  0.0686
 4212TIP3    H134127   0.986   4.003   3.697 -2.3996 -1.5533  1.7160
 4212TIP3    H234128   1.109   3.923   3.736 -1.2610 -0.9078 -0.3888
 4213TIP3   OH234129   4.903   4.882  14.911  0.8899  0.3365 -0.9147
 4213TIP3    H134130   4.907   4.859  14.818  0.2363  0.7630 -1.0550
 4213TIP3    H234131   4.929   4.974  14.913  0.2149  0.5244 -0.7599
 4214TIP3   OH234132   2.832   4.476  13.063 -0.4665  0.4158 -0.3095
 4214TIP3    H134133   2.746   4.518  13.057 -2.5066 -3.3229 -0.1944
 4214TIP3    H234134   2.841   4.453  13.155  1.7064  2.5305  0.0872
 4215TIP3   OH234135   6.783   5.147  15.293 -0.2666  0.4349  0.1424
 4215TIP3    H134136   6.815   5.237  15.295  1.9357 -0.2565 -0.8691
 4215TIP3    H234137   6.776   5.125  15.200  0.9390 -0.9650  0.3491
 4216TIP3   OH234138   5.396   1.962   4.198 -0.9459 -0.0722  0.2811
 4216TIP3    H134139   5.487   1.936   4.184 -0.7229 -0.0063  1.5015
 4216TIP3    H234140   5.387   2.045   4.150 -0.6890 -0.6245 -0.7470
 4217TIP3   OH234141   4.058   5.586   5.038 -0.1117 -0.0536  0.4629
 4217TIP3    H134142   4.089   5.663   5.086 -0.5405 -0.0664  0.7762
 4217TIP3    H234143   3.979   5.559   5.086 -1.2467  0.6348 -0.9436
 4218TIP3   OH234144   1.811   1.255  11.761 -0.0909 -0.9244 -0.1591
 4218TIP3    H134145   1.901   1.286  11.776 -0.2407 -0.0490 -0.9674
 4218TIP3    H234146   1.757   1.312  11.816 -0.2844 -0.3341 -0.9405
 4219TIP3   OH234147   1.228   0.686   2.053  0.1414 -0.0343  0.3204
 4219TIP3    H134148   1.167   0.688   2.127 -1.0156  0.0547 -0.5967
 4219TIP3    H234149   1.277   0.768   2.061  0.9061 -0.5800  1.6588
 4220TIP3   OH234150   1.156   6.498  14.728 -0.2200  0.6087 -0.4951
 4220TIP3    H134151   1.134   6.586  14.699  1.1155  1.2868  0.4246
 4220TIP3    H234152   1.251   6.501  14.745 -0.1997 -0.9142 -0.1772
 4221TIP3   OH234153   6.467   4.300   2.743 -0.1524 -0.2500 -0.1611
 4221TIP3    H134154   6.511   4.328   2.663 -1.5891  0.3787 -0.7581
 4221TIP3    H234155   6.429   4.380   2.779  0.3645 -0.5447  1.0978
 4222TIP3   OH234156   1.724   5.487   5.259 -0.1469 -0.3334 -0.1504
 4222TIP3    H134157   1.798   5.428   5.277  1.2999  1.4834  0.1398
 4222TIP3    H234158   1.727   5.552   5.329 -3.1688 -1.1813  0.8887
 4223TIP3   OH234159   1.811   3.804   3.272 -0.0449  0.2349  0.3687
 4223TIP3    H134160   1.840   3.828   3.184 -0.8620 -0.9926 -0.2590
 4223TIP3    H234161   1.774   3.716   3.263  2.9562 -1.4723  2.5735
 4224TIP3   OH234162   4.822   4.787  10.547  0.1332  0.2431  0.6405
 4224TIP3    H134163   4.804   4.735  10.469 -0.5896  0.0395  0.9425
 4224TIP3    H234164   4.854   4.871  10.513 -0.5614  0.3008  0.1112
 4225TIP3   OH234165   5.556   4.952   2.817  0.2758 -0.3063 -0.4162
 4225TIP3    H134166   5.466   4.926   2.800  0.1546 -0.4037  0.3181
 4225TIP3    H234167   5.570   5.029   2.762 -0.6301  0.3979  0.3040
 4226TIP3   OH234168   6.174   3.103   1.435  0.7445  0.0161  0.1929
 4226TIP3    H134169   6.128   3.117   1.352  1.2084  2.7980  0.3341
 4226TIP3    H234170   6.251   3.051   1.411 -0.9106 -2.2894 -0.4817
 4227TIP3   OH234171   3.026   5.740   1.409  0.1018 -0.4468  0.4567
 4227TIP3    H134172   3.055   5.673   1.471  1.9007 -0.1832 -0.0479
 4227TIP3    H234173   3.034   5.697   1.323 -1.0119 -0.3478  0.2907
 4228TIP3   OH234174   5.756   1.980  11.163  0.1616 -0.1262 -0.0680
 4228TIP3    H134175   5.734   2.001  11.072  1.0369 -1.7467 -0.6914
 4228TIP3    H234176   5.835   1.927  11.158 -0.9970 -2.1958  1.4384
 4229TIP3   OH234177   3.321   6.648   1.706 -0.0466 -0.0946  0.6898
 4229TIP3    H134178   3.396   6.692   1.667  0.9560 -0.7386  1.8378
 4229TIP3    H234179   3.358   6.595   1.777 -1.3209 -1.9970  0.0173
 4230TIP3   OH234180   1.814   1.473  14.112  0.3215 -0.2895  0.3972
 4230TIP3    H134181   1.771   1.500  14.193 -0.5285  1.7236 -0.6457
 4230TIP3    H234182   1.748   1.485  14.045  1.2797 -1.0770 -0.7169
 4231TIP3   OH234183   3.241   5.571  12.931 -0.2295 -0.5076 -0.1943
 4231TIP3    H134184   3.197   5.487  12.934  0.1870 -0.7303 -0.2459
 4231TIP3    H234185   3.246   5.593  12.837  0.8679 -1.0789 -0.2920
 4232TIP3   OH234186   2.840   1.362  14.545  0.2642  0.0762 -0.1519
 4232TIP3    H134187   2.828   1.414  14.465 -1.2882 -1.5258 -1.0267
 4232TIP3    H234188   2.878   1.280  14.513  2.1484  0.3941  1.1318
 4233TIP3   OH234189   5.002   5.799   1.707  0.2724  0.3345  0.0854
 4233TIP3    H134190   4.996   5.895   1.704  0.7574  0.3679  0.1831
 4233TIP3    H234191   5.086   5.778   1.666 -0.3244 -0.1197 -0.9306
 4234TIP3   OH234192   6.474   6.807  11.927 -0.3523  0.1599 -0.3157
 4234TIP3    H134193   6.436   6.732  11.972 -1.3807  1.5844  1.2968
 4234TIP3    H234194   6.566   6.784  11.915 -0.4812 -1.0515  0.8319
 4235TIP3   OH234195   6.316   2.549  14.588  0.7152  0.0814 -0.2633
 4235TIP3    H134196   6.256   2.517  14.656  0.1640  0.5184 -0.5299
 4235TIP3    H234197   6.366   2.472  14.562 -0.4335 -0.5348 -0.7379
 4236TIP3   OH234198   2.069   3.629   6.360  0.3244  0.8880  0.0052
 4236TIP3    H134199   1.985   3.671   6.342 -0.0652 -0.0746 -0.4909
 4236TIP3    H234200   2.133   3.700   6.356 -0.0594  1.2077 -2.6733
 4237TIP3   OH234201   1.965   5.342  16.572 -0.4347 -0.3426 -0.3249
 4237TIP3    H134202   1.946   5.436  16.571 -0.2869 -0.3095 -0.1349
 4237TIP3    H234203   1.930   5.309  16.489  0.6429  0.0960 -0.9756
 4238TIP3   OH234204   2.068   5.967  15.685 -0.0101  0.1175 -0.2068
 4238TIP3    H134205   2.001   6.013  15.734 -0.1245 -0.1202 -0.1411
 4238TIP3    H234206   2.025   5.939  15.605 -0.7138 -2.2010  0.8915
 4239TIP3   OH234207   4.257   5.798   2.808  0.6362  0.0177 -0.6675
 4239TIP3    H134208   4.270   5.892   2.823  0.6163  0.0082 -0.5862
 4239TIP3    H234209   4.205   5.794   2.728  0.7712  0.0703 -0.7584
 4240TIP3   OH234210   5.948   4.952  12.874  0.1941  0.1844  0.3267
 4240TIP3    H134211   5.980   4.885  12.935 -0.8375 -1.0225 -0.4011
 4240TIP3    H234212   6.023   4.969  12.816  0.8986  0.6966  1.3529
 4241TIP3   OH234213   5.633   5.472  11.081  0.1156 -0.0557 -0.5250
 4241TIP3    H134214   5.660   5.545  11.026  2.1103 -0.5069 -0.2330
 4241TIP3    H234215   5.595   5.512  11.159  1.8620  0.7440 -0.0314
 4242TIP3   OH234216   0.315   3.910   2.631 -0.0435  0.7913  0.2240
 4242TIP3    H134217   0.365   3.968   2.688 -0.4224  0.2688  1.1206
 4242TIP3    H234218   0.351   3.823   2.649 -0.4825  0.5662  0.0163
 4243TIP3   OH234219   0.346   4.716   6.066  0.2365  0.3013 -0.1964
 4243TIP3    H134220   0.373   4.678   6.150 -2.4143 -1.9768 -0.2123
 4243TIP3    H234221   0.416   4.778   6.044  0.6503  1.6468  4.0352
 4244TIP3   OH234222   3.652   3.857  15.613 -0.3144  0.3243 -0.4881
 4244TIP3    H134223   3.583   3.922  15.599  0.4240  1.4381  0.7357
 4244TIP3    H234224   3.614   3.792  15.671 -0.5871  0.4976 -0.4736
 4245TIP3   OH234225   4.725   0.922   1.659  1.0448  0.7188 -0.1322
 4245TIP3    H134226   4.670   0.991   1.694  2.0496  0.8480  1.2763
 4245TIP3    H234227   4.783   0.966   1.596 -1.2087  0.3748 -2.6466
 4246TIP3   OH234228   0.326   4.373   1.809 -0.1713 -0.1882 -0.4175
 4246TIP3    H134229   0.304   4.318   1.884 -0.0968 -0.6676 -0.7409
 4246TIP3    H234230   0.269   4.341   1.739  1.6107 -1.5638 -1.3235
 4247TIP3   OH234231   2.423   0.782  14.347  0.0497  0.5236 -0.2837
 4247TIP3    H134232   2.464   0.852  14.296  0.1863  0.6268 -0.0359
 4247TIP3    H234233   2.447   0.702  14.302 -0.8670  0.6863 -1.1005
 4248TIP3   OH234234   5.569   4.689   3.839  0.5262 -0.7851  0.1816
 4248TIP3    H134235   5.579   4.618   3.775  0.4693 -1.0154  0.4261
 4248TIP3    H234236   5.478   4.682   3.867  0.2844 -0.0893 -0.4060
 4249TIP3   OH234237   1.507   0.764   4.816 -0.5158 -0.2328  0.2677
 4249TIP3    H134238   1.525   0.810   4.734 -0.2143 -1.0144 -0.1128
 4249TIP3    H234239   1.412   0.765   4.823 -0.5299  0.0928  0.0587
 4250TIP3   OH234240   3.248   6.565   5.132 -0.6830  0.3588  0.5000
 4250TIP3    H134241   3.220   6.593   5.219 -1.7501  0.8116  0.0373
 4250TIP3    H234242   3.237   6.470   5.132 -3.2200  0.5854  0.0516
 4251TIP3   OH234243   3.300   4.761   3.473 -0.1758 -1.0417  0.2334
 4251TIP3    H134244   3.345   4.836   3.435 -0.0884 -0.2245  1.8569
 4251TIP3    H234245   3.213   4.762   3.433  0.5177 -1.3740 -1.3433
 4252TIP3   OH234246   2.446   5.767   3.965  0.1920  0.2756 -0.2820
 4252TIP3    H134247   2.370   5.710   3.954  0.7883 -0.0830 -3.7324
 4252TIP3    H234248   2.507   5.716   4.019 -0.4162 -1.1770 -0.9279
 4253TIP3   OH234249   5.229   5.875   3.111  0.2299 -0.1063  0.4954
 4253TIP3    H134250   5.185   5.898   3.029 -1.2690 -0.4542  1.1608
 4253TIP3    H234251   5.215   5.781   3.121  1.3668 -0.2740  0.6132
 4254TIP3   OH234252   4.368   1.283  16.095  0.5574 -0.2187 -0.2903
 4254TIP3    H134253   4.350   1.231  16.174  2.4962 -3.4580 -1.7862
 4254TIP3    H234254   4.340   1.228  16.023 -0.2224  2.2365 -1.9999
 4255TIP3   OH234255   2.218   5.129  12.389  0.2825  0.7582  0.2636
 4255TIP3    H134256   2.142   5.167  12.346  0.6639  0.3897 -0.7687
 4255TIP3    H234257   2.228   5.179  12.471 -1.2547  0.5818  0.5767
 4256TIP3   OH234258   0.881   3.724   3.890  0.3410  0.1888 -0.2490
 4256TIP3    H134259   0.893   3.719   3.795  1.6152  2.9324 -0.3497
 4256TIP3    H234260   0.967   3.702   3.926 -0.3582 -1.7033  0.3779
 4257TIP3   OH234261   1.568   5.629  17.160 -0.0064 -0.5876  0.4244
 4257TIP3    H134262   1.473   5.626  17.153  0.1119 -1.1867 -1.3657
 4257TIP3    H234263   1.589   5.561  17.225 -0.7385 -1.0940  0.1441
 4258TIP3   OH234264   2.635   5.191   4.216 -0.1786  0.2774 -0.0921
 4258TIP3    H134265   2.672   5.215   4.131  1.8115  0.9410  0.8994
 4258TIP3    H234266   2.560   5.250   4.227  0.2637  1.0017 -0.8786
 4259TIP3   OH234267   1.698   3.003   3.279  0.4502  0.3325  0.1309
 4259TIP3    H134268   1.770   2.940   3.287  0.3298  0.1409 -0.2725
 4259TIP3    H234269   1.653   2.978   3.199 -0.1204  0.4022  0.4234
 4260TIP3   OH234270   0.274   5.075  14.830 -0.4484 -0.4093  0.1108
 4260TIP3    H134271   0.202   5.128  14.866 -1.6148 -0.1773 -2.3588
 4260TIP3    H234272   0.346   5.137  14.818  0.0138 -0.5141  2.0070
 4261TIP3   OH234273   6.608   5.816  12.337  0.0165  0.0026  0.3763
 4261TIP3    H134274   6.557   5.880  12.288  1.2537  0.9957  0.3325
 4261TIP3    H234275   6.592   5.733  12.293  1.1544  0.8707 -1.8020
 4262TIP3   OH234276   0.940   3.211  14.164  0.1602 -0.3694  0.3141
 4262TIP3    H134277   0.915   3.252  14.081 -0.8347 -0.6080  0.4780
 4262TIP3    H234278   0.862   3.162  14.191  0.6266 -0.6728  1.1592
 4263TIP3   OH234279   3.643   0.724  14.642 -0.7478 -0.1377 -0.1623
 4263TIP3    H134280   3.729   0.692  14.614 -1.2315 -1.1599 -0.5130
 4263TIP3    H234281   3.653   0.737  14.737 -1.2841 -4.0597  0.5697
 4264TIP3   OH234282   0.175   2.937  15.433  0.1606 -0.4303 -0.0960
 4264TIP3    H134283   0.157   2.843  15.434  0.0147 -0.3999  0.1142
 4264TIP3    H234284   0.271   2.943  15.428  0.1151 -0.5889 -1.4872
 4265TIP3   OH234285   6.699   2.855   0.265 -0.2384 -0.2685  0.1326
 4265TIP3    H134286   6.618   2.907   0.261  0.7701  1.5100  1.2697
 4265TIP3    H234287   6.693   2.811   0.350 -0.1172 -0.2838  0.1325
 4266TIP3   OH234288   5.358   5.603  12.007  0.1271 -0.7839  0.7398
 4266TIP3    H134289   5.383   5.522  11.963  0.3055 -0.6918  0.6714
 4266TIP3    H234290   5.305   5.574  12.081 -0.3707 -0.9310  0.3347
 4267TIP3   OH234291   0.452   2.779   2.768  0.3339  0.3300  0.5848
 4267TIP3    H134292   0.534   2.733   2.750 -0.7427 -1.0606 -1.0914
 4267TIP3    H234293   0.452   2.852   2.706 -0.1665 -0.3140 -0.1903
 4268TIP3   OH234294   3.016   4.382   1.619 -0.0277 -0.4382  0.0552
 4268TIP3    H134295   2.998   4.454   1.679  1.2155 -0.3790  0.3829
 4268TIP3    H234296   2.950   4.391   1.551 -1.4946 -0.5224  1.3998
 4269TIP3   OH234297   6.362   6.575   5.824 -0.5266  0.0752 -0.0842
 4269TIP3    H134298   6.286   6.518   5.833 -1.0206  1.0153  2.4363
 4269TIP3    H234299   6.405   6.572   5.910  0.9379  1.4374 -0.7104
 4270TIP3   OH234300   0.605   4.401   0.131  0.0804 -0.0160 -0.2879
 4270TIP3    H134301   0.545   4.396   0.056  0.1114 -0.5802 -0.2797
 4270TIP3    H234302   0.668   4.469   0.107 -1.1060  1.2699  0.1113
 4271TIP3   OH234303   5.531   0.891   1.420 -0.5511  0.2339 -0.3083
 4271TIP3    H134304   5.495   0.972   1.384 -1.2169 -0.7659 -2.0041
 4271TIP3    H234305   5.481   0.876   1.500  1.8219  3.1982  2.0105
 4272TIP3   OH234306   3.762   5.880   2.652 -0.4785 -0.0977  0.4455
 4272TIP3    H134307   3.767   5.820   2.726 -0.1650  0.6908  1.0818
 4272TIP3    H234308   3.694   5.943   2.677 -0.2422  0.2796  0.1515
 4273TIP3   OH234309   1.996   5.024   5.032 -0.1596  0.3052 -0.5734
 4273TIP3    H134310   1.953   5.076   4.964 -1.0048  0.0846 -0.2171
 4273TIP3    H234311   1.985   5.076   5.112 -0.4431 -0.1141 -0.3355
 4274TIP3   OH234312   2.385   0.118   5.870  0.0773  1.2061 -0.5954
 4274TIP3    H134313   2.323   0.067   5.818  0.7474 -0.4877  0.1967
 4274TIP3    H234314   2.337   0.198   5.893 -1.6204  0.1946 -0.4546
 4275TIP3   OH234315   5.830   1.332   4.349  0.0381 -0.1442 -0.0270
 4275TIP3    H134316   5.797   1.418   4.321 -1.2637 -0.8261 -0.6634
 4275TIP3    H234317   5.836   1.339   4.444 -0.0030  0.6646 -0.0708
 4276TIP3   OH234318   4.408   4.107   4.942  0.1060  1.1272 -0.7050
 4276TIP3    H134319   4.357   4.179   4.977 -2.4429 -0.7158 -0.3359
 4276TIP3    H234320   4.359   4.077   4.866  2.2445  1.0714 -2.1526
 4277TIP3   OH234321   2.148   4.139  11.545  0.2171 -0.2171 -0.1022
 4277TIP3    H134322   2.165   4.122  11.638  4.3865 -2.5545 -1.0288
 4277TIP3    H234323   2.124   4.053  11.509 -1.0663  0.5943 -1.2873
 4278TIP3   OH234324   0.025   3.082   3.613 -0.2071 -0.1806  0.1123
 4278TIP3    H134325   0.114   3.085   3.578  0.7731 -1.1204  2.3065
 4278TIP3    H234326  -0.019   3.156   3.572  1.2811 -0.2574 -1.7710
 4279TIP3   OH234327   3.096   0.166  13.103 -0.6088  0.0217  0.2323
 4279TIP3    H134328   3.122   0.253  13.074 -1.3636 -0.4536 -2.0734
 4279TIP3    H234329   3.178   0.115  13.099 -0.3998  0.3434  0.3997
 4280TIP3   OH234330   1.587   1.098  15.103 -0.3549 -0.4009  0.1167
 4280TIP3    H134331   1.535   1.024  15.134 -1.3304  0.9782  2.0149
 4280TIP3    H234332   1.630   1.066  15.024 -2.2324 -2.3751 -0.2130
 4281TIP3   OH234333   5.933   2.725  13.414 -0.2284 -0.1627  0.6051
 4281TIP3    H134334   5.953   2.799  13.357 -0.4790 -0.2608  0.3850
 4281TIP3    H234335   5.985   2.740  13.493  1.4934 -0.9362 -0.3456
 4282TIP3   OH234336   3.830   0.853  11.784  0.3946 -0.3114 -0.5130
 4282TIP3    H134337   3.859   0.900  11.705 -2.3572  0.1149 -1.3943
 4282TIP3    H234338   3.867   0.903  11.856 -0.4731  1.8823 -1.4909
 4283TIP3   OH234339   5.638   3.816   0.645 -0.2804 -0.2756 -0.0873
 4283TIP3    H134340   5.689   3.822   0.565 -0.3725 -0.4707 -0.1607
 4283TIP3    H234341   5.614   3.723   0.652 -3.1038  0.2457 -1.6055
 4284TIP3   OH234342   2.134   2.361  16.322  0.0648 -0.0154 -0.1265
 4284TIP3    H134343   2.117   2.432  16.384 -4.2215 -0.7631 -0.1458
 4284TIP3    H234344   2.070   2.373  16.253 -0.1280 -3.2542 -0.6843
 4285TIP3   OH234345   5.954   3.145  14.250  0.4121  0.0566 -0.5716
 4285TIP3    H134346   5.900   3.073  14.281 -0.1943 -0.0392 -1.7841
 4285TIP3    H234347   5.906   3.224  14.277  1.1280  0.0368  0.8462
 4286TIP3   OH234348   6.092   1.763  12.905  0.1421  0.1437  0.2520
 4286TIP3    H134349   6.075   1.696  12.971  1.6097  0.1353  0.6702
 4286TIP3    H234350   6.006   1.799  12.884 -0.5831 -1.3283  0.5884
 4287TIP3   OH234351   6.050   6.229   0.365  0.4719  0.3004 -0.1720
 4287TIP3    H134352   6.108   6.300   0.391  0.5921  0.2334 -0.2565
 4287TIP3    H234353   6.080   6.204   0.278 -1.1980  1.8863 -1.2667
 4288TIP3   OH234354   0.735   4.866  16.443  0.7370 -0.2680 -0.3709
 4288TIP3    H134355   0.772   4.850  16.530 -0.6770 -1.7625  0.0170
 4288TIP3    H234356   0.645   4.894  16.460 -0.0720 -2.0918 -1.3128
 4289TIP3   OH234357   4.829   1.433  12.068  0.3679 -0.4055  0.4926
 4289TIP3    H134358   4.832   1.358  12.008  0.9433  1.7557 -2.4366
 4289TIP3    H234359   4.920   1.463  12.074 -0.1866  1.9995 -1.2663
 4290TIP3   OH234360   2.352   1.262  16.824 -0.0161 -0.6007 -1.0538
 4290TIP3    H134361   2.292   1.187  16.829  0.7504 -1.2460 -1.4271
 4290TIP3    H234362   2.396   1.263  16.909  0.7327 -1.2277 -1.4214
 4291TIP3   OH234363   6.040   4.681   1.746  0.1540 -0.0835  0.1004
 4291TIP3    H134364   5.994   4.633   1.677  0.3427  2.9838 -2.4124
 4291TIP3    H234365   6.129   4.690   1.713  0.7238 -0.0169  1.5987
 4292TIP3   OH234366   0.099   5.772   5.421  0.6378  0.3615 -0.0392
 4292TIP3    H134367   0.166   5.824   5.465 -0.0266  0.1858  1.2310
 4292TIP3    H234368   0.017   5.799   5.463  0.2485 -1.4859  0.4496
 4293TIP3   OH234369   0.685   3.613   0.979  0.0506 -0.0307 -0.1600
 4293TIP3    H134370   0.631   3.588   0.905 -1.1722  1.2145  0.2761
 4293TIP3    H234371   0.696   3.533   1.029  0.2123 -0.7052 -1.2472
 4294TIP3   OH234372   2.295   4.809  13.688  0.0795  0.3225 -0.1749
 4294TIP3    H134373   2.321   4.809  13.780 -0.8832  0.2992  0.1109
 4294TIP3    H234374   2.284   4.901  13.666  1.2401  0.3848 -0.5551
 4295TIP3   OH234375   3.101   1.266  14.259 -0.5299 -0.3729 -0.4677
 4295TIP3    H134376   3.062   1.248  14.345  2.1243 -0.2196  0.8724
 4295TIP3    H234377   3.148   1.186  14.237  1.3663  0.6396 -0.2620
 4296TIP3   OH234378   3.534   3.408  17.265  0.0305 -0.2111 -0.1338
 4296TIP3    H134379   3.487   3.488  17.240 -1.2008 -0.2370  1.8485
 4296TIP3    H234380   3.491   3.338  17.217 -0.6229  0.0289  0.0922
 4297TIP3   OH234381   6.021   1.948   1.858  0.2474 -0.2362 -0.5006
 4297TIP3    H134382   6.049   1.897   1.933 -0.0668  0.4262  0.0734
 4297TIP3    H234383   6.019   1.885   1.785 -0.6824 -1.1641  0.3001
 4298TIP3   OH234384   0.604   2.845  15.694 -0.5770 -0.5096  0.3123
 4298TIP3    H134385   0.551   2.766  15.682 -0.4740 -0.4170 -0.8006
 4298TIP3    H234386   0.568   2.886  15.773 -2.7233 -0.0467 -0.8172
 4299TIP3   OH234387   0.214   5.727  11.762 -0.3850  0.7736 -0.9866
 4299TIP3    H134388   0.234   5.735  11.856 -2.7344  0.6336 -0.4283
 4299TIP3    H234389   0.154   5.653  11.756  2.1238 -1.2720 -3.0751
 4300TIP3   OH234390   3.199   3.975  16.803 -0.1635 -0.1595  0.2963
 4300TIP3    H134391   3.245   3.939  16.727  0.5792  0.5233  0.4174
 4300TIP3    H234392   3.249   4.051  16.829 -1.7613  1.0463  0.0142
 4301TIP3   OH234393   1.249   3.071   3.497 -0.2759 -0.3005  0.3411
 4301TIP3    H134394   1.243   3.070   3.401 -0.5069  1.8435  0.2912
 4301TIP3    H234395   1.165   3.105   3.526 -0.5408 -1.7572  1.3881
 4302TIP3   OH234396   2.145   0.704  14.261 -0.3405  0.6392  0.7631
 4302TIP3    H134397   2.231   0.738  14.286  0.7214 -0.6447 -0.9023
 4302TIP3    H234398   2.099   0.780  14.225 -0.0231  1.3934  1.8894
 4303TIP3   OH234399   3.883   0.694   4.909 -0.1329 -0.4683  0.5407
 4303TIP3    H134400   3.823   0.734   4.971 -0.8869  0.7610 -0.9364
 4303TIP3    H234401   3.862   0.734   4.825  0.8829 -2.0492 -0.5264
 4304TIP3   OH234402   5.390   2.435  16.839  0.3492  0.1840  0.0898
 4304TIP3    H134403   5.472   2.417  16.793 -1.2309 -0.1369 -2.8634
 4304TIP3    H234404   5.328   2.371  16.804 -1.5370  1.3561  1.0990
 4305TIP3   OH234405   1.091   5.049   2.394 -0.0397  0.3496 -0.3034
 4305TIP3    H134406   1.126   4.983   2.454 -0.7499  1.2138  1.1470
 4305TIP3    H234407   1.011   5.009   2.359 -1.2333  0.8860  1.6397
 4306TIP3   OH234408   5.194   4.500   5.646 -0.3889  0.1087 -0.4262
 4306TIP3    H134409   5.099   4.489   5.649 -0.3578 -0.1001 -0.1389
 4306TIP3    H234410   5.227   4.413   5.625 -0.2213  0.0140  0.2257
 4307TIP3   OH234411   1.754   1.521  16.662 -0.1719  0.4344 -0.1432
 4307TIP3    H134412   1.740   1.597  16.606 -0.0760 -0.1270 -0.9525
 4307TIP3    H234413   1.749   1.446  16.603 -0.8546 -0.2406  0.7320
 4308TIP3   OH234414   2.986   6.013   1.852  0.4252  0.5391 -0.3203
 4308TIP3    H134415   2.954   6.051   1.770 -0.1274  0.7174 -0.0299
 4308TIP3    H234416   3.031   5.932   1.826 -1.0106 -0.1723 -0.6769
 4309TIP3   OH234417   2.571   1.852   2.472  0.2398  0.1750  0.0333
 4309TIP3    H134418   2.658   1.864   2.435 -0.0435  2.9748  0.0924
 4309TIP3    H234419   2.519   1.923   2.435 -1.3754  0.0425  1.9098
 4310TIP3   OH234420   6.644   4.771   1.169 -0.3595  0.0033  0.8538
 4310TIP3    H134421   6.597   4.815   1.240  3.0512  0.9522  2.8032
 4310TIP3    H234422   6.641   4.833   1.096  0.5549  1.5512  2.0517
 4311TIP3   OH234423   2.554   1.071  12.075  0.4643  0.2966  0.3084
 4311TIP3    H134424   2.602   1.152  12.091 -1.0868  1.2671  0.2897
 4311TIP3    H234425   2.538   1.070  11.981  0.6382 -0.1364  0.2796
 4312TIP3   OH234426   3.912   3.048  16.881  0.0398  0.2336 -0.1682
 4312TIP3    H134427   3.838   3.107  16.892 -0.8394 -0.9187  0.2607
 4312TIP3    H234428   3.953   3.045  16.967 -0.1018 -0.0227 -0.1104
 4313TIP3   OH234429   1.352   5.008  14.732 -0.5383  0.6334  0.1347
 4313TIP3    H134430   1.372   5.092  14.692  1.1884 -0.0286 -0.4923
 4313TIP3    H234431   1.337   4.949  14.658 -1.7458  0.3754  0.5623
 4314TIP3   OH234432   5.555   1.094   5.728 -0.3096  0.0018  0.5377
 4314TIP3    H134433   5.494   1.105   5.800 -0.5060  1.4469  0.1737
 4314TIP3    H234434   5.632   1.146   5.753  0.3225 -0.8794  0.4746
 4315TIP3   OH234435   4.860   5.880   4.122  0.5103 -0.3346 -0.2207
 4315TIP3    H134436   4.912   5.933   4.183  1.6549 -0.8901 -0.6841
 4315TIP3    H234437   4.807   5.823   4.179  1.0859 -0.4015  0.2585
 4316TIP3   OH234438   0.638   4.399   4.737 -0.1457 -0.0443 -0.1608
 4316TIP3    H134439   0.573   4.329   4.745 -0.4581  0.3270  0.5839
 4316TIP3    H234440   0.683   4.400   4.822  1.2517 -0.6856 -0.8480
 4317TIP3   OH234441   6.045   2.437   1.882 -0.6179  0.3550  0.4059
 4317TIP3    H134442   6.043   2.465   1.790 -0.7246 -1.2136 -0.0986
 4317TIP3    H234443   5.963   2.390   1.895 -0.6570  0.6652  1.3430
 4318TIP3   OH234444   1.259   4.325  14.186 -0.3986  0.2186 -0.4264
 4318TIP3    H134445   1.181   4.354  14.140 -0.6133  0.3697  0.0193
 4318TIP3    H234446   1.293   4.252  14.134 -1.1514 -0.2113 -0.3373
 4319TIP3   OH234447   4.681   1.569   6.585 -0.0823 -0.0078 -0.2800
 4319TIP3    H134448   4.614   1.590   6.520 -1.1609  0.9533  1.1096
 4319TIP3    H234449   4.720   1.653   6.609 -0.9092 -0.1102  1.5801
 4320TIP3   OH234450   4.199   0.222   3.941 -0.3865  0.5676  0.0103
 4320TIP3    H134451   4.126   0.275   3.909 -0.9614 -0.3386 -0.2424
 4320TIP3    H234452   4.236   0.272   4.013 -0.2016  1.8233 -0.9117
 4321TIP3   OH234453   3.495   3.185   5.541  0.8658 -0.2141  0.6812
 4321TIP3    H134454   3.402   3.197   5.559  0.8352 -0.8479  0.9748
 4321TIP3    H234455   3.501   3.096   5.505  1.0383  0.6590 -1.6314
 4322TIP3   OH234456   0.077   6.300   4.652  0.2663  0.1929  0.1651
 4322TIP3    H134457   0.071   6.235   4.582 -0.7580  0.2243  0.2145
 4322TIP3    H234458   0.005   6.279   4.711  1.5801 -0.3307  1.6642
 4323TIP3   OH234459   0.043   3.300  17.301  0.3791  0.0916  0.4785
 4323TIP3    H134460   0.035   3.307  17.396  0.0217 -2.5673  0.7184
 4323TIP3    H234461   0.013   3.385  17.268 -0.8709  0.5894  2.6800
 4324TIP3   OH234462   5.994   2.730   1.655  0.1280 -0.7558  0.0311
 4324TIP3    H134463   5.953   2.773   1.730  1.1422  0.6876 -0.1934
 4324TIP3    H234464   6.068   2.682   1.691 -1.7177 -3.4986  0.4591
 4325TIP3   OH234465   4.132   5.835   5.114 -0.2066  0.6894  0.2422
 4325TIP3    H134466   4.211   5.880   5.085  0.6414 -0.9017 -0.0463
 4325TIP3    H234467   4.061   5.894   5.091  0.7340  1.2518 -1.4200
 4326TIP3   OH234468   4.679   2.426   5.014  0.3131 -0.0241 -0.5716
 4326TIP3    H134469   4.685   2.420   4.919  1.3330  2.0271 -0.6941
 4326TIP3    H234470   4.608   2.367   5.038 -0.2127 -0.2898 -2.6406
 4327TIP3   OH234471   4.320   6.787   5.950 -0.2762  0.6972  0.3252
 4327TIP3    H134472   4.309   6.871   5.995 -2.3030  0.8416 -0.3257
 4327TIP3    H234473   4.260   6.728   5.995 -0.1817  0.0690 -0.3584
 4328TIP3   OH234474   6.208   6.428  15.938 -0.9612  0.3239  0.3512
 4328TIP3    H134475   6.274   6.489  15.970  0.8792 -1.2674 -0.1560
 4328TIP3    H234476   6.232   6.414  15.846 -1.5236 -0.8948  0.3753
 4329TIP3   OH234477   3.244   2.199   3.551 -0.2022 -0.2738  0.7362
 4329TIP3    H134478   3.298   2.244   3.486 -1.3976  1.0378  0.6044
 4329TIP3    H234479   3.245   2.107   3.523  0.1370  0.1022 -0.5523
 4330TIP3   OH234480   1.024   4.525   0.190 -0.5708  0.4956  0.1027
 4330TIP3    H134481   0.996   4.557   0.276 -0.4799  0.9217 -0.0225
 4330TIP3    H234482   1.020   4.430   0.197 -0.7600  0.5321  0.5142
 4331TIP3   OH234483   4.201   0.528  13.751  0.6418  0.5551  0.1706
 4331TIP3    H134484   4.223   0.620  13.769  1.2849 -0.1514  3.6016
 4331TIP3    H234485   4.127   0.510  13.809  0.4804 -1.0987 -0.5148
 4332TIP3   OH234486   6.563   2.614   5.511  0.3179  0.3746  0.5947
 4332TIP3    H134487   6.537   2.523   5.498 -1.2273  0.8848 -0.0943
 4332TIP3    H234488   6.560   2.653   5.424 -0.4331  1.4165  1.0613
 4333TIP3   OH234489   1.953   3.745   3.026  0.7620 -0.5615  0.0010
 4333TIP3    H134490   1.979   3.659   3.059  1.0162 -0.8778 -0.9781
 4333TIP3    H234491   1.939   3.731   2.932  0.2043  0.3311 -0.0647
 4334TIP3   OH234492   5.551   5.573  11.334  0.0447  0.2548 -0.3413
 4334TIP3    H134493   5.623   5.616  11.380  1.2889 -0.6595 -1.3734
 4334TIP3    H234494   5.483   5.564  11.401  1.1551  0.4936  0.8671
 4335TIP3   OH234495   0.157   1.370   1.274 -0.2173  0.3186  0.1597
 4335TIP3    H134496   0.112   1.409   1.349 -1.5955  1.2953 -1.1129
 4335TIP3    H234497   0.174   1.280   1.300 -3.9770 -0.4880  0.3532
 4336TIP3   OH234498   2.895   6.691   1.340 -0.2600  0.5288  0.1743
 4336TIP3    H134499   2.920   6.745   1.264  0.6106 -0.7294 -0.4730
 4336TIP3    H234500   2.957   6.715   1.408 -0.7775  1.3619  0.3597
 4337TIP3   OH234501   4.244   4.550   6.182 -0.1698  0.1155 -0.0345
 4337TIP3    H134502   4.308   4.597   6.236  0.0205 -0.5808  0.3664
 4337TIP3    H234503   4.162   4.557   6.231  0.3549 -1.9742  1.2829
 4338TIP3   OH234504   6.796   2.316  11.771 -0.8585 -0.8368  0.0789
 4338TIP3    H134505   6.882   2.298  11.732 -0.2981 -0.8965  1.2849
 4338TIP3    H234506   6.739   2.249  11.735 -0.1840 -1.3471 -0.0717
 4339TIP3   OH234507   3.669   1.964   3.480 -0.0738  0.4477  0.4191
 4339TIP3    H134508   3.587   1.920   3.503  0.8052  0.3751  4.1900
 4339TIP3    H234509   3.643   2.032   3.417 -2.4046 -1.6134 -1.0356
 4340TIP3   OH234510   0.508   2.838  15.283  0.2232 -0.4644 -0.7118
 4340TIP3    H134511   0.577   2.879  15.335 -0.8330 -0.6664  0.9115
 4340TIP3    H234512   0.496   2.752  15.323 -1.8268  0.0517 -0.1562
 4341TIP3   OH234513   2.601   1.628  12.841  0.8583  0.0318  0.4511
 4341TIP3    H134514   2.649   1.567  12.897 -0.8973 -3.6995 -1.7243
 4341TIP3    H234515   2.663   1.653  12.773  1.0993 -1.0280  0.2576
 4342TIP3   OH234516   5.351   2.983   4.321  0.0578  0.4531  0.7260
 4342TIP3    H134517   5.329   2.897   4.284 -0.1365  1.2132 -1.0666
 4342TIP3    H234518   5.270   3.015   4.360 -0.5103  0.7543 -0.6369
 4343TIP3   OH234519   4.117   2.356  12.173 -0.2506  0.8353 -0.0657
 4343TIP3    H134520   4.112   2.440  12.218  0.1387  0.1213  1.3418
 4343TIP3    H234521   4.045   2.304  12.209 -0.3161  0.4571 -0.7187
 4344TIP3   OH234522   5.063   1.072  15.719  0.1945 -0.2896  0.1820
 4344TIP3    H134523   5.003   1.144  15.699 -0.5118 -1.3198 -1.6835
 4344TIP3    H234524   5.047   1.052  15.811 -1.3217  0.3563  0.0846
 4345TIP3   OH234525   1.102   2.853   2.009 -0.3437  0.1987  0.3016
 4345TIP3    H134526   1.030   2.812   2.058 -0.5120  0.2233  0.0755
 4345TIP3    H234527   1.165   2.783   1.996 -0.5584  0.0500  0.0563
 4346TIP3   OH234528   5.585   0.456  14.988 -0.2981  0.3718  0.7341
 4346TIP3    H134529   5.576   0.386  15.053  1.2255 -0.4739  0.0964
 4346TIP3    H234530   5.671   0.495  15.007 -0.8855  1.7273  0.7238
 4347TIP3   OH234531   5.125   3.549   4.681  0.4902 -0.0842 -0.2773
 4347TIP3    H134532   5.211   3.567   4.642  1.0899 -2.0328  0.0724
 4347TIP3    H234533   5.138   3.560   4.775 -0.4183  2.4442 -0.3592
 4348TIP3   OH234534   4.805   0.764   1.861 -0.5206  0.0470 -0.0622
 4348TIP3    H134535   4.768   0.824   1.926 -0.1125 -0.5449  0.7355
 4348TIP3    H234536   4.792   0.808   1.777 -0.6965  1.0103  0.4600
 4349TIP3   OH234537   0.838   4.890  14.137 -0.2665 -0.4274  0.2773
 4349TIP3    H134538   0.859   4.984  14.143 -0.6569 -0.3986  1.4318
 4349TIP3    H234539   0.743   4.888  14.121 -0.3412 -0.6219  0.7302
 4350TIP3   OH234540   3.035   5.243  15.471  0.3633  0.1109  0.1507
 4350TIP3    H134541   3.033   5.219  15.379  0.7524 -1.9881  0.6547
 4350TIP3    H234542   3.042   5.160  15.518  1.5515  1.1943  2.0239
 4351TIP3   OH234543   4.693   3.947  14.827 -0.1298  0.0692  0.5652
 4351TIP3    H134544   4.731   3.917  14.744  0.0378  0.1633  0.6066
 4351TIP3    H234545   4.603   3.972  14.805  0.4587  1.8819  0.0142
 4352TIP3   OH234546   4.887   6.129  11.447 -0.4898 -0.2092  0.6550
 4352TIP3    H134547   4.850   6.082  11.521 -2.2740 -1.8386 -1.1325
 4352TIP3    H234548   4.940   6.064  11.401 -0.8464  0.2489 -0.4371
 4353TIP3   OH234549   5.074   5.745  13.863 -0.2521  0.3823 -0.0173
 4353TIP3    H134550   5.140   5.685  13.897 -0.3638  0.9720  1.3092
 4353TIP3    H234551   5.078   5.734  13.768  0.4778 -0.9104  0.1441
 4354TIP3   OH234552   3.611   5.825  11.114  0.5413  0.2145 -0.1042
 4354TIP3    H134553   3.571   5.854  11.197  1.8128 -0.1041  0.6386
 4354TIP3    H234554   3.698   5.863  11.115  1.8011 -2.4347  0.2698
 4355TIP3   OH234555   6.625   4.849  11.853  0.1858 -0.0799  0.3965
 4355TIP3    H134556   6.707   4.866  11.806  0.5719 -0.2879  0.9797
 4355TIP3    H234557   6.620   4.918  11.918  0.6737 -0.9250  1.3562
 4356TIP3   OH234558   0.164   1.064   2.966 -0.4992 -0.0829 -0.1938
 4356TIP3    H134559   0.087   1.115   2.993 -1.1484 -1.3507  0.4780
 4356TIP3    H234560   0.137   1.022   2.884 -0.4597 -0.3837 -0.0535
 4357TIP3   OH234561   5.961   3.483  11.775 -0.1326  0.1588 -0.4713
 4357TIP3    H134562   5.912   3.441  11.845  0.3578 -0.5811 -0.5556
 4357TIP3    H234563   5.958   3.576  11.795  0.0556 -0.0534  0.5533
 4358TIP3   OH234564   3.807   0.666  16.959  0.3140  0.0709 -0.4281
 4358TIP3    H134565   3.888   0.622  16.986  0.3585 -0.8929 -1.9695
 4358TIP3    H234566   3.794   0.735  17.024  2.3162  0.1803 -0.0609
 4359TIP3   OH234567   6.021   4.643   5.120 -0.1644 -0.0676  0.4224
 4359TIP3    H134568   6.058   4.731   5.111  0.6262 -0.4163  0.1475
 4359TIP3    H234569   6.094   4.591   5.154 -0.3750 -0.7996 -0.2346
 4360TIP3   OH234570   2.963   4.662  15.416 -0.6188 -0.2616 -0.2576
 4360TIP3    H134571   2.965   4.638  15.509 -1.3600 -1.0748 -0.4351
 4360TIP3    H234572   2.876   4.699  15.403 -0.1878  0.7206 -0.4404
 4361TIP3   OH234573   2.211   3.639   5.087  0.9090 -0.0947 -0.2997
 4361TIP3    H134574   2.154   3.593   5.149  0.0914  2.3505  0.8967
 4361TIP3    H234575   2.275   3.574   5.059 -0.4493 -2.0359  0.9180
 4362TIP3   OH234576   6.097   2.847   5.345  0.2694  0.2616 -0.5821
 4362TIP3    H134577   6.124   2.939   5.345 -0.9731  0.6572 -0.2930
 4362TIP3    H234578   6.084   2.827   5.438 -0.7392  0.2194 -0.7163
 4363TIP3   OH234579   6.026   1.205  14.968  0.2367  0.0648 -0.1457
 4363TIP3    H134580   5.983   1.264  14.907  0.1003 -0.9290 -1.0498
 4363TIP3    H234581   6.061   1.262  15.037 -0.0534  1.1559 -0.8767
 4364TIP3   OH234582   4.359   0.348   4.153  0.0413 -0.1413  0.0050
 4364TIP3    H134583   4.446   0.330   4.118 -0.6409 -0.3007 -1.6883
 4364TIP3    H234584   4.354   0.444   4.157  0.7645 -0.1384  1.4181
 4365TIP3   OH234585   2.497   1.260  17.049  0.0409 -0.5866  0.3668
 4365TIP3    H134586   2.559   1.212  17.103  0.2021 -0.8823 -0.0763
 4365TIP3    H234587   2.501   1.349  17.082  3.9293  0.5146 -2.3377
 4366TIP3   OH234588   4.592   4.284  12.489 -0.0282  0.2076  0.0888
 4366TIP3    H134589   4.650   4.359  12.502  0.1240  1.0714 -4.1708
 4366TIP3    H234590   4.613   4.252  12.402  1.5951 -6.4856  2.3749
 4367TIP3   OH234591   1.543   3.311   3.622  0.5831 -0.1767 -0.1337
 4367TIP3    H134592   1.576   3.379   3.680 -0.3896 -0.9396  1.3899
 4367TIP3    H234593   1.512   3.242   3.681 -0.7157 -0.8708 -1.5502
 4368TIP3   OH234594   5.603   4.276   3.494  0.0124  0.0291  0.1768
 4368TIP3    H134595   5.639   4.232   3.417  0.9160  0.5609  0.2865
 4368TIP3    H234596   5.532   4.218   3.523  1.2200 -1.4183  0.3738
 4369TIP3   OH234597   2.298   3.490  10.740  0.5601 -0.7053  0.5418
 4369TIP3    H134598   2.335   3.578  10.739  0.6830 -0.7170 -1.5674
 4369TIP3    H234599   2.204   3.504  10.738  0.5143 -0.6584  2.1087
 4370TIP3   OH234600   0.574   2.550   2.301  0.6640  0.0297 -0.8370
 4370TIP3    H134601   0.594   2.462   2.268  1.9259  1.1836 -3.3702
 4370TIP3    H234602   0.651   2.574   2.352 -0.2380 -0.7740  1.0026
 4371TIP3   OH234603   3.753   1.558  13.173  0.2528 -0.0699  0.0817
 4371TIP3    H134604   3.782   1.648  13.185  0.3457  0.2459 -2.1300
 4371TIP3    H234605   3.674   1.551  13.226  0.2079  1.3380  0.2314
 4372TIP3   OH234606   3.099   6.811  16.068 -0.0599  0.0515 -0.1563
 4372TIP3    H134607   3.157   6.735  16.065  0.6610  0.2785  3.2997
 4372TIP3    H234608   3.141   6.876  16.012  1.3034 -0.8589 -0.2408
 4373TIP3   OH234609   1.451   1.569  14.347  0.1540  0.0720 -0.5143
 4373TIP3    H134610   1.500   1.487  14.354  0.2190  0.1042 -0.5923
 4373TIP3    H234611   1.434   1.594  14.438  0.9559  0.4650 -0.4569
 4374TIP3   OH234612   5.730   1.673   5.929  0.1490  0.4207  0.1580
 4374TIP3    H134613   5.785   1.742   5.893 -0.1522  0.2482 -0.6484
 4374TIP3    H234614   5.733   1.687   6.024  1.1901  0.7001  0.0953
 4375TIP3   OH234615   5.919   5.221   5.720 -0.4957  0.5336  0.6355
 4375TIP3    H134616   5.834   5.250   5.687 -0.8671 -0.3551  0.7909
 4375TIP3    H234617   5.976   5.221   5.644 -0.6414  1.0862  0.5213
 4376TIP3   OH234618   1.107   2.476  16.414 -0.0413 -0.1790 -0.2665
 4376TIP3    H134619   1.048   2.424  16.359  0.0975  0.8841 -1.4692
 4376TIP3    H234620   1.190   2.476  16.367 -0.4293  2.3434 -1.1337
 4377TIP3   OH234621   5.449   2.733   2.187  0.1664 -0.2499 -0.2114
 4377TIP3    H134622   5.480   2.721   2.277 -0.7942  0.2084  0.2007
 4377TIP3    H234623   5.379   2.668   2.177  1.3201 -1.3951 -1.1852
 4378TIP3   OH234624   6.457   2.140   5.656  0.3780  1.2292  0.4126
 4378TIP3    H134625   6.535   2.121   5.708  0.7108  0.1499 -0.4387
 4378TIP3    H234626   6.384   2.123   5.716  0.7541  0.1220  0.5828
 4379TIP3   OH234627   2.121   5.135  11.035 -0.6011 -0.1600 -0.9701
 4379TIP3    H134628   2.123   5.105  11.126 -0.6678 -0.2519 -0.9989
 4379TIP3    H234629   2.148   5.059  10.984 -0.5730 -0.1116 -1.0279
 4380TIP3   OH234630   2.435   0.212  13.092  0.3958  0.6518  0.5605
 4380TIP3    H134631   2.467   0.179  13.008  0.4068 -1.4240  1.3281
 4380TIP3    H234632   2.341   0.195  13.091  0.3916  0.6370  0.9415
 4381TIP3   OH234633   5.064   2.950  15.628  0.6533  0.1317 -0.1944
 4381TIP3    H134634   5.134   2.997  15.583  1.5047  0.3345  1.2633
 4381TIP3    H234635   5.020   3.017  15.681  0.1606 -0.2292 -0.1384
 4382TIP3   OH234636   4.453   5.462   5.008  0.4939  0.4495  0.3509
 4382TIP3    H134637   4.382   5.511   4.967  0.6865  1.2058  0.9039
 4382TIP3    H234638   4.524   5.465   4.944 -0.3693 -1.4392 -0.7848
 4383TIP3   OH234639   4.441   4.788  15.670  0.1839  0.0785  0.8749
 4383TIP3    H134640   4.520   4.747  15.634  0.9484  0.2855  2.2174
 4383TIP3    H234641   4.418   4.732  15.745 -0.8238  0.1565  0.6352
 4384TIP3   OH234642   2.302   4.710  11.500  0.0249 -0.0257 -0.5680
 4384TIP3    H134643   2.256   4.749  11.574 -0.2026 -1.4171  0.0635
 4384TIP3    H234644   2.233   4.672  11.446  0.1960  0.9391 -1.4920
 4385TIP3   OH234645   4.511   2.124   5.727  0.0059  0.2682 -0.4655
 4385TIP3    H134646   4.465   2.151   5.807 -0.5003 -0.8430 -0.3693
 4385TIP3    H234647   4.517   2.204   5.675  0.2924  1.0000  0.6547
 4386TIP3   OH234648   3.073   6.760   2.030  0.0830  0.1502  0.3408
 4386TIP3    H134649   3.065   6.676   1.985  3.0805  0.3795 -0.8843
 4386TIP3    H234650   3.052   6.741   2.121 -0.0632 -1.7690 -0.0443
 4387TIP3   OH234651   0.533   5.743  14.151 -0.4699  0.0189  0.0423
 4387TIP3    H134652   0.594   5.670  14.144  0.7163  1.0249 -0.5123
 4387TIP3    H234653   0.587   5.821  14.139 -1.6988  1.0003  0.5953
 4388TIP3   OH234654   1.713   4.186  11.695  0.0163  0.1980 -0.1230
 4388TIP3    H134655   1.693   4.109  11.643 -0.0724  0.6662 -0.8001
 4388TIP3    H234656   1.631   4.235  11.698 -0.1190 -0.0758  0.9068
 4389TIP3   OH234657   3.563   4.318   2.418 -0.4295  0.5180  0.0555
 4389TIP3    H134658   3.576   4.236   2.465 -0.8558  0.3351 -0.1453
 4389TIP3    H234659   3.642   4.369   2.437  1.1422 -0.9933 -1.9920
 4390TIP3   OH234660   0.043   4.083   4.131 -0.2272 -0.2816  0.4304
 4390TIP3    H134661   0.065   4.176   4.134  1.4722 -0.5301 -1.5846
 4390TIP3    H234662   0.033   4.057   4.222 -2.9443  2.2946  1.0126
 4391TIP3   OH234663   0.061   4.161  11.256 -0.0294 -0.0416 -0.3065
 4391TIP3    H134664   0.064   4.145  11.350  1.9277  2.2615  0.1287
 4391TIP3    H234665   0.119   4.095  11.219 -1.1972 -1.2756  0.0026
 4392TIP3   OH234666   5.708   5.144   5.536  0.3618  1.3440  0.4076
 4392TIP3    H134667   5.797   5.129   5.502 -0.3516  0.5279 -1.1787
 4392TIP3    H234668   5.690   5.066   5.589 -0.6282 -0.1946 -2.0201
 4393TIP3   OH234669   3.429   4.588  13.052 -0.1910  0.3869 -0.1320
 4393TIP3    H134670   3.482   4.513  13.080  0.6569  1.2320  0.5667
 4393TIP3    H234671   3.368   4.601  13.125 -0.2100  0.5040 -0.1697
 4394TIP3   OH234672   5.537   1.734   0.563  0.0178 -0.8794 -0.0908
 4394TIP3    H134673   5.458   1.691   0.528 -0.6865  1.0661 -1.0149
 4394TIP3    H234674   5.510   1.767   0.648  0.1205 -1.0056 -0.0088
 4395TIP3   OH234675   5.854   1.461   5.302  0.2791  0.1775 -0.1691
 4395TIP3    H134676   5.792   1.491   5.235  1.5063  1.2858 -0.8469
 4395TIP3    H234677   5.940   1.484   5.267  1.0401 -0.5911  1.1229
 4396TIP3   OH234678   4.898   2.241  16.414  0.4422  0.4703 -0.1498
 4396TIP3    H134679   4.913   2.169  16.475 -1.5449  0.7364  0.7341
 4396TIP3    H234680   4.869   2.198  16.333 -0.5490  0.2370  0.3137
 4397TIP3   OH234681   2.917   1.167  16.854 -0.1596 -0.7483 -0.2488
 4397TIP3    H134682   2.829   1.132  16.844  0.6258 -2.7822 -0.5598
 4397TIP3    H234683   2.947   1.184  16.764 -1.0604  2.3646 -0.0780
 4398TIP3   OH234684   5.926   6.017  11.253  0.5661  0.8523 -0.0018
 4398TIP3    H134685   5.955   5.938  11.300  4.1697  0.8078 -1.9518
 4398TIP3    H234686   5.867   5.984  11.185  0.4419  0.1033  0.4555
 4399TIP3   OH234687   1.247   2.002   4.405  0.5154 -0.0007 -0.2676
 4399TIP3    H134688   1.294   1.923   4.430 -0.6207 -0.7294 -0.3423
 4399TIP3    H234689   1.189   1.974   4.334  0.3796  0.9913 -0.5649
 4400TIP3   OH234690   4.585   4.012  12.267 -0.0981  0.7455  0.4658
 4400TIP3    H134691   4.573   3.953  12.192  2.5451  1.9936 -1.0962
 4400TIP3    H234692   4.497   4.034  12.295 -1.1619 -1.2725 -1.0755
 4401TIP3   OH234693   2.499   3.812  15.514  0.1593  0.2350 -0.3344
 4401TIP3    H134694   2.450   3.893  15.530 -1.5043 -0.8083  0.1531
 4401TIP3    H234695   2.450   3.767  15.445  0.4700 -0.8079  0.0946
 4402TIP3   OH234696   2.134   4.404  10.929  0.5332  0.0570  0.6197
 4402TIP3    H134697   2.215   4.359  10.904 -1.3705 -2.4805 -1.6086
 4402TIP3    H234698   2.067   4.364  10.874 -1.9619  3.4479  0.9287
 4403TIP3   OH234699   4.231   5.131   0.190  0.1604 -0.1259 -0.3464
 4403TIP3    H134700   4.229   5.130   0.285  1.8162  0.8539 -0.2529
 4403TIP3    H234701   4.324   5.145   0.168 -0.5064  2.3915 -2.0394
 4404TIP3   OH234702   0.242   6.409  11.287  0.1910 -0.1803  0.0175
 4404TIP3    H134703   0.283   6.449  11.364 -0.2852 -2.8755  1.8382
 4404TIP3    H234704   0.163   6.460  11.272  0.8241  1.0288  0.6333
 4405TIP3   OH234705   4.468   3.043  11.496 -0.2613  0.0678 -0.3458
 4405TIP3    H134706   4.413   3.112  11.459  0.5786  1.3336  0.6636
 4405TIP3    H234707   4.453   3.049  11.591  1.5181  0.4120 -0.0540
 4406TIP3   OH234708   2.983   6.573   6.195  0.1719  0.2003 -0.1258
 4406TIP3    H134709   2.924   6.637   6.156 -0.0293  0.9221  1.2924
 4406TIP3    H234710   3.070   6.598   6.164 -0.1270 -0.2916 -1.4533
 4407TIP3   OH234711   4.748   0.265  12.838 -0.5207 -0.2330 -0.7077
 4407TIP3    H134712   4.778   0.301  12.755 -2.2726 -1.3333 -1.8788
 4407TIP3    H234713   4.736   0.172  12.822 -2.8787 -0.1589  0.0927
 4408TIP3   OH234714   0.068   1.281   1.919 -0.1393  0.1838 -0.1228
 4408TIP3    H134715   0.015   1.249   1.993  0.7244  0.1646  0.5074
 4408TIP3    H234716   0.068   1.208   1.857  1.2953 -0.8599  1.0316
 4409TIP3   OH234717   4.734   3.543  13.374 -0.3739 -0.0537 -0.1250
 4409TIP3    H134718   4.758   3.566  13.284 -1.4157 -0.2291 -0.4608
 4409TIP3    H234719   4.713   3.450  13.370  0.6665 -0.3307  0.5455
 4410TIP3   OH234720   1.361   5.100   4.222  0.0571  0.1310 -0.4196
 4410TIP3    H134721   1.438   5.083   4.168 -0.9268  0.7770 -2.0884
 4410TIP3    H234722   1.316   5.015   4.226  1.3696 -0.5599  1.5409
 4411TIP3   OH234723   0.986   5.390   0.131 -0.3897 -0.0931  0.4957
 4411TIP3    H134724   0.964   5.306   0.091  0.2743 -0.5979  1.1560
 4411TIP3    H234725   0.916   5.450   0.103  1.0955  0.1769 -3.1834
 4412TIP3   OH234726   5.335   5.534   2.527 -0.2026 -0.3122  0.5587
 4412TIP3    H134727   5.291   5.598   2.472  0.5821  0.6405  1.0246
 4412TIP3    H234728   5.383   5.585   2.592  2.0359 -1.2644 -0.2322
 4413TIP3   OH234729   2.099   4.700  16.015 -0.0741  0.2258  1.0163
 4413TIP3    H134730   2.179   4.739  15.980 -0.4234  1.3306  1.3988
 4413TIP3    H234731   2.045   4.775  16.040 -0.1742 -0.4944  3.1562
 4414TIP3   OH234732   5.236   6.312   5.067  0.5804  0.0002  0.0862
 4414TIP3    H134733   5.285   6.285   4.989  1.5595 -1.1744  1.0732
 4414TIP3    H234734   5.144   6.300   5.042  0.8361  0.3928 -1.1386
 4415TIP3   OH234735   1.228   1.213   1.333 -0.2670  0.3440  0.9298
 4415TIP3    H134736   1.175   1.141   1.366  0.3262 -0.0639  1.0096
 4415TIP3    H234737   1.307   1.211   1.386  0.0810  0.5706  0.4313
 4416TIP3   OH234738   5.437   1.944  15.581  0.3709  0.0146  0.2261
 4416TIP3    H134739   5.517   1.978  15.622  2.0369 -0.1775 -2.5532
 4416TIP3    H234740   5.426   1.999  15.503 -1.0474 -1.2496 -0.5085
 4417TIP3   OH234741   0.432   1.138  12.243  0.5012  0.2805  0.3942
 4417TIP3    H134742   0.348   1.173  12.213  0.7768  0.0831 -0.6705
 4417TIP3    H234743   0.423   1.130  12.338 -0.4217  0.9417  0.3756
 4418TIP3   OH234744   2.967   2.456   5.043 -0.6791 -0.2276  0.3054
 4418TIP3    H134745   2.995   2.412   4.963  2.4370  1.8916  0.0451
 4418TIP3    H234746   2.898   2.517   5.014  0.5551  0.6675 -0.8784
 4419TIP3   OH234747   5.853   4.648   0.987  0.5174 -0.0666 -0.1540
 4419TIP3    H134748   5.828   4.689   0.904 -0.3707  1.0461  0.6425
 4419TIP3    H234749   5.948   4.663   0.992  0.2492  1.8386  0.0480
 4420TIP3   OH234750   6.542   5.339  11.331 -0.6964  0.0050  0.1609
 4420TIP3    H134751   6.511   5.327  11.421 -1.3915  0.4655 -0.0121
 4420TIP3    H234752   6.598   5.263  11.315 -1.5306 -0.7145  0.5782
 4421TIP3   OH234753   0.827   3.034   2.828  0.0661 -0.1394 -0.0110
 4421TIP3    H134754   0.748   3.021   2.881  0.5801  1.9962  1.3499
 4421TIP3    H234755   0.894   2.981   2.871  0.0542  0.2420  0.4839
 4422TIP3   OH234756   1.232   6.304   1.654  0.3469  0.0318  0.4556
 4422TIP3    H134757   1.309   6.286   1.708  1.1547  1.1150 -0.3105
 4422TIP3    H234758   1.243   6.394   1.625  0.4815 -0.7825 -2.3640
 4423TIP3   OH234759   1.306   6.634   4.585  0.6992 -0.2710 -0.5016
 4423TIP3    H134760   1.384   6.617   4.638  1.0030  1.6449 -0.2780
 4423TIP3    H234761   1.234   6.597   4.637  1.3543 -1.3933 -0.3640
 4424TIP3   OH234762   1.551   4.570  15.162  0.2977  0.2167 -0.2150
 4424TIP3    H134763   1.461   4.580  15.193  0.5772  2.8273 -0.0867
 4424TIP3    H234764   1.600   4.545  15.241 -0.1013  0.0573 -0.0132
 4425TIP3   OH234765   4.404   5.898  12.001  0.5126  0.1238 -0.5784
 4425TIP3    H134766   4.310   5.917  11.994  0.8455  1.8724 -0.6505
 4425TIP3    H234767   4.418   5.826  11.939 -0.6467  0.3758 -1.1588
 4426TIP3   OH234768   6.229   5.583  15.534 -0.8436 -0.0934  0.2129
 4426TIP3    H134769   6.269   5.637  15.603 -1.3009 -0.4326  0.7507
 4426TIP3    H234770   6.269   5.615  15.453 -1.2216  1.1803  0.4958
 4427TIP3   OH234771   0.446   3.705   2.801 -0.3068  0.0271  0.1917
 4427TIP3    H134772   0.400   3.690   2.884  0.2732 -1.4672  0.2815
 4427TIP3    H234773   0.538   3.714   2.826  0.0415 -1.6137 -0.3480
 4428TIP3   OH234774   2.477   1.066  14.514 -0.2231  0.0202  0.1126
 4428TIP3    H134775   2.547   1.027  14.461 -1.0459 -3.4973  1.2879
 4428TIP3    H234776   2.521   1.098  14.592  0.3929  0.5889 -0.4510
 4429TIP3   OH234777   6.343   1.737   2.653  0.4642  0.3669  0.0061
 4429TIP3    H134778   6.249   1.745   2.662 -0.0871 -0.4312 -3.4968
 4429TIP3    H234779   6.374   1.826   2.638  0.2894  0.6372  1.2247
 4430TIP3   OH234780   6.519   3.458  10.921  0.1836 -0.1025 -0.5930
 4430TIP3    H134781   6.460   3.529  10.895 -1.1091 -0.5271  1.0323
 4430TIP3    H234782   6.579   3.449  10.847 -1.0727  1.1218 -1.8279
 4431TIP3   OH234783   4.555   0.077  13.531  0.0600 -0.3793 -0.4783
 4431TIP3    H134784   4.516   0.101  13.446 -0.6466  1.4016  0.2949
 4431TIP3    H234785   4.567   0.161  13.576  2.8932 -1.0181  0.1825
 4432TIP3   OH234786   2.533   1.972   1.242  0.0400  0.1145 -0.0232
 4432TIP3    H134787   2.505   2.030   1.313 -1.5669 -1.0737  0.3688
 4432TIP3    H234788   2.572   1.896   1.286 -0.4944 -0.3930 -0.4034
 4433TIP3   OH234789   3.290   1.232   5.627 -0.4427 -0.2374  0.1050
 4433TIP3    H134790   3.320   1.281   5.550  0.4753  0.2302  0.7388
 4433TIP3    H234791   3.273   1.144   5.594  0.4309 -0.1770 -0.5480
 4434TIP3   OH234792   0.751   2.786   3.346  0.0591 -0.0539  0.7328
 4434TIP3    H134793   0.762   2.841   3.424 -0.8088  2.5858 -0.8943
 4434TIP3    H234794   0.840   2.758   3.324  0.6478  1.4218  1.1457
 4435TIP3   OH234795   5.767   3.037  16.874 -0.0206 -0.0710 -0.1763
 4435TIP3    H134796   5.753   2.944  16.857  0.6238 -0.1606 -0.2421
 4435TIP3    H234797   5.723   3.052  16.958  0.0819 -0.4869 -0.0442
 4436TIP3   OH234798   4.174   5.075  16.823 -0.2756  0.1019  0.0645
 4436TIP3    H134799   4.104   5.012  16.841 -2.2707  1.8437 -1.1443
 4436TIP3    H234800   4.143   5.157  16.861  0.7110  1.1342 -1.2498
 4437TIP3   OH234801   6.424   4.775   4.370  0.0554  0.1308 -0.4440
 4437TIP3    H134802   6.427   4.752   4.463  0.9497  1.3039 -0.1483
 4437TIP3    H234803   6.458   4.698   4.325  0.3946 -0.1458  0.2716
 4438TIP3   OH234804   4.231   6.622  13.422 -0.2064 -0.3485  0.7172
 4438TIP3    H134805   4.174   6.603  13.348 -1.1603  0.4365  1.2211
 4438TIP3    H234806   4.316   6.639  13.383 -0.6388 -0.1828 -0.1755
 4439TIP3   OH234807   3.606   2.921  13.459 -0.7991  0.3277 -0.4335
 4439TIP3    H134808   3.652   2.902  13.377  3.0995 -1.2211  1.8585
 4439TIP3    H234809   3.596   3.016  13.459 -1.6878  0.3303 -2.9544
 4440TIP3   OH234810   6.133   0.925  14.075  0.0697 -0.0376 -0.3393
 4440TIP3    H134811   6.184   0.908  14.154 -0.7287  1.9253  0.6751
 4440TIP3    H234812   6.189   0.896  14.003  2.0975  0.8609  0.7928
 4441TIP3   OH234813   5.893   1.720   5.709 -0.2999 -0.4950  0.7839
 4441TIP3    H134814   5.816   1.704   5.655  0.7165  0.2483 -0.9566
 4441TIP3    H234815   5.914   1.634   5.747 -0.3751 -1.3264 -0.9535
 4442TIP3   OH234816   4.031   2.482  11.864 -0.4328 -0.7802 -0.4116
 4442TIP3    H134817   4.118   2.451  11.840 -0.1676 -0.7042  0.4137
 4442TIP3    H234818   4.000   2.527  11.786  1.3263  1.4393  0.0458
 4443TIP3   OH234819   1.040   4.259   0.213 -0.0390  0.0867  0.4533
 4443TIP3    H134820   0.994   4.177   0.232  1.4000 -0.3514  2.3726
 4443TIP3    H234821   1.106   4.235   0.148 -1.3165  0.3397 -0.9815
 4444TIP3   OH234822   0.438   6.252   5.352 -0.3929  0.2715  0.3598
 4444TIP3    H134823   0.357   6.300   5.371 -2.0626 -2.0013 -0.5325
 4444TIP3    H234824   0.416   6.160   5.367  1.9497 -0.4690 -0.2508
 4445TIP3   OH234825   3.008   0.684  17.035 -0.0387  0.5012  0.6556
 4445TIP3    H134826   3.093   0.707  17.071 -0.4544  3.3446  0.0162
 4445TIP3    H234827   2.990   0.751  16.970 -1.4219 -1.7830 -1.5040
 4446TIP3   OH234828   1.065   5.663   6.839  0.6947  0.3806 -0.2695
 4446TIP3    H134829   1.152   5.684   6.805  0.2677  2.4742 -0.1501
 4446TIP3    H234830   1.028   5.604   6.773  2.3145 -0.8708 -0.1367
 4447TIP3   OH234831   5.949   5.771  13.135 -0.4476  0.0594 -0.1473
 4447TIP3    H134832   5.982   5.830  13.067 -0.0174 -1.5412 -1.3816
 4447TIP3    H234833   5.935   5.688  13.090  0.9555 -1.4113  1.9404
 4448TIP3   OH234834   2.421   5.530  13.670 -0.2139  0.1760  0.0154
 4448TIP3    H134835   2.412   5.439  13.642  0.9664  0.7373 -2.4237
 4448TIP3    H234836   2.331   5.562  13.676 -0.5957 -0.7790 -0.4282
 4449TIP3   OH234837   3.844   2.463   3.790 -0.6517  0.0257 -0.1542
 4449TIP3    H134838   3.850   2.391   3.853  0.5238 -0.1267 -0.4287
 4449TIP3    H234839   3.871   2.540   3.840 -1.7849  0.2836  0.1030
 4450TIP3   OH234840   1.383   0.997  16.049  0.2287 -0.2286 -0.1335
 4450TIP3    H134841   1.422   0.993  16.136 -0.6588  0.1780  0.2839
 4450TIP3    H234842   1.425   1.073  16.008 -0.6978  0.7150  0.6113
 4451TIP3   OH234843   6.664   4.053  14.052  0.7837  0.3758 -0.2179
 4451TIP3    H134844   6.748   4.098  14.056  0.8159  0.3562 -0.6126
 4451TIP3    H234845   6.636   4.063  13.961  0.2914  0.5074 -0.0587
 4452TIP3   OH234846   0.755   1.519   1.040  0.7776  0.1266 -0.4747
 4452TIP3    H134847   0.667   1.552   1.024  0.7167  0.3365  0.2394
 4452TIP3    H234848   0.790   1.576   1.109  1.2476 -0.3228 -0.3302
 4453TIP3   OH234849   0.110   1.545   2.582  0.1138 -0.8546  0.3010
 4453TIP3    H134850   0.063   1.534   2.500 -0.4851 -2.7854  0.8670
 4453TIP3    H234851   0.059   1.610   2.631 -0.5807 -1.1228 -0.0694
 4454TIP3   OH234852   5.746   5.232   3.920  0.2594  0.1942  0.2104
 4454TIP3    H134853   5.752   5.137   3.911  2.5263  0.2986  0.1233
 4454TIP3    H234854   5.718   5.263   3.834  0.6562 -0.3185 -0.1037
 4455TIP3   OH234855   2.998   6.164  11.522  0.1096 -0.0506  0.1855
 4455TIP3    H134856   3.076   6.215  11.501  1.2496 -1.1534  1.5729
 4455TIP3    H234857   2.961   6.207  11.599  1.3486 -1.5202  1.6604
 4456TIP3   OH234858   2.024   5.948  13.109  0.2163  0.1933 -0.0945
 4456TIP3    H134859   2.066   5.864  13.089  1.7216  0.3259  2.1704
 4456TIP3    H234860   2.055   6.007  13.041  0.1672 -0.7640 -0.9682
 4457TIP3   OH234861   0.623   0.807  16.960 -0.0912  1.2570  0.3300
 4457TIP3    H134862   0.658   0.741  17.020 -1.5692  0.0490 -0.0693
 4457TIP3    H234863   0.694   0.825  16.899  0.1483 -0.4951  0.0419
 4458TIP3   OH234864   3.218   2.886  15.145  0.3711 -0.0873  0.2092
 4458TIP3    H134865   3.214   2.952  15.076 -0.7697 -0.5789 -0.2010
 4458TIP3    H234866   3.298   2.837  15.126 -0.0447 -0.3598 -0.8948
 4459TIP3   OH234867   1.674   2.214   2.217  0.2791  0.1030 -0.0302
 4459TIP3    H134868   1.622   2.141   2.184 -0.3995  0.3622  0.4271
 4459TIP3    H234869   1.687   2.194   2.310  0.0224  0.5843  0.1177
 4460TIP3   OH234870   4.171   0.053   3.720  0.5812  0.5005 -0.2435
 4460TIP3    H134871   4.093  -0.002   3.731  0.7751  0.4339  0.8744
 4460TIP3    H234872   4.156   0.127   3.779  0.4549  1.5382 -1.5124
 4461TIP3   OH234873   1.612   2.069  13.814  0.2133 -0.1658  0.3257
 4461TIP3    H134874   1.636   1.987  13.771 -1.4955 -0.9363  0.7520
 4461TIP3    H234875   1.630   2.053  13.907 -3.0023 -1.3132  0.8892
 4462TIP3   OH234876   5.075   3.012   5.965  0.1928 -0.1179  0.7839
 4462TIP3    H134877   4.986   2.979   5.974  0.4608 -1.6075 -1.3309
 4462TIP3    H234878   5.118   2.986   6.047 -0.7032 -1.4770  0.8525
 4463TIP3   OH234879   1.391   1.770   4.389  0.2851  0.6283 -0.2143
 4463TIP3    H134880   1.481   1.774   4.359  0.1806  2.8062 -0.3973
 4463TIP3    H234881   1.390   1.701   4.456  1.5771 -0.9004 -1.6977
 4464TIP3   OH234882   4.069   1.526   0.816  0.1819  0.7879 -0.5808
 4464TIP3    H134883   3.983   1.514   0.855  0.5496  2.7196  0.9610
 4464TIP3    H234884   4.130   1.500   0.885  0.9077 -0.8429 -1.7557
 4465TIP3   OH234885   3.207   4.189  16.346 -0.2897  0.6502 -0.2948
 4465TIP3    H134886   3.272   4.193  16.417  0.0241 -1.7554 -0.3496
 4465TIP3    H234887   3.204   4.277  16.311  2.2312  1.0695  0.3685
 4466TIP3   OH234888   3.598   3.866  13.943  0.8361  0.5584 -0.3772
 4466TIP3    H134889   3.518   3.865  13.890  0.4182  0.8334  0.2354
 4466TIP3    H234890   3.647   3.789  13.915 -0.4546 -0.6141  0.4607
 4467TIP3   OH234891   0.682   6.234  16.689  0.0958  0.3413 -0.3661
 4467TIP3    H134892   0.633   6.160  16.724  0.8866 -0.2168 -0.3985
 4467TIP3    H234893   0.616   6.292  16.650 -0.6094  0.0720  0.4163
 4468TIP3   OH234894   2.593   3.419   1.809  0.9811 -0.2238  0.4338
 4468TIP3    H134895   2.558   3.389   1.893  1.7539 -0.1053  0.8043
 4468TIP3    H234896   2.565   3.351   1.747 -1.4769  0.7736  0.3414
 4469TIP3   OH234897   2.740   0.785  16.676  0.1516  0.1121  0.0337
 4469TIP3    H134898   2.820   0.800  16.726  0.7467 -0.4223 -0.7332
 4469TIP3    H234899   2.673   0.832  16.724  0.3480 -1.6916  2.2545
 4470TIP3   OH234900   0.722   1.753   4.972 -0.2985  0.7853 -0.4504
 4470TIP3    H134901   0.668   1.822   5.011 -0.9450 -0.1296  0.3361
 4470TIP3    H234902   0.789   1.737   5.038 -0.2332  0.5676 -0.5713
 4471TIP3   OH234903   2.605   0.029   0.501 -1.0534  0.5450  0.7049
 4471TIP3    H134904   2.517   0.006   0.532 -1.7919  3.3232  0.8986
 4471TIP3    H234905   2.664  -0.008   0.567 -1.9401 -1.9757  0.2135
 4472TIP3   OH234906   1.622   0.197  16.815 -0.3812 -0.1744 -0.1279
 4472TIP3    H134907   1.688   0.250  16.769 -0.3088  1.5562  1.8428
 4472TIP3    H234908   1.671   0.152  16.884 -0.8430 -1.1081 -0.3852
 4473TIP3   OH234909   4.502   1.739   5.287 -0.1057 -0.2948  0.3035
 4473TIP3    H134910   4.562   1.713   5.357 -1.3666 -1.7480  0.8916
 4473TIP3    H234911   4.420   1.694   5.308 -0.6660 -0.3631 -1.8594
 4474TIP3   OH234912   5.269   6.419  11.320 -0.5525  0.6284 -0.3129
 4474TIP3    H134913   5.180   6.386  11.323  0.4360 -2.3210 -0.2670
 4474TIP3    H234914   5.313   6.365  11.254  1.9177 -0.0436  1.7042
 4475TIP3   OH234915   2.782   1.777   3.618  0.0510  0.3261  0.3537
 4475TIP3    H134916   2.862   1.796   3.667  0.2122 -1.1064  0.6671
 4475TIP3    H234917   2.779   1.682   3.612 -1.2951  0.3843 -0.2227
 4476TIP3   OH234918   3.981   4.404   5.309 -0.5351  0.0495  0.2529
 4476TIP3    H134919   4.061   4.452   5.333 -0.5289 -0.8152  2.1313
 4476TIP3    H234920   4.005   4.312   5.318 -1.7209 -0.2233  0.7750
 4477TIP3   OH234921   0.126   6.497  14.608 -0.0027  1.0389  0.1186
 4477TIP3    H134922   0.194   6.532  14.666  0.0223  0.8344  0.2117
 4477TIP3    H234923   0.133   6.402  14.617  0.0010  1.0054 -0.2185
 4478TIP3   OH234924   4.960   0.281  10.751  0.0122 -0.2828  0.1158
 4478TIP3    H134925   5.040   0.239  10.719  0.2016 -1.4169  1.9588
 4478TIP3    H234926   4.985   0.372  10.763  0.0600  0.1162 -2.3796
 4479TIP3   OH234927   1.118   2.512   1.338 -0.0201 -0.2400 -0.2986
 4479TIP3    H134928   1.055   2.478   1.274 -2.5969  0.4713  1.6531
 4479TIP3    H234929   1.070   2.582   1.382  1.9389 -0.1189  1.7891
 4480TIP3   OH234930   5.554   6.541   1.799 -0.0989  0.1188  0.3007
 4480TIP3    H134931   5.534   6.509   1.710 -1.3943  1.5321  0.0499
 4480TIP3    H234932   5.469   6.569   1.834  0.7955  2.3830  0.8267
 4481TIP3   OH234933   2.013   5.769  16.265  0.5647  0.2282  0.0234
 4481TIP3    H134934   2.086   5.776  16.203  0.2723 -1.5787 -0.5754
 4481TIP3    H234935   2.012   5.854  16.309  3.1128  0.2988  0.1337
 4482TIP3   OH234936   2.244   4.692  15.233 -0.3280 -0.6144  0.1648
 4482TIP3    H134937   2.332   4.671  15.264 -0.6292 -1.3840  0.5339
 4482TIP3    H234938   2.255   4.712  15.140  0.2747 -0.4225  0.2704
 4483TIP3   OH234939   4.718   4.659   3.723  0.1155 -0.4722  0.0531
 4483TIP3    H134940   4.754   4.583   3.769  1.2131  1.6687  3.0372
 4483TIP3    H234941   4.628   4.667   3.756  0.2703 -0.0372  0.3817
 4484TIP3   OH234942   5.317   6.754   0.077  0.3664  0.5221 -0.1979
 4484TIP3    H134943   5.371   6.816   0.028  1.8663  0.3796  1.1989
 4484TIP3    H234944   5.370   6.674   0.081 -0.9614 -0.4364 -0.7896
 4485TIP3   OH234945   6.753   4.011   1.485  0.4222  0.1101 -0.2688
 4485TIP3    H134946   6.667   4.032   1.521  0.3292 -0.1366 -0.3411
 4485TIP3    H234947   6.797   3.961   1.554  0.4470  0.0953 -0.2953
 4486TIP3   OH234948   3.425   2.621  13.825 -0.2875 -0.3559 -0.6931
 4486TIP3    H134949   3.510   2.665  13.838 -0.2266  0.0029 -2.1800
 4486TIP3    H234950   3.385   2.668  13.752 -1.8804 -0.3906  0.1272
 4487TIP3   OH234951   5.603   3.973  16.526 -0.0724  0.1986  0.5425
 4487TIP3    H134952   5.546   4.049  16.511 -1.6166 -1.0548 -0.1866
 4487TIP3    H234953   5.543   3.902  16.549  1.3907 -0.6481  2.0107
 4488TIP3   OH234954   2.341   1.250  12.923 -0.2148  0.0898  0.5611
 4488TIP3    H134955   2.434   1.251  12.946 -0.3134 -0.9389  1.0187
 4488TIP3    H234956   2.340   1.262  12.828  0.4388 -0.8740  0.4236
 4489TIP3   OH234957   6.152   2.608  16.645  0.3884  0.6146 -0.0641
 4489TIP3    H134958   6.138   2.693  16.688 -0.7340  0.7214 -0.5776
 4489TIP3    H234959   6.240   2.614  16.608  1.1749  0.7180  1.7184
 4490TIP3   OH234960   1.417   5.335   4.094  0.0113 -0.0329  0.4813
 4490TIP3    H134961   1.497   5.331   4.146 -1.8010  1.0061  3.6722
 4490TIP3    H234962   1.354   5.283   4.144 -1.7703  0.6640 -0.9371
 4491TIP3   OH234963   2.046   5.582   1.472 -0.0405  0.0279 -0.7193
 4491TIP3    H134964   1.988   5.584   1.548 -1.8790  0.0827 -2.0399
 4491TIP3    H234965   2.119   5.639   1.495 -0.6125  0.1495  0.9345
 4492TIP3   OH234966   0.371   2.743   3.444 -0.2682  0.3314 -0.1488
 4492TIP3    H134967   0.382   2.824   3.494 -3.0384 -0.2369  1.6001
 4492TIP3    H234968   0.327   2.770   3.363  1.1551  0.8285 -0.7909
 4493TIP3   OH234969   4.978   1.813  12.332 -0.1002  0.2118 -0.3243
 4493TIP3    H134970   4.939   1.727  12.317  0.6654  0.0233 -1.3858
 4493TIP3    H234971   4.938   1.869  12.267  0.1293  0.4175 -0.2897
 4494TIP3   OH234972   6.371   2.121  16.000  0.0907 -0.2066 -0.9686
 4494TIP3    H134973   6.280   2.150  15.994  0.0691 -0.3131 -1.1335
 4494TIP3    H234974   6.368   2.027  15.984  0.4088  0.0232 -2.5361
 4495TIP3   OH234975   3.834   0.258  15.500  0.3222  0.0528 -0.5269
 4495TIP3    H134976   3.798   0.345  15.488 -1.8156 -0.6443  0.2756
 4495TIP3    H234977   3.839   0.221  15.412  0.3325  0.6453 -0.7770
 4496TIP3   OH234978   5.200   2.620   2.935  0.3661 -0.0665  0.0951
 4496TIP3    H134979   5.175   2.668   3.014  0.1726  0.2775 -0.1666
 4496TIP3    H234980   5.272   2.671   2.898 -1.3693  1.4111 -1.4560
 4497TIP3   OH234981   1.103   6.185  12.759  0.0098 -0.3311 -0.1129
 4497TIP3    H134982   1.136   6.167  12.671  2.2558 -1.6422  0.9027
 4497TIP3    H234983   1.182   6.205  12.810 -1.1086 -0.6617  1.8467
 4498TIP3   OH234984   3.581   5.303   5.078 -0.4190 -0.5250  0.4677
 4498TIP3    H134985   3.605   5.242   5.009 -0.8792  0.0524 -0.2075
 4498TIP3    H234986   3.619   5.386   5.051 -1.2020 -0.1322  0.5467
 4499TIP3   OH234987   3.667   5.790  12.178  0.3605 -0.9253  0.1056
 4499TIP3    H134988   3.741   5.848  12.163  0.6391 -1.8695 -2.8098
 4499TIP3    H234989   3.706   5.702  12.180 -0.5529 -1.3905 -1.0267
 4500TIP3   OH234990   2.887   3.017   0.779  0.8122  0.5951  0.3998
 4500TIP3    H134991   2.828   3.010   0.854  0.1811  0.2209 -0.1204
 4500TIP3    H234992   2.899   2.927   0.750  0.0707  0.8391 -0.6958
 4501TIP3   OH234993   5.282   0.316  12.196 -0.0680  0.0390  0.0856
 4501TIP3    H134994   5.233   0.361  12.127  0.2786 -0.2577 -0.3588
 4501TIP3    H234995   5.282   0.224  12.168  1.5843  0.1706 -0.4396
 4502TIP3   OH234996   4.577   0.438  16.803  0.8277 -0.4683 -0.1192
 4502TIP3    H134997   4.556   0.352  16.838  0.5011  0.0647  1.0470
 4502TIP3    H234998   4.650   0.469  16.857  0.5586  0.2155 -0.1296
 4503TIP3   OH234999   6.510   1.943   1.893  0.0208  0.1681  0.4198
 4503TIP3    H135000   6.537   1.855   1.866 -4.7402 -0.7677 -2.4110
 4503TIP3    H235001   6.480   1.932   1.983 -0.9548 -1.2626 -0.0563
 4504TIP3   OH235002   5.746   2.657  17.041  0.2672  0.4030 -0.3434
 4504TIP3    H135003   5.780   2.679  16.954 -3.5492 -2.0771 -2.7504
 4504TIP3    H235004   5.680   2.723  17.059 -0.4022 -0.2680 -0.3062
 4505TIP3   OH235005   0.936   4.137   1.547  0.2642 -0.4190 -0.4546
 4505TIP3    H135006   0.841   4.136   1.531  0.0644  0.8391  0.4452
 4505TIP3    H235007   0.960   4.230   1.541  0.9628 -0.3956  1.8050
 4506TIP3   OH235008   5.676   2.668  16.540 -0.0663 -0.6025  0.3915
 4506TIP3    H135009   5.678   2.763  16.528  0.6782 -0.5981  0.5152
 4506TIP3    H235010   5.664   2.633  16.451  3.1356 -0.4912 -0.1725
 4507TIP3   OH235011   1.776   2.168   1.622 -0.2355 -0.3635  0.3794
 4507TIP3    H135012   1.692   2.124   1.631 -0.2195 -0.3627  0.5266
 4507TIP3    H235013   1.785   2.182   1.527 -0.9844  0.7485  0.4422
 4508TIP3   OH235014   4.096   2.111   1.269  0.2427  0.4331  0.3864
 4508TIP3    H135015   4.097   2.199   1.231 -0.8419  0.7357  0.9961
 4508TIP3    H235016   4.110   2.124   1.363 -0.7386  0.0505  0.6036
 4509TIP3   OH235017   6.177   2.260   3.573 -0.1351 -0.0701 -0.2023
 4509TIP3    H135018   6.123   2.248   3.495  0.1682 -0.1125 -0.4098
 4509TIP3    H235019   6.185   2.172   3.610  0.1363 -0.1359 -0.4079
 4510TIP3   OH235020   2.810   0.040   1.065 -0.0926 -0.2039 -0.1606
 4510TIP3    H135021   2.885   0.093   1.038 -0.8052 -0.0018 -1.8489
 4510TIP3    H235022   2.746   0.103   1.097  0.0719 -0.2939  0.3565
 4511TIP3   OH235023   0.657   3.369  13.261 -0.4232  0.2479  0.6793
 4511TIP3    H135024   0.638   3.370  13.354 -0.5716 -0.8796  0.6733
 4511TIP3    H235025   0.648   3.460  13.233 -0.8416  0.5141  1.6636
 4512TIP3   OH235026   6.397   5.672   0.955 -0.1814  0.4044  0.2313
 4512TIP3    H135027   6.467   5.622   0.911  0.4659  0.9915  0.5748
 4512TIP3    H235028   6.331   5.606   0.976  0.4499 -0.2339  0.2604
 4513TIP3   OH235029   4.132   0.952   2.500  0.0217  0.5453  0.1509
 4513TIP3    H135030   4.128   1.020   2.567  1.9074  2.6807 -1.7426
 4513TIP3    H235031   4.051   0.964   2.450 -1.3158 -0.9544  1.7755
 4514TIP3   OH235032   2.142   0.575  12.310  0.8777  0.3461 -0.0891
 4514TIP3    H135033   2.236   0.584  12.297  0.4391  1.7781 -3.2064
 4514TIP3    H235034   2.109   0.542  12.227 -1.6528  2.7859 -0.2286
 4515TIP3   OH235035   5.824   0.540  15.063  0.3004 -0.7316 -0.4984
 4515TIP3    H135036   5.914   0.512  15.080  1.2481  1.1721 -2.0015
 4515TIP3    H235037   5.833   0.619  15.010 -2.1700  1.5709  2.1914
 4516TIP3   OH235038   1.446   3.668   5.789 -0.0464  0.0187 -0.3807
 4516TIP3    H135039   1.485   3.611   5.723 -0.1865 -0.4948 -0.0291
 4516TIP3    H235040   1.363   3.625   5.813  0.7237 -0.6445  1.2506
 4517TIP3   OH235041   5.794   3.945  11.108 -0.4511 -0.0963  0.0068
 4517TIP3    H135042   5.863   3.967  11.045  0.2233 -0.4350  0.6111
 4517TIP3    H235043   5.745   3.873  11.067  0.1907 -0.5388  0.0003
 4518TIP3   OH235044   1.195   0.838   3.916 -0.0627  0.2864  0.0971
 4518TIP3    H135045   1.223   0.927   3.938 -1.1015  0.7183 -0.2729
 4518TIP3    H235046   1.272   0.799   3.874  1.0510  0.3350  1.9685
 4519TIP3   OH235047   5.851   3.512   1.719  0.1222  0.3046  0.0510
 4519TIP3    H135048   5.845   3.486   1.811 -2.2537  1.8484  0.4068
 4519TIP3    H235049   5.869   3.606   1.722 -3.1264  1.0701 -0.9115
 4520TIP3   OH235050   2.081   3.365  11.785 -0.5930  0.4797  0.3697
 4520TIP3    H135051   2.054   3.274  11.774 -1.0383  0.4601  1.5288
 4520TIP3    H235052   2.007   3.416  11.752  0.1908  0.4608 -1.5579
 4521TIP3   OH235053   6.148   4.724  11.840 -0.0274  0.4350  0.3633
 4521TIP3    H135054   6.071   4.774  11.814 -0.9188 -1.2389 -0.3369
 4521TIP3    H235055   6.203   4.788  11.886 -1.0544  2.0686 -0.5603
 4522TIP3   OH235056   5.365   5.545  14.807  0.2657  0.6254  0.4916
 4522TIP3    H135057   5.358   5.451  14.826 -0.7182  0.5910 -0.0073
 4522TIP3    H235058   5.458   5.558  14.787  0.5674 -0.0881  1.3282
 4523TIP3   OH235059   1.678   1.790   1.570  0.4903  0.3622  0.3626
 4523TIP3    H135060   1.770   1.802   1.548  0.6074 -0.5730  0.3337
 4523TIP3    H235061   1.638   1.759   1.489 -0.0508  1.6819  0.1002
 4524TIP3   OH235062   2.802   1.089   6.266 -0.0726 -0.0015  0.1201
 4524TIP3    H135063   2.786   1.114   6.357 -0.1138  2.4358 -0.4991
 4524TIP3    H235064   2.860   1.156   6.232 -1.3143  0.0564 -2.0908
 4525TIP3   OH235065   0.057   5.859   3.370  0.5806 -0.2649  0.1933
 4525TIP3    H135066   0.111   5.938   3.374  2.5969 -1.5915  1.5714
 4525TIP3    H235067   0.025   5.847   3.459 -0.9816 -0.2083 -0.3355
 4526TIP3   OH235068   1.490   6.124  12.913  1.2330  0.3997  0.6242
 4526TIP3    H135069   1.549   6.106  12.987  3.7882 -2.1874 -1.8177
 4526TIP3    H235070   1.497   6.047  12.857 -1.3155  1.8346 -1.9226
 4527TIP3   OH235071   4.605   3.439  13.965  0.0543  0.7103 -0.2645
 4527TIP3    H135072   4.545   3.388  14.020 -0.0225  0.3338 -0.6897
 4527TIP3    H235073   4.652   3.495  14.027  0.2458  0.0138  0.2359
 4528TIP3   OH235074   5.039   5.457  11.852 -0.5398  0.2312  0.4254
 4528TIP3    H135075   4.978   5.457  11.926 -0.1013 -2.0883  0.8737
 4528TIP3    H235076   5.124   5.477  11.891 -0.5699  0.6640  0.2690
 4529TIP3   OH235077   0.917   3.032   3.221 -0.0898  0.0429 -0.4417
 4529TIP3    H135078   0.863   3.033   3.300  0.3113 -0.4811 -0.1545
 4529TIP3    H235079   0.936   2.939   3.207 -0.1317  0.1350 -1.1339
 4530TIP3   OH235080   5.066   0.931  15.472  0.0899  0.0712  0.1624
 4530TIP3    H135081   5.065   0.995  15.544  1.3490 -0.1669  0.4027
 4530TIP3    H235082   5.105   0.853  15.510  0.6159 -0.1171 -0.7433
 4531TIP3   OH235083   2.982   4.309   5.550 -0.4166 -0.2430  0.0680
 4531TIP3    H135084   3.051   4.255   5.588  0.9475 -0.2740 -2.2693
 4531TIP3    H235085   2.909   4.247   5.537 -0.0575 -0.7550  0.4357
 4532TIP3   OH235086   1.772   1.710  11.352 -0.4510 -0.6354 -0.0786
 4532TIP3    H135087   1.746   1.670  11.269 -2.2067  0.3794 -0.0588
 4532TIP3    H235088   1.830   1.645  11.392 -4.7020 -4.3422  0.9129
 4533TIP3   OH235089   0.383   3.046   4.069 -0.1695 -0.6409 -0.3128
 4533TIP3    H135090   0.448   2.977   4.082  0.4376 -0.1580 -0.7376
 4533TIP3    H235091   0.332   3.016   3.994 -1.6938 -1.9377  1.1610
 4534TIP3   OH235092   5.440   3.088  15.637 -0.1748  0.3770 -0.2325
 4534TIP3    H135093   5.456   2.995  15.621  1.2539  0.6555 -0.6200
 4534TIP3    H235094   5.350   3.092  15.668  0.2797 -1.3203  1.4813
 4535TIP3   OH235095   0.512   2.019   3.515 -0.5807 -0.2021  0.1123
 4535TIP3    H135096   0.556   2.074   3.450  1.1402 -1.3350  0.2571
 4535TIP3    H235097   0.467   2.081   3.573 -2.1585  0.8326 -2.0980
 4536TIP3   OH235098   3.147   3.763   5.836 -0.1039 -0.6251  0.1886
 4536TIP3    H135099   3.088   3.692   5.861 -1.6096  0.2773 -0.6868
 4536TIP3    H235100   3.206   3.724   5.771 -1.3570 -0.9339 -0.7950
 4537TIP3   OH235101   0.467   6.697   2.124  0.2158  0.0393  0.5804
 4537TIP3    H135102   0.373   6.689   2.142  0.5555  0.6967  2.9172
 4537TIP3    H235103   0.472   6.697   2.028 -2.0134 -1.4572  0.3784
 4538TIP3   OH235104   1.202   3.493  14.992  0.1426  0.5072  0.0064
 4538TIP3    H135105   1.154   3.545  15.057  0.5542  1.7475 -0.6452
 4538TIP3    H235106   1.157   3.409  14.990 -1.8344  1.5298 -0.4115
 4539TIP3   OH235107   4.317   6.097   4.557 -0.0148  0.6223  0.2509
 4539TIP3    H135108   4.278   6.062   4.477  0.2785  1.0388 -0.0825
 4539TIP3    H235109   4.349   6.184   4.532  0.1199  0.7391  0.8089
 4540TIP3   OH235110   1.166   1.100  11.483 -0.1910  0.2517  0.0161
 4540TIP3    H135111   1.233   1.031  11.487 -0.4240 -0.2090 -2.5504
 4540TIP3    H235112   1.085   1.053  11.465 -0.1876  1.1695 -2.8779
 4541TIP3   OH235113   4.068   2.001   4.129  0.4281 -0.0632 -0.1905
 4541TIP3    H135114   4.007   1.947   4.178 -1.4344  1.3373 -0.8586
 4541TIP3    H235115   4.080   1.954   4.046  0.7205 -0.6252  0.1647
 4542TIP3   OH235116   3.552   4.124   0.270  0.0188 -0.2954 -0.7967
 4542TIP3    H135117   3.493   4.049   0.281  1.6328 -1.4288  0.5213
 4542TIP3    H235118   3.636   4.086   0.246  0.5238  1.2254 -1.6152
 4543TIP3   OH235119   1.495   1.311  13.951  0.2581  0.4031  0.0593
 4543TIP3    H135120   1.425   1.335  14.012 -0.0231 -0.5337  0.1251
 4543TIP3    H235121   1.458   1.239  13.900  0.1190  1.7974 -1.9178
 4544TIP3   OH235122   5.646   5.100   5.269 -0.0818 -0.2405  0.0117
 4544TIP3    H135123   5.665   5.194   5.281  0.0205 -0.0465 -1.4713
 4544TIP3    H235124   5.726   5.056   5.299  0.4268  0.2362 -0.6223
 4545TIP3   OH235125   1.469   4.387  15.481 -0.0400 -0.0675 -0.2769
 4545TIP3    H135126   1.401   4.320  15.465 -0.1030 -0.0949  0.1055
 4545TIP3    H235127   1.551   4.341  15.467 -0.0815 -0.2481  0.0634
 4546TIP3   OH235128   1.067   0.790  10.785  0.2190 -0.0904 -0.4645
 4546TIP3    H135129   1.028   0.703  10.794  0.4002 -0.0627  0.6969
 4546TIP3    H235130   1.161   0.772  10.772  0.4217 -0.0479  0.8738
 4547TIP3   OH235131   1.468   3.800  16.952  0.2733 -0.4333  0.0221
 4547TIP3    H135132   1.536   3.742  16.918  0.0440 -0.0616 -1.1059
 4547TIP3    H235133   1.426   3.836  16.875  1.6968  2.8293  0.5983
 4548TIP3   OH235134   0.859   5.098   3.618 -0.0976  0.0196 -0.2198
 4548TIP3    H135135   0.820   5.051   3.544  0.9936 -0.3637 -0.5784
 4548TIP3    H235136   0.788   5.106   3.681 -0.6654 -0.9556 -0.6964
 4549TIP3   OH235137   2.161   3.200   1.654  0.1225  0.3548  0.2355
 4549TIP3    H135138   2.197   3.289   1.648 -1.6760  1.1458  0.5191
 4549TIP3    H235139   2.208   3.160   1.726 -1.2623  2.2503  2.3236
 4550TIP3   OH235140   0.828   0.093  15.403 -0.3350 -0.3355  0.2834
 4550TIP3    H135141   0.811   0.184  15.428 -1.9086 -0.2212 -1.0381
 4550TIP3    H235142   0.830   0.046  15.486  1.7959  1.0574  1.1058
 4551TIP3   OH235143   5.523   5.848  16.532  0.1361  0.2747 -0.2978
 4551TIP3    H135144   5.520   5.902  16.453 -0.0491  0.2851 -0.2855
 4551TIP3    H235145   5.616   5.838  16.552  0.2973 -1.4892 -1.7204
 4552TIP3   OH235146   2.191   6.561  14.315 -0.3468  0.0798 -0.0625
 4552TIP3    H135147   2.210   6.618  14.241  1.4395 -0.1790  0.1693
 4552TIP3    H235148   2.184   6.620  14.390  1.2985  0.0432  0.1431
 4553TIP3   OH235149   1.566   1.125   4.761 -0.3073  0.5217  0.2894
 4553TIP3    H135150   1.618   1.114   4.841 -1.3190  2.0397  1.2098
 4553TIP3    H235151   1.491   1.066   4.773  0.0532 -0.0117 -0.0268
 4554TIP3   OH235152   4.557   4.912  11.812  0.1379  0.3667  0.4963
 4554TIP3    H135153   4.637   4.890  11.860  0.3877  0.1993  0.0069
 4554TIP3    H235154   4.530   4.996  11.849 -0.3915 -0.3729  1.8281
 4555TIP3   OH235155   2.332   0.033   4.756 -0.0547  0.3070  0.1916
 4555TIP3    H135156   2.346  -0.021   4.833  1.7372  1.4423  0.7343
 4555TIP3    H235157   2.269   0.099   4.783 -2.5761 -1.6176 -0.5965
 4556TIP3   OH235158   5.406   0.941  14.706  0.2279 -0.4561  0.2859
 4556TIP3    H135159   5.403   0.986  14.621 -0.1508  0.8659  0.9815
 4556TIP3    H235160   5.337   0.981  14.757  0.1737 -1.5457  1.0962
 4557TIP3   OH235161   0.597   0.940   5.426  0.2895  0.6102 -0.6952
 4557TIP3    H135162   0.520   0.958   5.481  0.5745 -0.5105  0.1037
 4557TIP3    H235163   0.659   1.009   5.449 -0.0490  0.8510 -0.4969
 4558TIP3   OH235164   2.612   0.763   3.447  0.2144  0.5297  0.9517
 4558TIP3    H135165   2.622   0.758   3.352 -0.3250  3.1003  0.6993
 4558TIP3    H235166   2.545   0.698   3.467  2.1085 -1.9290  0.0034
 4559TIP3   OH235167   1.593   3.928   2.183 -0.3641 -0.2915 -0.0742
 4559TIP3    H135168   1.635   3.843   2.174 -2.8038 -1.6807  0.6493
 4559TIP3    H235169   1.664   3.988   2.208  1.4043 -2.1056 -0.5182
 4560TIP3   OH235170   1.399   1.033   3.226  0.4935  0.1919 -0.2956
 4560TIP3    H135171   1.345   1.043   3.147 -0.5424 -0.0670  0.3614
 4560TIP3    H235172   1.445   0.950   3.213  1.6124  0.9441 -1.3600
 4561TIP3   OH235173   0.377   3.538  14.625 -0.8899 -0.3665 -0.6293
 4561TIP3    H135174   0.354   3.461  14.573  0.3924 -0.2459 -1.4139
 4561TIP3    H235175   0.460   3.515  14.667 -1.5253 -0.1666  0.7679
 4562TIP3   OH235176   5.208   4.109   3.426 -0.1501  0.0466  0.1286
 4562TIP3    H135177   5.171   4.067   3.503 -0.6732  0.2523 -0.0050
 4562TIP3    H235178   5.239   4.037   3.371 -1.8258 -0.2357 -0.5020
 4563TIP3   OH235179   2.884   6.784   3.360 -0.0819  0.4837 -0.3590
 4563TIP3    H135180   2.879   6.790   3.455 -0.1911 -0.0363 -0.3247
 4563TIP3    H235181   2.844   6.699   3.340  0.2927  0.4125 -0.8341
 4564TIP3   OH235182   3.202   1.697  15.870 -0.0505 -0.4028 -0.3710
 4564TIP3    H135183   3.118   1.718  15.910  0.0725 -0.0280 -0.3067
 4564TIP3    H235184   3.184   1.693  15.777 -0.4074 -1.5938 -0.2694
 4565TIP3   OH235185   2.111   3.878   4.678 -0.1686 -0.1254  0.7620
 4565TIP3    H135186   2.139   3.888   4.769 -1.9222  1.4759  1.1857
 4565TIP3    H235187   2.109   3.967   4.643 -0.9008 -0.5660 -0.3926
 4566TIP3   OH235188   3.686   3.541  14.257 -0.1320 -0.4118  0.2763
 4566TIP3    H135189   3.623   3.529  14.186 -0.9625  0.3464  0.8541
 4566TIP3    H235190   3.765   3.575  14.215 -0.5619 -0.1169 -0.2929
 4567TIP3   OH235191   4.951   1.841   2.073  0.3661  0.2499  0.5270
 4567TIP3    H135192   4.927   1.762   2.122 -0.6293  1.1551  1.5471
 4567TIP3    H235193   4.871   1.866   2.028  0.1753  1.6305  1.5809
 4568TIP3   OH235194   2.120   4.831   3.888  0.1792 -0.6118  0.2697
 4568TIP3    H135195   2.081   4.917   3.904  0.1051 -0.7323  0.7534
 4568TIP3    H235196   2.125   4.790   3.974  0.2106 -1.0977  0.0428
 4569TIP3   OH235197   6.249   5.547  17.271 -0.5470  0.1799  0.3545
 4569TIP3    H135198   6.260   5.600  17.193  1.0486 -0.0649  0.3873
 4569TIP3    H235199   6.155   5.552  17.290 -0.9409  0.3978 -1.4516
 4570TIP3   OH235200   3.874   1.040  16.635 -0.3375  0.6983 -0.3973
 4570TIP3    H135201   3.923   0.959  16.652  1.9621  2.1664  0.3906
 4570TIP3    H235202   3.786   1.021  16.667  0.6950 -0.7834  1.8892
 4571TIP3   OH235203   1.754   6.618  14.862 -0.0797 -0.1913 -0.5368
 4571TIP3    H135204   1.822   6.556  14.835  0.0727  0.1321 -0.9001
 4571TIP3    H235205   1.674   6.586  14.820 -0.2504 -0.8274  0.2490
 4572TIP3   OH235206   4.851   2.975  16.169  0.0993  0.1815 -0.2320
 4572TIP3    H135207   4.881   3.053  16.121  0.9740 -0.6319 -1.0382
 4572TIP3    H235208   4.890   2.902  16.122  1.0257 -0.6594  1.7501
 4573TIP3   OH235209   0.427   5.793   1.620  0.1074  0.4497 -0.0078
 4573TIP3    H135210   0.351   5.792   1.678  0.3354  0.9616  0.3142
 4573TIP3    H235211   0.497   5.755   1.673  0.4345  1.3603  0.2385
 4574TIP3   OH235212   3.807   3.580  10.470  0.2431 -0.0249  0.0621
 4574TIP3    H135213   3.899   3.558  10.453 -0.0276  0.1193 -1.7779
 4574TIP3    H235214   3.758   3.500  10.447 -0.3156  0.8324 -1.9569
 4575TIP3   OH235215   2.196   0.521  14.877 -0.3588 -0.0899 -0.0083
 4575TIP3    H135216   2.180   0.615  14.869 -0.9122 -0.1798  0.0088
 4575TIP3    H235217   2.292   0.513  14.882 -0.3593  0.6957  2.7204
 4576TIP3   OH235218   2.566   0.541   2.401  0.3143 -0.1221  0.5144
 4576TIP3    H135219   2.516   0.616   2.369  0.4916 -0.1108  0.2591
 4576TIP3    H235220   2.500   0.481   2.436  0.1389 -0.0266  0.3482
 4577TIP3   OH235221   2.993   0.232  14.472  0.0831  0.6165  0.2375
 4577TIP3    H135222   3.074   0.272  14.440  1.2296 -1.5031  0.2883
 4577TIP3    H235223   3.022   0.157  14.523 -1.9412 -1.0542 -0.9061
 4578TIP3   OH235224   4.563   5.423  11.893 -0.0096 -0.4652 -0.5204
 4578TIP3    H135225   4.607   5.504  11.867 -1.0512  0.0620 -0.6920
 4578TIP3    H235226   4.598   5.404  11.980  0.7669 -0.2254 -0.7705
 4579TIP3   OH235227   3.782   2.837  11.432 -0.1519  0.1305  0.4912
 4579TIP3    H135228   3.802   2.760  11.379 -2.4530 -0.0463 -0.2227
 4579TIP3    H235229   3.845   2.903  11.404 -0.5678 -0.3254 -1.6574
 4580TIP3   OH235230   6.610   2.714  11.238 -0.0776  0.2128  0.0480
 4580TIP3    H135231   6.578   2.789  11.288 -0.3521  0.7696 -0.9562
 4580TIP3    H235232   6.668   2.752  11.172 -0.5477 -0.4079 -0.7365
 4581TIP3   OH235233   5.505   2.413  10.757 -0.0239  0.0222  0.7060
 4581TIP3    H135234   5.495   2.492  10.704  1.3621  0.0730  0.4591
 4581TIP3    H235235   5.535   2.445  10.842  0.4358 -0.2219  0.6383
 4582TIP3   OH235236   2.097   1.540  13.553 -0.0333 -0.0577  0.5472
 4582TIP3    H135237   2.112   1.452  13.589  2.4067  1.0320  2.4993
 4582TIP3    H235238   2.106   1.599  13.628 -3.1894  1.8775 -0.3665
 4583TIP3   OH235239   1.617   0.412   1.830 -0.0948  0.0025 -0.1702
 4583TIP3    H135240   1.658   0.327   1.844  0.0124  0.3327  1.7807
 4583TIP3    H235241   1.524   0.397   1.848  0.2264  0.7084  2.4198
 4584TIP3   OH235242   5.928   1.077   3.608 -0.1998  0.5945  0.2548
 4584TIP3    H135243   6.012   1.116   3.582 -0.3343  0.9501  0.3558
 4584TIP3    H235244   5.862   1.135   3.571 -0.4136 -0.0954 -0.4684
 4585TIP3   OH235245   3.864   1.370   1.239 -0.4829  0.4156 -0.1331
 4585TIP3    H135246   3.836   1.434   1.173 -0.2617  0.2958 -0.3455
 4585TIP3    H235247   3.916   1.306   1.190  1.2671  1.3285  0.4516
 4586TIP3   OH235248   5.292   0.469   1.694  0.0133 -0.4630 -0.2863
 4586TIP3    H135249   5.218   0.426   1.736 -1.3397  1.9997  0.0964
 4586TIP3    H235250   5.261   0.488   1.605  0.7882 -0.8017 -0.6318
 4587TIP3   OH235251   0.356   3.852   1.324  0.0289 -0.0464  0.0247
 4587TIP3    H135252   0.349   3.804   1.407 -1.1075  0.4363  0.2299
 4587TIP3    H235253   0.449   3.876   1.318  0.5883 -2.0805 -0.0050
 4588TIP3   OH235254   4.895   0.317  15.286  0.2360  0.3174  0.5668
 4588TIP3    H135255   4.856   0.230  15.299 -0.0641  0.3985  0.2047
 4588TIP3    H235256   4.876   0.339  15.195  1.2524  0.2975  0.3330
 4589TIP3   OH235257   0.126   5.251   2.079 -0.3466 -0.4495  0.1730
 4589TIP3    H135258   0.220   5.267   2.086 -0.1522 -0.7291 -1.4678
 4589TIP3    H235259   0.098   5.304   2.005 -1.4186 -0.6386  0.4263
 4590TIP3   OH235260   0.819   4.684  13.211 -0.0508  0.3706  0.3264
 4590TIP3    H135261   0.907   4.721  13.203 -0.4204  1.5183  1.2775
 4590TIP3    H235262   0.761   4.760  13.210 -0.9692 -0.3074  0.6366
 4591TIP3   OH235263   0.512   6.462   1.176  0.4864 -0.0098  0.1220
 4591TIP3    H135264   0.548   6.481   1.089  2.3975 -2.1511  0.3421
 4591TIP3    H235265   0.496   6.368   1.176 -0.0717  0.0428  1.8786
 4592TIP3   OH235266   3.156   3.854   5.090  0.3013  0.6734  0.0732
 4592TIP3    H135267   3.142   3.930   5.034  3.4669  0.5008 -1.1650
 4592TIP3    H235268   3.179   3.890   5.175 -0.2331  1.0132  0.0825
 4593TIP3   OH235269   5.080   6.594   3.772 -0.8004 -0.4301  0.2206
 4593TIP3    H135270   5.171   6.567   3.783 -0.6274  0.2877  0.5932
 4593TIP3    H235271   5.077   6.684   3.806 -0.9514  0.7435 -2.6387
 4594TIP3   OH235272   0.662   6.317  14.541  0.0235 -0.2060  0.5216
 4594TIP3    H135273   0.747   6.348  14.511 -0.5873  2.8177  1.5238
 4594TIP3    H235274   0.648   6.234  14.495  3.0193 -0.2888 -0.4161
 4595TIP3   OH235275   6.770   3.220  15.607 -0.1257  0.3047  0.4099
 4595TIP3    H135276   6.700   3.267  15.653  0.5533  0.5110  1.2613
 4595TIP3    H235277   6.846   3.228  15.665  0.4140 -0.5224 -0.1671
 4596TIP3   OH235278   1.167   3.542   2.279 -0.5619 -0.2489  0.0270
 4596TIP3    H135279   1.166   3.607   2.350 -0.0986  1.3558 -1.3572
 4596TIP3    H235280   1.082   3.498   2.286 -2.1798  2.5087 -0.6940
 4597TIP3   OH235281   2.263   2.548   5.362 -0.0794  0.2626 -0.0361
 4597TIP3    H135282   2.333   2.512   5.308 -0.2798 -1.4594  0.7769
 4597TIP3    H235283   2.249   2.636   5.328  1.7351  0.2581 -0.9095
 4598TIP3   OH235284   5.388   0.718  14.020  0.5943  0.0052  0.5160
 4598TIP3    H135285   5.397   0.731  13.926  1.0478  0.6823  0.6463
 4598TIP3    H235286   5.466   0.758  14.058  0.7539 -0.8609  1.1375
 4599TIP3   OH235287   3.856   2.437  16.388  0.1479 -0.4714 -0.0999
 4599TIP3    H135288   3.809   2.501  16.441  0.6913 -0.2207  0.0811
 4599TIP3    H235289   3.891   2.375  16.452 -1.2792 -1.5752 -0.3361
 4600TIP3   OH235290   3.027   0.321  15.847 -0.6906 -0.3362  0.1463
 4600TIP3    H135291   3.036   0.409  15.882 -0.5410  0.0348 -0.7917
 4600TIP3    H235292   3.111   0.278  15.867 -1.0542 -0.5447  1.3086
 4601TIP3   OH235293   3.930   2.260   5.250  0.1599  0.0421 -0.0655
 4601TIP3    H135294   3.969   2.323   5.189  1.3399 -0.4363  0.1614
 4601TIP3    H235295   3.985   2.266   5.328  0.1045 -1.0435  0.0666
 4602TIP3   OH235296   5.311   1.046  16.814  1.0744  0.5667  0.3094
 4602TIP3    H135297   5.216   1.051  16.820  1.1493  2.8892  0.1922
 4602TIP3    H235298   5.338   1.000  16.893 -0.1063 -0.0556  0.3798
 4603TIP3   OH235299   3.616   2.566   1.525 -0.1675 -0.5004 -0.1567
 4603TIP3    H135300   3.535   2.602   1.490 -0.4293 -0.8174  0.1068
 4603TIP3    H235301   3.616   2.474   1.497  0.4168 -0.3427 -0.6946
 4604TIP3   OH235302   5.057   3.554   3.236  0.2091 -0.0134 -0.5824
 4604TIP3    H135303   5.054   3.649   3.235  0.4140 -0.0001 -0.1853
 4604TIP3    H235304   5.000   3.528   3.308  3.0785 -0.0286  1.8558
 4605TIP3   OH235305   6.781   0.167  14.537 -0.2044 -0.0490  0.0463
 4605TIP3    H135306   6.765   0.177  14.631  0.7604 -0.3844  0.2484
 4605TIP3    H235307   6.715   0.103  14.509 -0.1364 -0.3724  0.5984
 4606TIP3   OH235308   0.577   0.278   0.497 -0.0559  0.6457  0.2810
 4606TIP3    H135309   0.595   0.204   0.555 -1.2128 -0.3381 -0.5623
 4606TIP3    H235310   0.491   0.310   0.526  0.4406  1.7043  0.6520
 4607TIP3   OH235311   2.189   3.624  13.724 -0.0354  0.2625 -0.1123
 4607TIP3    H135312   2.273   3.649  13.684 -0.4630 -0.4467 -1.5241
 4607TIP3    H235313   2.135   3.702  13.716  0.2989  0.5326  0.2504
 4608TIP3   OH235314   2.892   6.206   1.316 -0.1581  0.2460 -0.1196
 4608TIP3    H135315   2.958   6.143   1.342  0.1751  0.3597 -0.6722
 4608TIP3    H235316   2.939   6.290   1.314 -0.2120  0.2609 -0.9218
 4609TIP3   OH235317   2.462   3.480   2.679  0.1505 -0.0374  0.4412
 4609TIP3    H135318   2.423   3.550   2.627 -1.1959 -0.6652  0.5543
 4609TIP3    H235319   2.453   3.509   2.769  2.9263  1.2741  0.3858
 4610TIP3   OH235320   0.854   6.293  15.117  0.5964  0.1013 -0.1691
 4610TIP3    H135321   0.821   6.293  15.027  0.8976  2.9520 -0.3821
 4610TIP3    H235322   0.944   6.325  15.109  0.2049  1.6753  1.2109
 4611TIP3   OH235323   5.132   3.413  16.881 -0.0445 -0.1368 -0.5051
 4611TIP3    H135324   5.133   3.333  16.933 -1.0956  1.1042  1.5256
 4611TIP3    H235325   5.045   3.415  16.842  0.2752 -0.3823 -1.2526
 4612TIP3   OH235326   2.554   6.453   1.757  0.4643 -0.0419  0.3158
 4612TIP3    H135327   2.463   6.437   1.734 -0.0816  0.9036  1.6893
 4612TIP3    H235328   2.600   6.455   1.673 -1.3051  2.6378 -0.7106
 4613TIP3   OH235329   3.880   2.530   5.568 -0.2677  0.3983  0.0501
 4613TIP3    H135330   3.897   2.605   5.511 -1.4050 -0.4042 -1.4273
 4613TIP3    H235331   3.919   2.455   5.523  1.6782  0.1850  1.9674
 4614TIP3   OH235332   4.601   3.512   4.536 -0.1486 -0.0557  0.3735
 4614TIP3    H135333   4.686   3.537   4.573  0.2137  0.1314 -0.5731
 4614TIP3    H235334   4.537   3.553   4.595  0.4079  0.0524  0.9223
 4615TIP3   OH235335   4.382   0.081  15.760  0.2495  0.4727  0.4956
 4615TIP3    H135336   4.359  -0.005  15.795  0.1134  0.3986  0.2265
 4615TIP3    H235337   4.302   0.113  15.718  0.5348  0.3629 -0.1430
 4616TIP3   OH235338   6.590   0.145  13.133  0.1667 -0.3416 -0.1485
 4616TIP3    H135339   6.632   0.061  13.111 -0.6360 -0.8992  0.3690
 4616TIP3    H235340   6.657   0.194  13.181 -0.2147 -1.8793  2.1434
 4617TIP3   OH235341   6.246   3.672   4.221 -0.5906 -0.0656 -0.0174
 4617TIP3    H135342   6.331   3.684   4.264  0.8132 -0.7623 -2.4430
 4617TIP3    H235343   6.266   3.667   4.128 -3.4225  0.6874 -0.7723
 4618TIP3   OH235344   0.746   0.952  16.736 -0.3470  0.1376  0.1565
 4618TIP3    H135345   0.788   1.025  16.690 -0.1346  0.9796  1.6203
 4618TIP3    H235346   0.653   0.976  16.739 -0.1590  0.7984  1.3732
 4619TIP3   OH235347   5.535   1.767  16.104 -0.2727  0.2574  0.2484
 4619TIP3    H135348   5.596   1.733  16.169 -1.2978  1.5950  1.9906
 4619TIP3    H235349   5.558   1.721  16.023  0.8942 -1.6411  1.5828
 4620TIP3   OH235350   1.435   0.900  15.187 -0.3647  0.4094 -0.3523
 4620TIP3    H135351   1.409   0.826  15.132 -0.3178 -0.2230  0.4525
 4620TIP3    H235352   1.367   0.905  15.254  1.5500 -1.3898  1.9117
 4621TIP3   OH235353   0.325   5.266  14.313 -0.2293 -0.0388 -0.2386
 4621TIP3    H135354   0.316   5.266  14.218  1.1389 -1.7870 -0.4009
 4621TIP3    H235355   0.274   5.342  14.341 -0.9363  0.3263 -2.3226
 4622TIP3   OH235356   1.899   6.413  13.347  0.0725  0.2362  0.4414
 4622TIP3    H135357   1.835   6.380  13.284  1.7629  0.5669 -1.5649
 4622TIP3    H235358   1.980   6.366  13.325  1.1963  1.8079  1.0711
 4623TIP3   OH235359   2.301   6.808   0.463 -0.6778 -0.0289  0.0578
 4623TIP3    H135360   2.323   6.771   0.377  1.4042 -1.0480  0.9616
 4623TIP3    H235361   2.225   6.757   0.492 -0.7020 -0.4316 -0.6855
 4624TIP3   OH235362   4.788   4.343   2.334  0.0176  0.3404 -0.0767
 4624TIP3    H135363   4.742   4.425   2.355  1.2924  0.8258  0.9423
 4624TIP3    H235364   4.720   4.287   2.297 -0.7194  2.1560 -1.6562
 4625TIP3   OH235365   0.097   6.299   1.848 -0.1729 -0.5701 -0.3801
 4625TIP3    H135366   0.051   6.251   1.778  1.1391 -2.1796 -0.2119
 4625TIP3    H235367   0.183   6.319   1.811 -0.4069  0.9718 -0.1383
 4626TIP3   OH235368   4.505   0.232   3.755 -0.2510 -0.1699  0.2097
 4626TIP3    H135369   4.424   0.191   3.725 -0.3395 -1.0215  1.5420
 4626TIP3    H235370   4.542   0.272   3.676 -1.3059 -0.8753 -0.6757
 4627TIP3   OH235371   4.486   5.749   5.451  0.3724  0.5506  0.2870
 4627TIP3    H135372   4.408   5.705   5.417  0.5516 -0.2863  0.9173
 4627TIP3    H235373   4.505   5.818   5.387 -0.9592  0.8641  0.1987
 4628TIP3   OH235374   0.276   3.126   0.477 -1.2042  0.2683  0.1309
 4628TIP3    H135375   0.249   3.066   0.546 -0.8828  0.3138  0.2985
 4628TIP3    H235376   0.366   3.101   0.456 -1.4884 -0.1240 -0.6864
 4629TIP3   OH235377   5.000   0.833  10.926 -0.0910  0.0633  0.1390
 4629TIP3    H135378   5.059   0.907  10.913  1.2856 -0.8289  1.0019
 4629TIP3    H235379   4.926   0.850  10.867  1.4610  0.7676 -1.7140
 4630TIP3   OH235380   3.608   2.618  11.702  0.3315 -0.8169  0.2511
 4630TIP3    H135381   3.656   2.565  11.639  2.6310  0.4848  0.7825
 4630TIP3    H235382   3.653   2.703  11.701 -2.0833  0.5399  0.7247
 4631TIP3   OH235383   5.180   6.750  16.020 -0.2105 -0.1599 -0.1488
 4631TIP3    H135384   5.122   6.767  15.947  0.1726  1.0341 -0.1909
 4631TIP3    H235385   5.255   6.704  15.981 -0.0892  0.3140 -0.4763
 4632TIP3   OH235386   0.807   5.568  13.951  0.3742  0.1696  0.1652
 4632TIP3    H135387   0.809   5.556  13.856  0.4102 -0.0840  0.1953
 4632TIP3    H235388   0.836   5.657  13.966  1.9604 -0.3006  0.0258
 4633TIP3   OH235389   2.686   1.557   3.276 -0.3053  0.0599 -0.6105
 4633TIP3    H135390   2.746   1.560   3.350 -0.6216  2.9027 -0.3740
 4633TIP3    H235391   2.737   1.514   3.206  1.3727  0.7763  0.1168
 4634TIP3   OH235392   3.314   6.330  15.103  0.9441 -0.3185  0.5287
 4634TIP3    H135393   3.232   6.283  15.089  0.1839  1.3401 -0.9937
 4634TIP3    H235394   3.376   6.288  15.044  1.2082 -1.5021  1.5990
 4635TIP3   OH235395   4.726   2.153   4.704  0.0804  1.1330  0.1243
 4635TIP3    H135396   4.764   2.137   4.791 -0.9172  0.7085  0.4993
 4635TIP3    H235397   4.715   2.248   4.699  2.2469  1.4081 -0.4689
 4636TIP3   OH235398   1.411   3.052   3.861  0.6732 -0.1662  0.1849
 4636TIP3    H135399   1.330   3.104   3.865  1.4848  1.3865 -1.6715
 4636TIP3    H235400   1.465   3.085   3.933  0.4264  0.2181  0.1980
 4637TIP3   OH235401   4.952   6.646  10.586 -0.8682  0.3878 -0.3790
 4637TIP3    H135402   5.020   6.614  10.646 -0.5128  1.3068 -0.2737
 4637TIP3    H235403   4.917   6.567  10.546  0.6094 -0.0911 -0.8102
 4638TIP3   OH235404   2.318   3.948   0.583  0.2519 -0.0798 -0.1779
 4638TIP3    H135405   2.244   4.008   0.587 -1.1817 -1.6867 -1.1474
 4638TIP3    H235406   2.290   3.879   0.523  2.2676 -1.1361 -0.0006
 4639TIP3   OH235407   5.952   4.367  10.981 -0.0245  0.5955 -0.9331
 4639TIP3    H135408   6.028   4.348  11.036 -1.2153 -2.9809 -0.2852
 4639TIP3    H235409   5.901   4.429  11.032  0.1132 -0.7541  0.9490
 4640TIP3   OH235410   6.554   4.468   2.456  0.0175  0.2362 -0.1278
 4640TIP3    H135411   6.531   4.377   2.437 -1.9359  0.1519  2.1816
 4640TIP3    H235412   6.580   4.505   2.371 -0.3157 -2.1265 -1.3335
 4641TIP3   OH235413   6.538   2.275   0.498 -0.0358  0.2774  0.5329
 4641TIP3    H135414   6.602   2.206   0.511  1.1029  1.2204  0.1162
 4641TIP3    H235415   6.590   2.354   0.481 -1.2958  0.6364 -2.2214
 4642TIP3   OH235416   4.098   4.265  10.843  0.3337  0.1974  0.2843
 4642TIP3    H135417   4.100   4.189  10.785 -1.5820  0.6572 -0.4399
 4642TIP3    H235418   4.089   4.340  10.784 -1.7551  0.6715  1.1421
 4643TIP3   OH235419   0.444   3.186  14.276 -0.0311  0.7932 -0.0558
 4643TIP3    H135420   0.425   3.247  14.205  2.2834  0.8202 -0.7322
 4643TIP3    H235421   0.532   3.211  14.306  0.2450 -1.0788  0.8308
 4644TIP3   OH235422   6.191   1.016  15.662  0.3348  0.5583  0.5532
 4644TIP3    H135423   6.170   0.999  15.570  2.3857  0.5645  0.0364
 4644TIP3    H235424   6.124   1.078  15.690 -0.2071  0.7293 -1.0078
 4645TIP3   OH235425   1.200   5.119   0.243 -0.2773 -0.0156  0.1084
 4645TIP3    H135426   1.243   5.034   0.249  0.0416  0.1482  0.1800
 4645TIP3    H235427   1.247   5.164   0.172  1.2182  1.0389  1.6802
 4646TIP3   OH235428   6.444   6.507  11.932 -0.0614 -0.4957  0.2008
 4646TIP3    H135429   6.512   6.455  11.976 -0.4032 -1.3396 -0.2418
 4646TIP3    H235430   6.370   6.505  11.993  0.4542  0.8354  0.9056
 4647TIP3   OH235431   2.131   1.837   0.719  0.0429  0.1100 -0.4938
 4647TIP3    H135432   2.190   1.904   0.753 -1.9070  0.3556  2.8345
 4647TIP3    H235433   2.185   1.759   0.710  1.3433  0.8990  0.2595
 4648TIP3   OH235434   0.829   0.128   3.796 -0.5028  0.2940  0.1975
 4648TIP3    H135435   0.875   0.074   3.860 -1.1234  0.2610  0.6142
 4648TIP3    H235436   0.753   0.076   3.770 -0.5832  0.5610 -0.1121
 4649TIP3   OH235437   0.556   2.188   0.497  0.2795 -0.4424  0.1015
 4649TIP3    H135438   0.635   2.135   0.505  1.0450  0.7882  0.9121
 4649TIP3    H235439   0.559   2.249   0.570  0.3343  1.8826 -1.7062
 4650TIP3   OH235440   2.533   3.183   3.798 -0.0245 -0.0082  0.2263
 4650TIP3    H135441   2.561   3.270   3.771 -1.2197  0.1720 -0.5289
 4650TIP3    H235442   2.553   3.127   3.723 -3.3954  0.5020 -1.2647
 4651TIP3   OH235443   1.490   1.457   5.917  0.5450 -0.0030 -0.2932
 4651TIP3    H135444   1.531   1.374   5.941 -0.4081 -0.2252  0.6549
 4651TIP3    H235445   1.397   1.443   5.934  0.3258  1.1353 -0.5049
 4652TIP3   OH235446   3.699   5.403   4.350 -0.2248 -0.0102 -0.5339
 4652TIP3    H135447   3.733   5.382   4.437  0.1774  0.3680 -0.5943
 4652TIP3    H235448   3.641   5.330   4.329 -1.2228  0.4368  0.5225
 4653TIP3   OH235449   6.328   4.315  14.809 -0.2534  0.1287 -0.6241
 4653TIP3    H135450   6.266   4.243  14.821  0.6134 -0.2776  2.0611
 4653TIP3    H235451   6.277   4.384  14.767 -1.9762 -0.9339 -0.3607
 4654TIP3   OH235452   0.758   6.425  11.366  0.0827  0.1823  0.1974
 4654TIP3    H135453   0.700   6.422  11.290  0.3026  1.1838 -0.0340
 4654TIP3    H235454   0.710   6.476  11.431  0.2090 -0.0171  0.4474
 4655TIP3   OH235455   4.735   5.924   2.652 -0.5893 -0.2789  0.4483
 4655TIP3    H135456   4.776   5.884   2.729 -0.7947  0.3229  0.8744
 4655TIP3    H235457   4.737   5.855   2.585  1.5313 -0.1281  0.3054
 4656TIP3   OH235458   6.318   2.587   0.904  0.3920  0.6142  0.6858
 4656TIP3    H135459   6.256   2.533   0.855  1.3125  0.7831 -0.6891
 4656TIP3    H235460   6.403   2.544   0.893  0.7076  0.9146  1.7547
 4657TIP3   OH235461   5.331   2.833  11.852  0.1558  1.1012  0.3815
 4657TIP3    H135462   5.309   2.859  11.762 -2.3863  1.5017  1.0560
 4657TIP3    H235463   5.311   2.740  11.855 -0.7314  1.2992  0.7907
 4658TIP3   OH235464   2.037   2.596  14.689  0.2322 -0.0786  0.2688
 4658TIP3    H135465   2.119   2.580  14.642  1.2692  0.9883  1.6423
 4658TIP3    H235466   2.031   2.524  14.752 -0.4226 -0.6950 -0.4616
 4659TIP3   OH235467   5.951   1.102  16.540 -0.3990  0.5678 -0.0555
 4659TIP3    H135468   5.879   1.038  16.538 -0.7437  0.8909  1.1863
 4659TIP3    H235469   5.920   1.173  16.484 -0.7800  0.4362 -0.0205
 4660TIP3   OH235470   5.282   1.485   3.969  0.2725 -0.5907  0.0978
 4660TIP3    H135471   5.351   1.518   4.027  1.1043  0.5695 -1.4678
 4660TIP3    H235472   5.258   1.400   4.006  1.6049 -0.4157  1.4470
 4661TIP3   OH235473   2.080   4.285   5.981  0.1904  0.8020 -0.0588
 4661TIP3    H135474   1.996   4.245   6.002  0.9408 -0.0112  1.6315
 4661TIP3    H235475   2.113   4.234   5.907 -0.3808  0.5237 -0.1311
 4662TIP3   OH235476   1.812   4.461   3.544 -0.0398 -0.4674  0.0799
 4662TIP3    H135477   1.905   4.482   3.540 -0.5388  1.8005 -1.6006
 4662TIP3    H235478   1.793   4.423   3.458 -1.0196  0.9419 -0.3605
 4663TIP3   OH235479   3.124   3.575   1.085 -0.5969 -0.3411 -0.2152
 4663TIP3    H135480   3.149   3.646   1.026  1.3422 -0.1561  0.7742
 4663TIP3    H235481   3.110   3.618   1.170 -2.0732 -0.7871 -0.1968
 4664TIP3   OH235482   5.046   1.205   0.967 -0.3120  0.3851 -0.1275
 4664TIP3    H135483   5.071   1.278   0.910  0.7319 -1.3427 -2.0266
 4664TIP3    H235484   4.951   1.199   0.956 -0.3101  0.9629 -0.5468
 4665TIP3   OH235485   2.623   1.979  11.125 -0.5068  0.1750 -0.2319
 4665TIP3    H135486   2.646   2.070  11.106 -1.5927  0.5635  0.2588
 4665TIP3    H235487   2.673   1.958  11.204  1.5790 -0.4415 -1.6284
 4666TIP3   OH235488   2.313   5.067   5.140 -0.1887 -0.2484  0.1398
 4666TIP3    H135489   2.250   5.060   5.212 -1.4698  1.3733 -0.7413
 4666TIP3    H235490   2.376   5.134   5.169  0.4647 -1.0215  0.5377
 4667TIP3   OH235491   0.709   4.265  15.347 -0.4804 -0.2329  0.1824
 4667TIP3    H135492   0.732   4.175  15.324 -0.3552  0.2586 -1.7995
 4667TIP3    H235493   0.666   4.300  15.268  1.2414  2.0577  0.1426
 4668TIP3   OH235494   2.772   1.721   0.524 -0.2311  0.1468  0.0639
 4668TIP3    H135495   2.684   1.728   0.562 -0.4180 -0.1269 -0.3040
 4668TIP3    H235496   2.774   1.633   0.487  0.5451 -0.2012  0.9086
 4669TIP3   OH235497   6.646   2.729  12.029 -0.1077  0.3297  0.0046
 4669TIP3    H135498   6.591   2.656  11.999  0.4976  0.0252 -0.3957
 4669TIP3    H235499   6.708   2.689  12.089  1.4550  0.1315 -1.6538
 4670TIP3   OH235500   0.484   4.505   0.352  0.3341 -0.2485  0.1045
 4670TIP3    H135501   0.558   4.556   0.386  0.1115  0.6377 -0.6953
 4670TIP3    H235502   0.515   4.467   0.270 -0.9871  2.7507 -1.9667
 4671TIP3   OH235503   2.905   4.465   2.738 -0.7820 -0.0091 -0.5443
 4671TIP3    H135504   2.886   4.372   2.749 -1.3803  0.3984  3.0194
 4671TIP3    H235505   2.988   4.478   2.785 -0.0092  1.0689 -2.1381
 4672TIP3   OH235506   6.313   2.439   5.264 -0.0782 -0.5130 -0.0392
 4672TIP3    H135507   6.329   2.459   5.356  2.3617 -0.5756 -0.3977
 4672TIP3    H235508   6.228   2.479   5.246 -0.6276 -0.4981  2.2134
 4673TIP3   OH235509   4.526   0.542   0.191 -0.0177  0.8387  0.1374
 4673TIP3    H135510   4.452   0.517   0.246 -0.4092  0.0061 -0.7469
 4673TIP3    H235511   4.509   0.634   0.170 -0.1015  1.0362  1.0077
 4674TIP3   OH235512   2.115   6.452   1.009  0.3786  0.1155 -0.3861
 4674TIP3    H135513   2.061   6.496   1.074 -0.4166  0.3872 -1.2102
 4674TIP3    H235514   2.118   6.361   1.038  0.8658  0.4191  0.5610
 4675TIP3   OH235515   1.945   3.916   0.560 -0.5439 -0.5563  0.4002
 4675TIP3    H135516   1.896   3.889   0.638 -2.2325 -0.9913 -0.7471
 4675TIP3    H235517   1.978   4.003   0.580 -2.9611  0.3312  0.7794
 4676TIP3   OH235518   3.465   5.896  16.730 -0.0449  0.3786  0.0123
 4676TIP3    H135519   3.520   5.836  16.680  0.6743  1.5202 -0.6215
 4676TIP3    H235520   3.518   5.919  16.807  0.3931  1.4434 -0.5763
 4677TIP3   OH235521   2.600   5.573   3.572  0.1355  0.0434 -0.4058
 4677TIP3    H135522   2.598   5.550   3.479 -1.4365 -1.1401 -0.1166
 4677TIP3    H235523   2.684   5.618   3.584  1.2172 -1.4481 -2.0033
 4678TIP3   OH235524   3.703   0.994  11.236  0.0729  0.4156  0.0308
 4678TIP3    H135525   3.618   0.954  11.253 -0.7733  1.8028 -0.6982
 4678TIP3    H235526   3.752   0.929  11.187 -1.1209  0.1262 -0.8084
 4679TIP3   OH235527   1.835   1.538  16.964  0.1205 -0.0350  0.5029
 4679TIP3    H135528   1.774   1.482  16.917 -1.7116  0.8576  1.7067
 4679TIP3    H235529   1.877   1.591  16.896  0.7788 -1.7531 -0.4917
 4680TIP3   OH235530   6.120   0.087   0.129  0.3612  0.1560 -0.1426
 4680TIP3    H135531   6.064   0.165   0.124 -0.5237 -0.3740  0.9595
 4680TIP3    H235532   6.170   0.087   0.047  1.5432  2.7356  0.4823
 4681TIP3   OH235533   5.239   6.540  15.593 -0.2755  0.2876  0.1651
 4681TIP3    H135534   5.273   6.455  15.566  2.1776  1.1128  0.4501
 4681TIP3    H235535   5.156   6.548  15.546  0.9084 -0.9505 -2.3570
 4682TIP3   OH235536   3.365   1.074  12.621  0.7984  0.7645 -0.3782
 4682TIP3    H135537   3.281   1.095  12.580 -0.6788 -0.1437  1.9836
 4682TIP3    H235538   3.360   0.980  12.638  1.3595  1.0528  1.6852
 4683TIP3   OH235539   4.961   4.397   1.878 -0.2453  0.5274  0.0214
 4683TIP3    H135540   4.950   4.472   1.935  1.2845 -0.0553  1.1665
 4683TIP3    H235541   4.879   4.389   1.830 -0.3278  3.0896 -0.3590
 4684TIP3   OH235542   4.520   2.524   0.884 -0.1994  0.1025  0.3236
 4684TIP3    H135543   4.496   2.451   0.828  0.7996 -0.7467  0.9637
 4684TIP3    H235544   4.523   2.600   0.825 -1.3988 -0.3259 -0.3099
 4685TIP3   OH235545   2.646   2.825  13.673  0.9912 -0.2852  0.1997
 4685TIP3    H135546   2.686   2.878  13.742  0.8260 -0.5413  0.4941
 4685TIP3    H235547   2.564   2.794  13.711 -0.9760  2.5707 -1.3464
 4686TIP3   OH235548   5.671   0.559  11.495 -0.2197  0.3316 -0.4037
 4686TIP3    H135549   5.600   0.544  11.432  0.8463 -0.3648 -1.4794
 4686TIP3    H235550   5.751   0.550  11.444  0.6636  1.1601  0.7786
 4687TIP3   OH235551   3.117   6.210   1.066 -0.0524  0.3282  0.7163
 4687TIP3    H135552   3.071   6.281   1.112 -2.3602 -0.6781  0.1365
 4687TIP3    H235553   3.162   6.254   0.994  1.3346  1.5768  2.2788
 4688TIP3   OH235554   1.381   2.024   4.168  0.5408 -0.1325 -0.2409
 4688TIP3    H135555   1.474   2.014   4.185  0.5379 -1.6514 -0.9523
 4688TIP3    H235556   1.340   2.010   4.254  0.9460  0.2976  0.0267
 4689TIP3   OH235557   6.373   2.436  15.927  0.3788 -0.2514  0.1901
 4689TIP3    H135558   6.304   2.377  15.957 -0.8056  1.9242  2.0373
 4689TIP3    H235559   6.438   2.435  15.998  0.4754  0.4566  0.1134
 4690TIP3   OH235560   1.408   6.158  11.505 -0.2815 -0.5300  0.1870
 4690TIP3    H135561   1.392   6.130  11.415 -1.8036  1.9147 -0.3904
 4690TIP3    H235562   1.501   6.179  11.507 -0.5771  1.2024 -1.4387
 4691TIP3   OH235563   2.708   2.367   3.251  0.1006  0.7729 -0.3378
 4691TIP3    H135564   2.750   2.339   3.169  0.3181  0.5218 -0.1402
 4691TIP3    H235565   2.731   2.460   3.259 -0.5895  1.0096 -0.9748
 4692TIP3   OH235566   4.610   5.096   5.516  0.0797 -0.1640  0.5081
 4692TIP3    H135567   4.608   5.053   5.430 -3.8146 -2.4187  1.4713
 4692TIP3    H235568   4.669   5.042   5.568  1.0047  0.1050 -0.2399
 4693TIP3   OH235569   6.739   3.153  11.110  0.5789  0.1497  0.1152
 4693TIP3    H135570   6.661   3.162  11.055  0.8129  2.0293  0.0193
 4693TIP3    H235571   6.705   3.158  11.200  0.3975 -1.0514  0.1269
 4694TIP3   OH235572   3.600   6.257   0.753  0.4564  0.2943  0.0612
 4694TIP3    H135573   3.680   6.210   0.733  0.2410 -0.0622  0.0193
 4694TIP3    H235574   3.599   6.264   0.848 -0.0316 -0.7274  0.1386
 4695TIP3   OH235575   1.752   1.009   3.031  0.0030  0.1289  0.1212
 4695TIP3    H135576   1.678   1.050   3.076 -0.2648  0.3820 -0.5377
 4695TIP3    H235577   1.797   1.082   2.987  0.1285 -0.1418 -0.2038
 4696TIP3   OH235578   4.668   0.624  15.908  0.6071 -0.3218  0.3880
 4696TIP3    H135579   4.736   0.664  15.854 -1.0564  1.3233 -0.6018
 4696TIP3    H235580   4.596   0.607  15.847 -1.6753  2.3327  2.1158
 4697TIP3   OH235581   4.868   2.674   4.762  0.4570 -0.2146 -0.4379
 4697TIP3    H135582   4.823   2.725   4.830 -0.2371 -0.0647 -0.9964
 4697TIP3    H235583   4.921   2.738   4.715  2.4975 -0.6334  1.1730
 4698TIP3   OH235584   2.368   2.227  16.186  0.4943  0.4644 -0.2946
 4698TIP3    H135585   2.348   2.314  16.221 -0.3238 -0.0966  0.7053
 4698TIP3    H235586   2.386   2.174  16.264  0.0676 -0.4817 -0.8238
 4699TIP3   OH235587   0.544   1.473   4.010 -0.0579 -0.6720 -0.4083
 4699TIP3    H135588   0.547   1.506   3.920 -1.9523  0.8791  0.0095
 4699TIP3    H235589   0.555   1.379   4.002 -0.5248 -0.6048 -2.3170
 4700TIP3   OH235590   1.231   0.032   5.586  0.0254 -0.1742  0.4441
 4700TIP3    H135591   1.169   0.106   5.591 -0.5446 -0.5753 -0.4616
 4700TIP3    H235592   1.232  -0.004   5.675 -0.6423  0.1722  0.6008
 4701TIP3   OH235593   0.368   0.829   2.938  0.1682  0.0548 -0.0589
 4701TIP3    H135594   0.335   0.816   3.027 -0.2055 -1.5170 -0.4024
 4701TIP3    H235595   0.382   0.924   2.932 -2.3209  0.5598  0.8008
 4702TIP3   OH235596   3.256   5.234  12.548 -0.0730 -0.6570 -0.8596
 4702TIP3    H135597   3.206   5.245  12.629  1.5898 -1.2748  0.3066
 4702TIP3    H235598   3.344   5.211  12.577  0.5017 -1.2026 -2.8617
 4703TIP3   OH235599   2.349   5.198   3.646 -0.2305  0.2905 -0.1594
 4703TIP3    H135600   2.284   5.266   3.666  1.8707  2.4270 -0.0925
 4703TIP3    H235601   2.370   5.160   3.732 -0.4515  0.5102 -0.0042
 4704TIP3   OH235602   5.607   2.449  15.204 -0.0222 -0.3586 -0.4889
 4704TIP3    H135603   5.679   2.412  15.255  0.2228 -0.4214 -0.8792
 4704TIP3    H235604   5.628   2.428  15.113  0.5905  1.4863 -0.8169
 4705TIP3   OH235605   5.649   3.809  14.006  0.3416 -0.4190  0.2322
 4705TIP3    H135606   5.675   3.821  14.097  0.7761  1.1179 -0.0731
 4705TIP3    H235607   5.613   3.720  14.003 -0.4874 -0.1990  2.0869
 4706TIP3   OH235608   1.299   2.711  13.518  0.2221  0.0675  0.6671
 4706TIP3    H135609   1.379   2.729  13.568  0.8169 -0.5714 -0.0198
 4706TIP3    H235610   1.295   2.616  13.512  0.8486  0.1161 -1.5006
 4707TIP3   OH235611   3.931   6.807  10.768  0.5556  0.1102 -0.4034
 4707TIP3    H135612   4.015   6.775  10.736  0.5268 -0.2587 -0.1315
 4707TIP3    H235613   3.866   6.752  10.724  0.4945 -0.0593 -0.1120
 4708TIP3   OH235614   2.095   5.041  14.322 -0.1568 -0.0903 -0.3030
 4708TIP3    H135615   2.172   5.065  14.270 -0.7993 -0.0806 -1.2699
 4708TIP3    H235616   2.025   5.098  14.289 -0.2472  0.9915  1.6032
 4709TIP3   OH235617   4.695   2.650   4.490 -0.0117  0.0661  0.0095
 4709TIP3    H135618   4.787   2.672   4.476  0.1984  0.0178  1.2057
 4709TIP3    H235619   4.659   2.727   4.534 -0.6793  0.2914 -0.9112
 4710TIP3   OH235620   6.782   4.677   4.631  0.1581  0.6767  0.1325
 4710TIP3    H135621   6.848   4.706   4.568  0.3896  1.9922  0.9414
 4710TIP3    H235622   6.708   4.736   4.617 -1.1855 -1.2004 -1.2312
 4711TIP3   OH235623   1.968   5.428  16.115  0.5739  0.3371 -0.2400
 4711TIP3    H135624   2.047   5.464  16.156  0.2544 -0.3994  1.0753
 4711TIP3    H235625   1.997   5.404  16.026  1.3922  1.5551 -0.3405
 4712TIP3   OH235626   5.556   2.545   1.345  0.0608  0.1689  0.2166
 4712TIP3    H135627   5.541   2.499   1.262  2.5160 -0.6737  0.1515
 4712TIP3    H235628   5.556   2.477   1.411 -2.0965  0.8669  1.0281
 4713TIP3   OH235629   5.656   0.550   5.506 -0.5700  0.6749 -0.9012
 4713TIP3    H135630   5.604   0.499   5.568 -0.5444 -0.2594 -1.6233
 4713TIP3    H235631   5.726   0.588   5.559 -1.2517  0.9055 -0.1471
 4714TIP3   OH235632   5.181   0.351  15.273 -0.1485 -0.6485 -0.2233
 4714TIP3    H135633   5.146   0.316  15.191 -1.3554  1.2873 -0.5919
 4714TIP3    H235634   5.103   0.370  15.326  0.4695  0.9898  0.1368
 4715TIP3   OH235635   6.328   2.402   3.746  0.0138 -0.1668  0.4567
 4715TIP3    H135636   6.288   2.368   3.666 -0.4346 -0.3914  0.7737
 4715TIP3    H235637   6.277   2.363   3.817  2.0736 -2.1753  0.9629
 4716TIP3   OH235638   3.308   6.552  11.447 -0.1935 -0.5208 -0.1685
 4716TIP3    H135639   3.290   6.638  11.487  1.2814 -0.1627 -0.2350
 4716TIP3    H235640   3.279   6.489  11.512 -0.2862  0.0363  0.3434
 4717TIP3   OH235641   5.271   6.343  10.506  0.7027 -0.4065  0.1666
 4717TIP3    H135642   5.357   6.340  10.549  0.0011  1.3799  1.8778
 4717TIP3    H235643   5.253   6.252  10.483  2.4646 -1.0298  0.9871
 4718TIP3   OH235644   4.692   5.210   3.239 -0.1152 -0.0859 -0.1186
 4718TIP3    H135645   4.683   5.303   3.217  0.4761 -0.0235 -0.1189
 4718TIP3    H235646   4.649   5.164   3.167  2.9525  0.0665 -2.2216
 4719TIP3   OH235647   1.882   4.787  17.219 -0.0384 -0.1759 -0.0293
 4719TIP3    H135648   1.793   4.764  17.246  0.2362 -1.7171 -0.3479
 4719TIP3    H235649   1.938   4.753  17.289  0.5562 -2.7834 -1.6086
 4720TIP3   OH235650   3.215   6.583  10.621 -0.9175 -0.3695  0.5863
 4720TIP3    H135651   3.220   6.535  10.703 -1.2966  0.4376  1.0957
 4720TIP3    H235652   3.275   6.657  10.633 -2.2961  0.7381  0.8230
 4721TIP3   OH235653   2.534   4.094   5.432  0.3041 -0.2683 -0.4605
 4721TIP3    H135654   2.513   4.004   5.458  2.7587 -0.5967  0.6817
 4721TIP3    H235655   2.545   4.090   5.337 -0.5959 -0.9362 -0.5443
 4722TIP3   OH235656   5.274   0.689  13.569 -0.3758  0.1351 -0.1795
 4722TIP3    H135657   5.347   0.700  13.508 -0.1270 -0.4647  0.0030
 4722TIP3    H235658   5.295   0.747  13.641 -0.6085  0.7564 -0.6057
 4723TIP3   OH235659   3.351   0.898   1.232  0.5203  0.0963  0.5564
 4723TIP3    H135660   3.282   0.936   1.287  0.0560  0.2812 -0.1306
 4723TIP3    H235661   3.420   0.965   1.231  0.3666  0.2575  0.6064
 4724TIP3   OH235662   2.341   4.029  11.189 -0.2721  0.2870  0.5491
 4724TIP3    H135663   2.402   4.038  11.116  1.3633  1.7830  1.9958
 4724TIP3    H235664   2.288   3.952  11.167 -0.0377  0.8330 -2.2939
 4725TIP3   OH235665   4.726   2.082  17.140 -0.4791 -0.1289  0.0319
 4725TIP3    H135666   4.814   2.103  17.171 -0.1964  0.2640 -0.9981
 4725TIP3    H235667   4.693   2.018  17.203 -0.3478  1.3981  1.7227
 4726TIP3   OH235668   4.920   1.753  13.656  0.0554  0.5283 -0.2265
 4726TIP3    H135669   4.889   1.766  13.745  2.2984  0.9537  0.5627
 4726TIP3    H235670   4.895   1.833  13.609 -1.1361  0.2993 -0.0048
 4727TIP3   OH235671   4.433   0.463   5.269  0.2348 -0.0545  0.1453
 4727TIP3    H135672   4.372   0.396   5.301  0.7528 -0.5192  0.1821
 4727TIP3    H235673   4.489   0.416   5.206 -0.3459  0.6915 -0.9530
 4728TIP3   OH235674   1.072   2.268  15.369 -0.0403  0.6162 -0.4164
 4728TIP3    H135675   1.039   2.217  15.295  1.7759 -0.2533 -0.6918
 4728TIP3    H235676   1.092   2.354  15.332 -1.2423  0.9158 -0.4043
 4729TIP3   OH235677   6.538   4.445   4.644  0.4877  0.3460 -0.2634
 4729TIP3    H135678   6.476   4.378   4.675 -0.6989 -0.2489 -3.5359
 4729TIP3    H235679   6.624   4.412   4.672 -0.4209  0.2009  2.7008
 4730TIP3   OH235680   3.262   6.173  11.827 -0.1226 -0.4980  0.6006
 4730TIP3    H135681   3.327   6.120  11.781 -0.0211 -0.7051  0.9737
 4730TIP3    H235682   3.286   6.165  11.920 -1.6911 -1.9693  0.9188
 4731TIP3   OH235683   6.636   2.629   4.784  0.2421 -0.0938  0.1796
 4731TIP3    H135684   6.555   2.627   4.734  1.6191 -0.8640 -2.1393
 4731TIP3    H235685   6.655   2.538   4.803 -0.1146  0.1606  2.0018
 4732TIP3   OH235686   3.712   5.317   4.615 -0.5040  0.3222  0.6086
 4732TIP3    H135687   3.718   5.376   4.690  1.1158  1.4932 -0.3735
 4732TIP3    H235688   3.650   5.249   4.642 -0.8497  1.3541  2.5422
 4733TIP3   OH235689   6.099   4.344   4.344  0.1674  0.3666 -0.5040
 4733TIP3    H135690   6.052   4.262   4.353  1.7578 -0.9368 -2.9834
 4733TIP3    H235691   6.111   4.355   4.250  4.0096  1.0264 -0.0821
 4734TIP3   OH235692   4.071   2.192   1.552  0.1819  0.3219  0.4232
 4734TIP3    H135693   4.136   2.228   1.613  1.0208 -0.2540 -0.1121
 4734TIP3    H235694   4.049   2.266   1.495  2.9228 -0.2307 -1.5541
 4735TIP3   OH235695   4.012   5.727   0.186 -0.2373  0.0966 -0.5309
 4735TIP3    H135696   4.030   5.650   0.131 -3.0950 -0.0773 -1.3881
 4735TIP3    H235697   3.982   5.794   0.125 -2.2602  0.3251  0.6238
 4736TIP3   OH235698   1.563   3.594   1.185 -0.1361 -0.1084 -0.3803
 4736TIP3    H135699   1.613   3.670   1.153  0.5098 -1.1947 -2.0740
 4736TIP3    H235700   1.561   3.606   1.280  0.4941  1.6914 -0.5454
 4737TIP3   OH235701   4.792   4.842  16.112 -0.1085 -0.4703  0.2335
 4737TIP3    H135702   4.751   4.900  16.176  1.3366 -0.3149  1.0714
 4737TIP3    H235703   4.850   4.787  16.164 -0.1691 -1.4971 -0.7651
 4738TIP3   OH235704   5.934   3.436  16.840  0.3030  0.4855 -0.0340
 4738TIP3    H135705   6.009   3.489  16.815  0.5229 -0.1679 -0.7663
 4738TIP3    H235706   5.950   3.415  16.932  1.2621 -0.0503 -0.3139
 4739TIP3   OH235707   5.282   4.086  15.564 -0.1647 -0.4507  0.5924
 4739TIP3    H135708   5.350   4.139  15.605  0.9350 -0.7787 -0.7287
 4739TIP3    H235709   5.244   4.143  15.497  0.7746 -1.1509 -0.5881
 4740TIP3   OH235710   1.770   4.510   1.679 -0.9096  0.6924 -0.2496
 4740TIP3    H135711   1.861   4.539   1.687 -0.9064  0.1132  2.8092
 4740TIP3    H235712   1.732   4.570   1.615  1.4227  1.3551 -1.1576
 4741TIP3   OH235713   2.435   2.250   4.316 -0.5438  0.4688 -0.1932
 4741TIP3    H135714   2.407   2.158   4.318  0.3467  0.2029  0.7358
 4741TIP3    H235715   2.521   2.247   4.274  0.3117  0.6265  1.4847
 4742TIP3   OH235716   5.685   0.874  12.156 -0.3337  0.2248 -0.2324
 4742TIP3    H135717   5.682   0.850  12.249 -2.2546  0.0220 -0.3011
 4742TIP3    H235718   5.767   0.921  12.146 -1.5427  3.3127  2.3931
 4743TIP3   OH235719   5.101   3.373   2.361 -0.3914 -0.5913  0.2939
 4743TIP3    H135720   5.063   3.332   2.439 -1.5018  0.6245  0.4247
 4743TIP3    H235721   5.057   3.330   2.287  1.2820 -2.3603  0.2444
 4744TIP3   OH235722   6.396   5.455   3.919 -0.6272  0.4004  0.3420
 4744TIP3    H135723   6.455   5.530   3.918  0.7375 -0.6294 -1.0946
 4744TIP3    H235724   6.348   5.461   3.836  0.5824 -1.0555 -0.5395
 4745TIP3   OH235725   0.717   4.887   0.246 -0.1021  0.3735 -0.2428
 4745TIP3    H135726   0.626   4.904   0.268 -0.2385  3.5104 -2.6481
 4745TIP3    H235727   0.761   4.878   0.331 -2.1574  1.6440  1.0337
 4746TIP3   OH235728   0.889   4.940   5.433 -1.1668  0.4837  0.4499
 4746TIP3    H135729   0.872   4.881   5.360 -0.9131  0.0906  0.7000
 4746TIP3    H235730   0.843   4.900   5.507 -0.4619  0.2486  0.7690
 4747TIP3   OH235731   0.781   2.949  12.036  0.1370 -0.3930 -0.8471
 4747TIP3    H135732   0.865   2.975  11.999 -0.1829  0.2965 -1.1029
 4747TIP3    H235733   0.781   2.985  12.124 -0.0389 -0.0897 -0.9720
 4748TIP3   OH235734   5.287   5.372   2.843  0.0767 -0.0957 -0.2808
 4748TIP3    H135735   5.262   5.293   2.795 -1.5544  0.1335  0.1242
 4748TIP3    H235736   5.350   5.343   2.908 -0.0167 -0.9371 -0.5580
 4749TIP3   OH235737   5.260   1.236   3.559 -0.1102 -0.2410 -0.4588
 4749TIP3    H135738   5.329   1.276   3.508 -0.9121  0.4332 -1.0389
 4749TIP3    H235739   5.244   1.298   3.631  2.0787 -1.8818  1.6106
 4750TIP3   OH235740   4.012   4.841   3.189 -0.2100 -0.6045 -0.0761
 4750TIP3    H135741   3.985   4.767   3.243 -0.1327 -1.3696 -1.0644
 4750TIP3    H235742   4.103   4.824   3.168 -0.0003  0.1124  0.2265
 4751TIP3   OH235743   2.530   6.599  10.741 -0.0671  0.0910 -0.3402
 4751TIP3    H135744   2.464   6.582  10.808 -0.9391  0.6698 -1.0404
 4751TIP3    H235745   2.488   6.659  10.680  0.1841 -1.5262 -2.1914
 4752TIP3   OH235746   5.519   5.592   6.176  0.4161  1.0942  0.2922
 4752TIP3    H135747   5.505   5.548   6.092 -0.0752 -0.2199  1.0172
 4752TIP3    H235748   5.451   5.555   6.233  1.2226  1.3735  1.4668
 4753TIP3   OH235749   2.424   1.294  15.903 -0.2458 -0.2622 -0.1453
 4753TIP3    H135750   2.389   1.257  15.822  1.6129  1.0551 -1.6384
 4753TIP3    H235751   2.474   1.223  15.942 -0.9190 -0.8222 -0.2852
 4754TIP3   OH235752   5.277   2.556   1.024  0.3623 -0.3134  0.5913
 4754TIP3    H135753   5.214   2.484   1.033 -0.5282  0.3776  0.0184
 4754TIP3    H235754   5.277   2.598   1.110 -1.7874  1.1354 -0.0458
 4755TIP3   OH235755   4.112   6.563   6.012 -0.2645  0.4126 -0.6101
 4755TIP3    H135756   4.065   6.484   6.038 -0.4626  1.0628  1.1688
 4755TIP3    H235757   4.142   6.601   6.095 -1.2706  2.8727 -1.2854
 4756TIP3   OH235758   4.942   2.663   6.644 -0.3231 -0.4785  0.4757
 4756TIP3    H135759   4.932   2.710   6.561 -3.3188  1.0524  1.5286
 4756TIP3    H235760   4.937   2.732   6.711 -0.6802 -1.9069  1.9907
 4757TIP3   OH235761   4.318   1.240   2.583 -0.3652  0.3234  0.2469
 4757TIP3    H135762   4.407   1.266   2.560 -0.8900  0.8460 -1.2867
 4757TIP3    H235763   4.330   1.176   2.653  1.2004  0.5984  0.2750
 4758TIP3   OH235764   3.371   5.908   1.420  0.1883  0.1805 -0.2559
 4758TIP3    H135765   3.310   5.836   1.407  0.8811 -0.5772  0.6035
 4758TIP3    H235766   3.354   5.967   1.346  0.2761 -1.3292 -1.5294
 4759TIP3   OH235767   6.146   0.015   1.241 -0.6080  0.3552  0.5597
 4759TIP3    H135768   6.195   0.011   1.323 -0.5517  0.2165  0.5209
 4759TIP3    H235769   6.200   0.070   1.184 -0.5161  0.2364  0.5306
 4760TIP3   OH235770   1.969   5.992   5.369  0.2712 -0.4227  0.1807
 4760TIP3    H135771   1.964   6.084   5.343  2.6402  0.0050  0.9557
 4760TIP3    H235772   1.943   5.992   5.461  1.3225 -0.3394  0.4827
 4761TIP3   OH235773   0.941   3.666   5.587  0.2649  0.3990  0.3302
 4761TIP3    H135774   0.927   3.577   5.620  3.1481 -0.1509  0.3729
 4761TIP3    H235775   0.977   3.714   5.661  0.4491  1.0895 -0.1987
 4762TIP3   OH235776   0.927   6.578  16.193  0.0509 -0.5144 -0.3541
 4762TIP3    H135777   0.911   6.489  16.225  0.7514 -0.1574  1.0433
 4762TIP3    H235778   0.993   6.566  16.125  0.6554 -0.9991  0.3040
 4763TIP3   OH235779   5.967   1.685   2.343 -0.0332 -0.2012 -0.1738
 4763TIP3    H135780   6.060   1.660   2.349  0.0799 -0.2828 -1.6831
 4763TIP3    H235781   5.923   1.630   2.406  0.9942  0.0991  0.8408
 4764TIP3   OH235782   3.017   6.642   0.124 -0.5332  0.0965 -0.0083
 4764TIP3    H135783   3.026   6.720   0.070  1.1953  0.8247  1.2328
 4764TIP3    H235784   2.979   6.675   0.206 -0.0690 -0.4100  0.4146
 4765TIP3   OH235785   1.768   6.286  16.851  0.5133 -0.5794 -0.4503
 4765TIP3    H135786   1.673   6.295  16.859  0.8331  1.7782  2.4111
 4765TIP3    H235787   1.788   6.202  16.893 -0.2761 -0.9812 -0.8700
 4766TIP3   OH235788   1.633   5.348   4.863  0.0642  0.1570 -0.4990
 4766TIP3    H135789   1.575   5.342   4.788 -0.0536  0.3032 -0.4218
 4766TIP3    H235790   1.585   5.404   4.925  0.3744  0.4477 -0.5196
 4767TIP3   OH235791   2.604   2.676  12.677 -0.0100  0.2453 -0.4773
 4767TIP3    H135792   2.644   2.763  12.674  0.3971  0.0565 -0.5492
 4767TIP3    H235793   2.674   2.618  12.708  0.2524 -0.3464 -2.0925
 4768TIP3   OH235794   6.305   4.092   2.122 -0.0313  0.6694  0.0192
 4768TIP3    H135795   6.328   4.012   2.075  6.2773  2.0247 -0.0428
 4768TIP3    H235796   6.312   4.161   2.056  0.5653  1.7852  1.2145
 4769TIP3   OH235797   0.517   0.166   1.785 -0.1798  0.2996 -0.1500
 4769TIP3    H135798   0.612   0.158   1.774 -0.2501  0.4517 -0.8954
 4769TIP3    H235799   0.486   0.207   1.704 -0.4391  3.7824  1.5342
 4770TIP3   OH235800   4.264   3.492   6.170 -0.8602  0.1234 -0.0276
 4770TIP3    H135801   4.321   3.539   6.230  1.0493 -0.5975 -1.1784
 4770TIP3    H235802   4.227   3.560   6.113 -1.5696  0.6441  1.0167
 4771TIP3   OH235803   1.591   1.286  16.912 -0.4077 -0.4488 -0.1520
 4771TIP3    H135804   1.662   1.265  16.852 -0.4643 -0.8498 -0.0853
 4771TIP3    H235805   1.603   1.225  16.985 -1.7441 -1.6455 -0.8769
 4772TIP3   OH235806   6.509   5.749  11.896 -0.6283 -0.4732 -0.2612
 4772TIP3    H135807   6.556   5.747  11.979 -0.0624  0.0210 -0.5634
 4772TIP3    H235808   6.577   5.752  11.829 -1.0494 -2.0447 -0.8106
 4773TIP3   OH235809   3.077   2.150  11.707 -0.2574 -0.7793  0.0197
 4773TIP3    H135810   3.157   2.150  11.654  0.1168 -3.5086  0.4867
 4773TIP3    H235811   3.008   2.128  11.645 -0.2194 -1.2579  0.1453
 4774TIP3   OH235812   4.133   1.712  16.963  0.2360  0.6132 -0.0506
 4774TIP3    H135813   4.078   1.673  17.030  1.1797  1.1620  1.0864
 4774TIP3    H235814   4.110   1.666  16.882 -0.1297 -0.8472  0.8590
 4775TIP3   OH235815   0.148   2.409  11.341  0.1610  0.7146  0.0634
 4775TIP3    H135816   0.098   2.398  11.260  0.8802  0.0495 -0.3067
 4775TIP3    H235817   0.095   2.468  11.394 -0.1877  1.3902 -1.0070
 4776TIP3   OH235818   3.608   4.859   4.401 -0.0471  0.0193 -0.3008
 4776TIP3    H135819   3.531   4.844   4.456 -1.2792  4.3584 -0.5442
 4776TIP3    H235820   3.682   4.836   4.457 -1.3862 -2.0661  0.7351
 4777TIP3   OH235821   0.802   3.954   5.959 -0.7114 -0.6939 -0.1582
 4777TIP3    H135822   0.766   3.997   6.037 -0.4093  0.0826 -0.4386
 4777TIP3    H235823   0.849   4.023   5.913 -0.6934 -1.2009 -0.9163
 4778TIP3   OH235824   4.575   6.317  11.611  0.5084  0.1315 -0.9721
 4778TIP3    H135825   4.587   6.289  11.520 -1.7300  0.3385 -1.3986
 4778TIP3    H235826   4.597   6.240  11.663  2.0983  0.0981 -1.6513
 4779TIP3   OH235827   4.349   0.448   6.524 -0.1339 -0.5507 -0.6541
 4779TIP3    H135828   4.306   0.532   6.504 -0.3218  0.1121  2.1449
 4779TIP3    H235829   4.442   0.469   6.525  0.0391 -1.0266 -2.4785
 4780TIP3   OH235830   3.104   1.470   0.967 -0.7202  0.9335  0.0300
 4780TIP3    H135831   3.026   1.419   0.947 -0.2268 -0.0404  0.5532
 4780TIP3    H235832   3.087   1.556   0.928 -2.2964  0.9256  0.6198
 4781TIP3   OH235833   0.970   3.328  11.441 -0.0617  0.2411  0.5800
 4781TIP3    H135834   0.947   3.311  11.350 -0.1836  1.9723  0.2594
 4781TIP3    H235835   0.965   3.242  11.483 -0.9965 -0.4248 -0.8171
 4782TIP3   OH235836   4.743   1.518   1.658  0.4557 -0.3900 -0.6036
 4782TIP3    H135837   4.682   1.535   1.730 -0.7694  0.5321 -1.7967
 4782TIP3    H235838   4.829   1.543   1.693 -0.2600  1.1293  0.1902
 4783TIP3   OH235839   5.659   6.429   2.743 -0.1246  0.1355  0.5043
 4783TIP3    H135840   5.575   6.471   2.759  0.1932  1.7920 -1.7160
 4783TIP3    H235841   5.644   6.371   2.669  1.0883  2.2607 -1.5578
 4784TIP3   OH235842   6.016   3.930  11.252  0.3491  0.2289 -0.4981
 4784TIP3    H135843   5.932   3.932  11.208 -0.6871  0.8010  1.3951
 4784TIP3    H235844   6.077   3.972  11.191 -0.5692 -0.7240 -2.1349
 4785TIP3   OH235845   1.694   6.600   1.724 -0.1959 -0.2780  0.4693
 4785TIP3    H135846   1.785   6.593   1.753  0.4347  2.5125 -0.4726
 4785TIP3    H235847   1.692   6.562   1.636  0.1388 -0.1269  0.3969
 4786TIP3   OH235848   5.865   3.442   4.652 -0.1387  0.3985 -0.2059
 4786TIP3    H135849   5.889   3.367   4.598  0.1986  0.0093  0.4676
 4786TIP3    H235850   5.776   3.464   4.625 -1.0067 -1.4820  0.9087
 4787TIP3   OH235851   2.962   5.888  11.619  0.1396 -0.2344  0.1100
 4787TIP3    H135852   2.949   5.966  11.565  1.4991 -0.4800 -0.6177
 4787TIP3    H235853   2.953   5.919  11.709 -0.6143  0.4932 -0.2042
 4788TIP3   OH235854   6.383   1.314  16.606 -0.1309  0.2385 -0.0347
 4788TIP3    H135855   6.462   1.271  16.640  0.6632  0.7562 -1.1672
 4788TIP3    H235856   6.322   1.242  16.589  0.8216 -0.3752 -0.9807
 4789TIP3   OH235857   5.899   3.007  12.506  0.1506 -0.9931  0.5365
 4789TIP3    H135858   5.858   3.055  12.577  1.0062  0.3197  0.1803
 4789TIP3    H235859   5.827   2.990  12.444 -0.6430 -2.3539  1.7721
 4790TIP3   OH235860   5.256   3.542  16.197  1.0194  0.2245  1.3592
 4790TIP3    H135861   5.338   3.533  16.245  0.1227  2.0037  3.3471
 4790TIP3    H235862   5.236   3.635  16.200 -0.1320  0.1218 -0.8192
 4791TIP3   OH235863   1.605   1.016   0.198 -0.1731  0.1313  0.4809
 4791TIP3    H135864   1.536   1.082   0.203  0.4718  0.7368  3.2126
 4791TIP3    H235865   1.565   0.942   0.153 -1.8251  1.3219 -0.0855
 4792TIP3   OH235866   4.576   1.112  12.960  0.4727 -0.2112  0.5208
 4792TIP3    H135867   4.515   1.142  13.028 -0.2001  1.1798 -0.6568
 4792TIP3    H235868   4.529   1.040  12.917  0.3620 -0.2354  0.6779
 4793TIP3   OH235869   2.421   5.724   4.397  0.4228 -0.1627  0.1262
 4793TIP3    H135870   2.423   5.633   4.427  1.0343 -0.5711 -1.1164
 4793TIP3    H235871   2.337   5.732   4.351 -0.1570  0.2518  1.1904
 4794TIP3   OH235872   2.688   6.652   1.975 -0.6517  0.4263 -0.1970
 4794TIP3    H135873   2.657   6.594   1.906  0.4433 -1.5869  0.9005
 4794TIP3    H235874   2.726   6.593   2.040  1.7077  2.4721  0.4156
 4795TIP3   OH235875   4.168   3.564  16.950  0.0751  0.1209  0.1232
 4795TIP3    H135876   4.106   3.513  16.898 -1.4334  0.5173  1.4458
 4795TIP3    H235877   4.228   3.499  16.986  1.1307 -0.1659 -1.9987
 4796TIP3   OH235878   2.019   2.668  12.719  0.1731 -0.4178 -0.1439
 4796TIP3    H135879   2.106   2.694  12.689 -0.1943  0.8536 -0.1904
 4796TIP3    H235880   2.003   2.725  12.795 -1.0714  0.2002 -0.8322
 4797TIP3   OH235881   0.011   2.591  12.188  0.0154 -0.0820 -0.3169
 4797TIP3    H135882   0.076   2.660  12.180 -1.6179  1.5094 -0.5229
 4797TIP3    H235883   0.054   2.513  12.153  2.5428  0.3314  1.6007
 4798TIP3   OH235884   3.400   1.083   2.520  1.0730  0.0602 -0.4745
 4798TIP3    H135885   3.412   1.084   2.425  0.9102 -1.6182 -0.5431
 4798TIP3    H235886   3.473   1.136   2.554  1.2034  0.5775 -1.5101
 4799TIP3   OH235887   0.412   0.294   1.526  0.4435 -0.0240  0.2218
 4799TIP3    H135888   0.350   0.359   1.558  1.4473 -0.2403  2.8854
 4799TIP3    H235889   0.363   0.211   1.529  0.0054  0.2083 -0.4675
 4800TIP3   OH235890   4.718   0.312  17.031  0.0329  0.2686  0.7609
 4800TIP3    H135891   4.730   0.260  17.110 -0.7595  0.7837  1.2343
 4800TIP3    H235892   4.637   0.361  17.046 -1.4283 -1.2902 -1.2764
 4801TIP3   OH235893   0.735   2.661  11.598  0.3218  0.0002  0.1560
 4801TIP3    H135894   0.771   2.750  11.587  0.0373  0.0081 -0.8693
 4801TIP3    H235895   0.640   2.673  11.593  0.3067 -0.5599 -2.0332
 4802TIP3   OH235896   3.293   5.381  16.506  0.4143 -0.6499 -0.1548
 4802TIP3    H135897   3.380   5.402  16.471 -0.1135  0.6521 -0.7369
 4802TIP3    H235898   3.238   5.456  16.482 -0.6331 -0.9740  1.0936
 4803TIP3   OH235899   2.899   5.614   0.379 -0.3955  0.1810 -0.3508
 4803TIP3    H135900   2.873   5.647   0.293 -0.0887  2.1662  0.2862
 4803TIP3    H235901   2.824   5.560   0.406  0.0200 -1.5589 -2.3416
 4804TIP3   OH235902   1.637   4.075   4.652  0.0023 -0.1691 -0.0427
 4804TIP3    H135903   1.577   4.142   4.685  0.7194  0.1427  0.6590
 4804TIP3    H235904   1.581   4.004   4.622 -0.7068  0.0510  0.7477
 4805TIP3   OH235905   5.560   0.787   4.965  0.6338 -0.6274  0.3631
 4805TIP3    H135906   5.542   0.694   4.946 -0.4071 -0.3058 -0.3495
 4805TIP3    H235907   5.535   0.799   5.056  1.9738 -1.3222  0.8454
 4806TIP3   OH235908   2.630   1.103   2.168 -0.0564  0.1283  0.0263
 4806TIP3    H135909   2.569   1.166   2.128 -0.6086  0.3766  1.2359
 4806TIP3    H235910   2.674   1.153   2.237  0.7580 -0.3473 -0.1348
 4807TIP3   OH235911   0.487   3.137  15.349  0.1781 -0.0956 -0.2130
 4807TIP3    H135912   0.479   3.211  15.410 -0.8153 -1.4011  1.2999
 4807TIP3    H235913   0.566   3.092  15.377  0.3102 -0.0991 -0.5913
 4808TIP3   OH235914   2.671   0.480   4.576  0.0424  0.5964  0.0999
 4808TIP3    H135915   2.581   0.506   4.595 -0.2262 -1.1966  1.5317
 4808TIP3    H235916   2.673   0.470   4.481 -1.1715  0.9438  0.0121
 4809TIP3   OH235917   4.542   6.049   5.737  0.2974  0.2406  0.1187
 4809TIP3    H135918   4.608   6.029   5.671  1.1591  3.8152 -0.2998
 4809TIP3    H235919   4.584   6.113   5.794 -1.2708 -0.9006  2.7201
 4810TIP3   OH235920   4.804   4.950  16.828 -0.6776  0.5876 -0.0817
 4810TIP3    H135921   4.867   5.007  16.784  1.7572 -1.2211  0.8606
 4810TIP3    H235922   4.769   5.004  16.899  0.3842  1.4239 -0.1555
 4811TIP3   OH235923   6.169   3.568  16.786  0.2243  0.3235 -0.0624
 4811TIP3    H135924   6.207   3.483  16.811  1.5715  0.9813  0.1880
 4811TIP3    H235925   6.169   3.618  16.868 -0.4449  0.6256 -0.2426
 4812TIP3   OH235926   1.686   1.842  13.691 -0.0161  0.1046  0.4984
 4812TIP3    H135927   1.703   1.781  13.620  1.8888 -0.2462  1.2066
 4812TIP3    H235928   1.684   1.788  13.770 -1.9860  0.5021  0.7804
 4813TIP3   OH235929   3.916   5.262  17.100 -0.4562  0.5138  0.1891
 4813TIP3    H135930   3.825   5.238  17.112  0.5090 -2.3431  3.0440
 4813TIP3    H235931   3.941   5.305  17.182  1.6679 -2.3388  1.1743
 4814TIP3   OH235932   6.168   2.703  13.538 -0.1688  0.0463  0.0107
 4814TIP3    H135933   6.197   2.670  13.623  0.2654 -0.5582 -0.3602
 4814TIP3    H235934   6.172   2.798  13.546 -1.1889  0.0176  1.0213
 4815TIP3   OH235935   5.366   3.489   3.038 -0.2967  0.0862  0.1330
 4815TIP3    H135936   5.286   3.486   3.090 -0.9039  0.5391 -0.7531
 4815TIP3    H235937   5.420   3.555   3.081  0.4602 -1.5874  1.8977
 4816TIP3   OH235938   2.530   1.921   2.077 -0.2382  0.4430 -0.1741
 4816TIP3    H135939   2.465   1.853   2.061 -1.0668  0.2632  3.2531
 4816TIP3    H235940   2.481   1.991   2.120  1.3846  1.3182  0.3078
 4817TIP3   OH235941   3.277   3.261   2.520  0.2940 -0.2152 -0.0926
 4817TIP3    H135942   3.251   3.183   2.569 -3.0547 -0.1556 -1.5470
 4817TIP3    H235943   3.250   3.243   2.430 -0.8335  2.7011 -0.4181
 4818TIP3   OH235944   0.392   5.513   2.061 -0.4880 -0.4047 -0.5088
 4818TIP3    H135945   0.435   5.597   2.047  1.2533 -1.4257 -1.6942
 4818TIP3    H235946   0.328   5.529   2.131  1.0963  1.4402  0.5878
 4819TIP3   OH235947   4.389   5.891  12.793 -0.0564 -0.2823  0.1652
 4819TIP3    H135948   4.345   5.876  12.877  0.1275 -1.4248  0.0649
 4819TIP3    H235949   4.481   5.872  12.811 -0.1220 -1.2173 -0.4657
 4820TIP3   OH235950   0.119   6.537  12.711 -0.4087 -0.3195  0.0975
 4820TIP3    H135951   0.055   6.594  12.668  0.3755  1.6310  1.3867
 4820TIP3    H235952   0.202   6.581  12.698 -0.0279 -0.1032  2.7932
 4821TIP3   OH235953   1.907   1.202   4.794 -0.5209  0.0655 -0.2414
 4821TIP3    H135954   2.002   1.197   4.780 -0.3439  0.2006  0.8621
 4821TIP3    H235955   1.887   1.128   4.852 -1.2771 -0.6446 -1.3619
 4822TIP3   OH235956   1.653   3.314  10.424 -0.9078  0.1482  0.3504
 4822TIP3    H135957   1.658   3.219  10.429  1.1791  0.0489 -1.6235
 4822TIP3    H235958   1.724   3.344  10.481  0.5345  0.3123 -1.4267
 4823TIP3   OH235959   1.814   3.901   6.083 -0.1374 -0.1487  0.1647
 4823TIP3    H135960   1.776   3.891   6.170 -0.6693 -0.1828 -0.0727
 4823TIP3    H235961   1.877   3.829   6.076 -0.3511 -0.3565  0.3817
 4824TIP3   OH235962   5.510   6.589   6.082  0.1989 -0.2283  0.0262
 4824TIP3    H135963   5.435   6.617   6.135 -1.2039 -0.0519 -1.9438
 4824TIP3    H235964   5.577   6.566   6.146 -1.5798 -0.5402  1.8787
 4825TIP3   OH235965   5.221   1.521   1.795 -0.1491 -0.1546 -0.5083
 4825TIP3    H135966   5.164   1.451   1.826 -0.6583  0.3626 -0.2664
 4825TIP3    H235967   5.175   1.602   1.818  0.2446  0.2580 -1.1383
 4826TIP3   OH235968   5.869   5.323   1.604  0.1031  0.2112 -0.0802
 4826TIP3    H135969   5.815   5.295   1.530 -1.7155  0.7204  1.0056
 4826TIP3    H235970   5.891   5.414   1.583 -0.3995  0.3518 -0.0077
 4827TIP3   OH235971   2.368   4.147  14.047 -0.3076 -0.8916 -0.2819
 4827TIP3    H135972   2.396   4.120  14.134 -2.5352 -2.1478  0.1096
 4827TIP3    H235973   2.296   4.209  14.063 -0.2216 -0.5293 -1.2302
 4828TIP3   OH235974   2.599   4.496  15.696  0.4525  0.2860 -0.5422
 4828TIP3    H135975   2.571   4.532  15.781  2.2780 -1.2788  0.8106
 4828TIP3    H235976   2.589   4.401  15.705 -1.2389  0.1670 -2.8713
 4829TIP3   OH235977   4.907   2.232  15.062 -0.0938  0.4508  0.8570
 4829TIP3    H135978   4.893   2.253  15.155 -1.3659  0.3484  0.6992
 4829TIP3    H235979   4.849   2.292  15.015 -1.5755 -1.3691  0.2708
 4830TIP3   OH235980   3.493   5.043  12.616 -0.2102 -0.0906  0.3359
 4830TIP3    H135981   3.488   5.082  12.704  0.0777 -0.3698  0.4759
 4830TIP3    H235982   3.451   4.958  12.625  1.3607 -0.8668  0.6315
 4831TIP3   OH235983   5.758   4.728  11.957  0.4011 -0.0967 -0.1305
 4831TIP3    H135984   5.844   4.768  11.945 -0.3694  1.7156  0.0555
 4831TIP3    H235985   5.776   4.647  12.005  1.9829  0.2832 -0.0174
 4832TIP3   OH235986   3.661   3.634  12.737  0.8750 -0.2231 -0.0518
 4832TIP3    H135987   3.620   3.621  12.822 -1.3548 -0.5808 -1.1053
 4832TIP3    H235988   3.602   3.591  12.675  0.0234  3.5882 -2.2529
 4833TIP3   OH235989   0.642   1.417   3.333  0.2538 -0.4303  0.4678
 4833TIP3    H135990   0.653   1.325   3.357  0.7477 -0.6008 -0.3646
 4833TIP3    H235991   0.711   1.463   3.381 -0.2707 -0.4214  1.2312
 4834TIP3   OH235992   1.158   4.893   5.538 -0.0699  0.1536  0.3831
 4834TIP3    H135993   1.112   4.874   5.619 -2.0393 -0.9377 -0.8971
 4834TIP3    H235994   1.088   4.912   5.475  1.3315  0.1379 -1.2594
 4835TIP3   OH235995   4.951   1.322  15.213  0.7627  0.4781 -0.4329
 4835TIP3    H135996   4.922   1.242  15.258  1.4146  0.0372 -0.7748
 4835TIP3    H235997   5.025   1.353  15.265 -0.4217  1.7348  0.5794
 4836TIP3   OH235998   0.288   2.426   4.533  0.0749  0.2361  0.1966
 4836TIP3    H135999   0.245   2.500   4.491  0.8091  0.3173 -0.4472
 4836TIP3    H236000   0.228   2.398   4.601 -0.6431  0.8146 -0.1882
 4837TIP3   OH236001   6.073   1.093  10.496 -0.0420  0.2200 -0.2446
 4837TIP3    H136002   6.066   1.168  10.437 -1.6562 -0.2817 -0.7550
 4837TIP3    H236003   6.164   1.063  10.487 -0.0875  0.5230 -2.0385
 4838TIP3   OH236004   0.473   6.811  12.447 -0.6430  0.2236 -0.0357
 4838TIP3    H136005   0.513   6.869  12.512 -3.0665 -0.3472  2.1647
 4838TIP3    H236006   0.450   6.869  12.374  0.8407  1.1802  0.2231
 4839TIP3   OH236007   4.280   4.271  14.221  0.3666 -0.0860  0.1973
 4839TIP3    H136008   4.280   4.313  14.307  1.6765  1.7368 -0.6192
 4839TIP3    H236009   4.254   4.181  14.238 -0.3585  0.4670  2.3575
 4840TIP3   OH236010   3.180   6.790   4.517 -0.3049 -0.4389  0.8827
 4840TIP3    H136011   3.189   6.833   4.432 -0.2550 -0.0656  1.0747
 4840TIP3    H236012   3.228   6.846   4.578  1.1090 -1.5917  0.8783
 4841TIP3   OH236013   1.533   4.935   1.010  0.1908 -0.4325  0.4516
 4841TIP3    H136014   1.482   5.012   1.035 -0.5531 -0.6351 -0.4106
 4841TIP3    H236015   1.623   4.967   1.004 -0.0683  0.2974  0.3875
 4842TIP3   OH236016   4.289   3.713  14.344  0.1350  0.1456  0.8664
 4842TIP3    H136017   4.355   3.644  14.352 -0.5493 -0.9966 -2.0418
 4842TIP3    H236018   4.205   3.667  14.344 -0.4946  1.2456  1.1931
 4843TIP3   OH236019   2.838   3.654   0.268  0.1758 -0.3727 -0.0339
 4843TIP3    H136020   2.787   3.573   0.260 -0.1217 -0.0649 -1.6213
 4843TIP3    H236021   2.826   3.698   0.184  2.1444  0.2486 -0.0384
 4844TIP3   OH236022   6.619   0.849  11.690 -0.2799  0.6036 -0.0461
 4844TIP3    H136023   6.525   0.869  11.694  0.0560  2.0851  1.8618
 4844TIP3    H236024   6.640   0.852  11.597 -2.0742  0.4047 -0.5037
 4845TIP3   OH236025   6.488   6.653   1.988  0.2056  0.7133 -0.7632
 4845TIP3    H136026   6.444   6.709   2.051 -0.0263 -0.8346  0.5140
 4845TIP3    H236027   6.417   6.613   1.938  0.2740  0.1384 -0.4037
 4846TIP3   OH236028   5.445   4.299  12.215  0.6449 -0.3843  0.1737
 4846TIP3    H136029   5.442   4.350  12.296 -1.0066  0.5975 -0.4474
 4846TIP3    H236030   5.353   4.284  12.192  1.0092  0.4514 -2.1479
 4847TIP3   OH236031   3.259   1.374   1.757 -0.1599  0.2708 -0.3927
 4847TIP3    H136032   3.172   1.381   1.796 -0.1216 -2.8369  0.5305
 4847TIP3    H236033   3.247   1.402   1.666 -1.4481  2.4992  0.3907
 4848TIP3   OH236034   5.280   2.671  12.812 -0.1249 -0.0426 -0.4111
 4848TIP3    H136035   5.370   2.676  12.844  0.4400 -1.9855 -1.5360
 4848TIP3    H236036   5.226   2.670  12.891  0.9536 -0.4949  0.3406
 4849TIP3   OH236037   1.033   2.959  16.116  0.3768  0.2009 -0.0321
 4849TIP3    H136038   1.003   2.877  16.156  0.7842 -0.0357 -0.2122
 4849TIP3    H236039   1.048   3.018  16.190 -0.2696  0.2358  0.0778
 4850TIP3   OH236040   1.111   4.022  11.174 -0.5705 -0.5000  0.2137
 4850TIP3    H136041   1.110   4.049  11.082 -1.3146 -0.0025  0.3586
 4850TIP3    H236042   1.194   4.057  11.209 -0.9301  0.5147  0.0765
 4851TIP3   OH236043   1.768   1.015   2.127 -0.1847  0.3277 -0.2762
 4851TIP3    H136044   1.838   1.078   2.109 -0.1807  0.3771 -0.0890
 4851TIP3    H236045   1.724   1.004   2.043  0.7858 -0.6102 -0.6840
 4852TIP3   OH236046   0.007   4.965   1.945  0.3062  0.0598  0.1473
 4852TIP3    H136047   0.091   4.943   1.905  0.0345 -2.9107  0.9857
 4852TIP3    H236048   0.030   5.013   2.025  1.1695 -0.0690 -0.0134
 4853TIP3   OH236049   1.244   3.259  14.620 -0.1057  0.0936  0.0109
 4853TIP3    H136050   1.150   3.249  14.609 -0.0457 -1.5204  0.5549
 4853TIP3    H236051   1.277   3.283  14.533 -0.7288 -2.2510 -0.9727
 4854TIP3   OH236052   6.106   6.216  16.944 -0.1916  0.0975 -0.0670
 4854TIP3    H136053   6.114   6.171  17.028 -1.8254 -1.4633 -0.6743
 4854TIP3    H236054   6.017   6.251  16.943 -0.0739  0.4101 -1.0074
 4855TIP3   OH236055   0.919   0.752  17.027  0.2945  0.0197  0.8442
 4855TIP3    H136056   0.859   0.680  17.048  2.7015 -2.1633  0.7811
 4855TIP3    H236057   0.953   0.730  16.941  1.1566  1.2200  0.8515
 4856TIP3   OH236058   0.653   1.568  14.546 -0.6926  0.3757 -0.0512
 4856TIP3    H136059   0.578   1.567  14.606 -2.6609 -1.1185 -2.3031
 4856TIP3    H236060   0.693   1.482  14.557 -0.6009  0.3854 -0.3098
 4857TIP3   OH236061   3.778   4.863  12.267  0.1677 -0.1413 -0.5177
 4857TIP3    H136062   3.712   4.920  12.229 -1.3882 -0.2146  1.8910
 4857TIP3    H236063   3.762   4.866  12.361  2.9368 -1.0230  0.0805
 4858TIP3   OH236064   4.126   3.382  12.155 -0.0275  0.4424 -0.1143
 4858TIP3    H136065   4.176   3.408  12.077  0.9771  1.1704  0.7507
 4858TIP3    H236066   4.076   3.305  12.126  0.6489  0.4380 -1.3564
 4859TIP3   OH236067   4.220   3.169   0.227 -0.0202 -0.1385  0.1441
 4859TIP3    H136068   4.215   3.124   0.311 -0.4460 -1.6412 -0.6573
 4859TIP3    H236069   4.269   3.109   0.170  0.0781  0.7539 -0.7477
 4860TIP3   OH236070   4.572   3.654  16.948 -0.0095  0.6867 -1.1101
 4860TIP3    H136071   4.527   3.738  16.935 -0.2491  0.7042 -0.2286
 4860TIP3    H236072   4.663   3.678  16.965 -0.3746  0.9093  0.8058
 4861TIP3   OH236073   4.624   5.733  13.478  0.1077 -0.3245  0.0304
 4861TIP3    H136074   4.548   5.791  13.474 -0.5745 -1.0126  1.8412
 4861TIP3    H236075   4.667   5.756  13.561  1.5408 -0.3913 -0.6537
 4862TIP3   OH236076   5.455   0.904  13.168 -0.2562 -0.2493 -0.2683
 4862TIP3    H136077   5.435   0.997  13.165 -0.2486 -0.2439 -0.1434
 4862TIP3    H236078   5.548   0.899  13.144  0.7629  0.0992  3.1348
 4863TIP3   OH236079   4.808   4.001  17.090  0.7109 -0.0630 -0.0758
 4863TIP3    H136080   4.894   3.960  17.092  0.7818  0.1025  0.5272
 4863TIP3    H236081   4.766   3.973  17.171  1.4153  2.4393  1.2664
 4864TIP3   OH236082   6.093   3.390   6.679 -0.2651 -0.3603 -0.1055
 4864TIP3    H136083   6.107   3.296   6.688  1.5861 -0.0685  0.5742
 4864TIP3    H236084   6.174   3.423   6.641 -0.8836  0.9689 -0.3482
 4865TIP3   OH236085   2.951   6.246   2.271 -0.1884 -0.6712 -0.4438
 4865TIP3    H136086   3.026   6.270   2.216 -0.4713  0.6414 -0.3014
 4865TIP3    H236087   2.990   6.211   2.351  0.2283 -2.3228 -1.3288
 4866TIP3   OH236088   3.487   3.987  12.220  0.4624  0.3862  0.1412
 4866TIP3    H136089   3.451   4.068  12.182  0.9363  0.7356  0.4277
 4866TIP3    H236090   3.438   3.976  12.302 -0.6909 -0.4678 -0.6225
 4867TIP3   OH236091   1.146   1.423   1.751 -0.3069 -0.2587 -0.0864
 4867TIP3    H136092   1.110   1.510   1.772  1.2880  0.0509  1.6369
 4867TIP3    H236093   1.077   1.362   1.774 -0.1482  0.3702  2.3408
 4868TIP3   OH236094   4.102   6.777  13.105 -0.4004 -0.2694  0.2242
 4868TIP3    H136095   4.186   6.753  13.067 -0.2736 -1.7735  1.3488
 4868TIP3    H236096   4.113   6.866  13.136  1.1454 -0.7843  1.2721
 4869TIP3   OH236097   1.455   4.769   2.388  0.3624 -0.4319  0.1991
 4869TIP3    H136098   1.532   4.781   2.334 -0.5361 -0.1649 -1.0722
 4869TIP3    H236099   1.479   4.805   2.474  0.0758  4.5411 -1.4760
 4870TIP3   OH236100   2.715   0.735  11.998 -0.4322 -0.4331 -0.3934
 4870TIP3    H136101   2.689   0.653  12.040 -1.1446  0.7129  1.5389
 4870TIP3    H236102   2.787   0.769  12.052 -1.2977  1.0352 -0.0845
 4871TIP3   OH236103   0.080   4.392  11.971 -0.4116  0.6788 -0.0240
 4871TIP3    H136104  -0.003   4.436  11.951 -0.3856  0.5746 -0.3557
 4871TIP3    H236105   0.068   4.303  11.938 -0.0155  0.7809 -0.4449
 4872TIP3   OH236106   5.613   2.647  13.198 -0.2478  0.5757  0.2072
 4872TIP3    H136107   5.680   2.580  13.186 -1.0448  0.1615 -2.9910
 4872TIP3    H236108   5.661   2.730  13.196  0.2679  0.2756 -1.7770
 4873TIP3   OH236109   5.459   5.460   0.820  0.1597 -0.1728 -0.2754
 4873TIP3    H136110   5.472   5.398   0.749 -2.0263 -0.4877 -0.4798
 4873TIP3    H236111   5.377   5.505   0.798  1.7737  3.0279 -0.2793
 4874TIP3   OH236112   1.672   3.256   3.384  0.1577  0.1963  0.2246
 4874TIP3    H136113   1.655   3.163   3.369  0.3666 -0.2635  2.5124
 4874TIP3    H236114   1.619   3.278   3.460  1.1886  1.5883  0.5764
 4875TIP3   OH236115   1.664   2.498  13.402  0.1648  0.2133 -0.0529
 4875TIP3    H136116   1.651   2.467  13.312 -0.9698  1.0704 -0.2180
 4875TIP3    H236117   1.711   2.428  13.446 -0.9576 -1.0485 -0.8070
 4876TIP3   OH236118   4.683   6.070  12.643  0.2357  0.0647 -0.0384
 4876TIP3    H136119   4.674   6.016  12.722  0.2789  2.3013  1.5875
 4876TIP3    H236120   4.758   6.127  12.661 -0.1009  1.0107 -1.4682
 4877TIP3   OH236121   3.320   6.362  16.978 -0.1842  0.4729 -0.0526
 4877TIP3    H136122   3.225   6.360  16.985 -0.2050  2.3010  0.7669
 4877TIP3    H236123   3.339   6.324  16.892 -1.8709  2.5971 -1.4943
 4878TIP3   OH236124   6.774   1.501   4.548 -0.3771 -0.2044  0.6982
 4878TIP3    H136125   6.864   1.501   4.516 -0.4004  1.9746  0.4981
 4878TIP3    H236126   6.773   1.435   4.617  1.3385 -0.3404  0.6333
 4879TIP3   OH236127   3.129   6.601  14.481 -0.1560 -0.1276 -0.0009
 4879TIP3    H136128   3.103   6.686  14.516  1.4015  1.0616 -1.5302
 4879TIP3    H236129   3.163   6.553  14.556  0.7650  1.3790  0.5934
 4880TIP3   OH236130   1.696   4.401   1.039 -0.1727  0.2118 -0.3683
 4880TIP3    H136131   1.777   4.436   1.001 -1.0004  0.6863 -1.7716
 4880TIP3    H236132   1.713   4.307   1.048  0.7429  0.3963 -0.0906
 4881TIP3   OH236133   0.005   6.537   1.799  0.5700  0.0112  0.6398
 4881TIP3    H136134   0.079   6.562   1.744 -0.8375  1.6992 -0.5846
 4881TIP3    H236135   0.022   6.445   1.821  2.1173 -0.1849 -1.1013
 4882TIP3   OH236136   1.254   3.786  12.771  0.0328 -0.0644  0.1398
 4882TIP3    H136137   1.318   3.854  12.753  1.4686 -0.5129  2.9971
 4882TIP3    H236138   1.294   3.706  12.735  0.8624 -0.2434  1.4049
 4883TIP3   OH236139   5.430   3.129   4.092  0.2758  0.2122  0.1895
 4883TIP3    H136140   5.414   3.058   4.154  1.3430  0.6849  1.0332
 4883TIP3    H236141   5.468   3.086   4.015  1.9526 -0.0406  1.1160
 4884TIP3   OH236142   0.041   1.008  13.728 -0.3925  0.2605  0.1498
 4884TIP3    H136143   0.103   0.939  13.705  1.9635  1.7859  1.4493
 4884TIP3    H236144  -0.021   0.967  13.789  2.5769 -0.2425  3.1194
 4885TIP3   OH236145   3.527   5.418   1.995 -0.2710 -0.5248  0.6991
 4885TIP3    H136146   3.603   5.449   2.045 -0.3688  0.7937  0.0743
 4885TIP3    H236147   3.475   5.368   2.058  1.1078 -1.4733  1.1287
 4886TIP3   OH236148   6.068   4.760  13.047 -0.2771  0.4075 -0.7896
 4886TIP3    H136149   6.058   4.681  13.100  0.8637  0.8587  0.1410
 4886TIP3    H236150   6.131   4.814  13.095  0.1945  1.1841 -2.2141
 4887TIP3   OH236151   6.635   2.175  12.004 -0.1124  0.2363  0.1372
 4887TIP3    H136152   6.606   2.241  12.067 -0.5318  1.6654 -1.4851
 4887TIP3    H236153   6.718   2.209  11.970  1.1324 -1.4863  1.2858
 4888TIP3   OH236154   1.820   6.084   3.501  0.3854 -0.3197 -0.1442
 4888TIP3    H136155   1.900   6.079   3.552 -1.2077 -0.2692  2.5490
 4888TIP3    H236156   1.814   6.176   3.474  0.0524  0.2781  1.8112
 4889TIP3   OH236157   5.083   0.195  13.325 -0.0430  0.5384  0.2962
 4889TIP3    H136158   5.113   0.273  13.371  0.0768  1.4543 -1.2486
 4889TIP3    H236159   5.131   0.123  13.365  0.6611  1.3969  1.0363
 4890TIP3   OH236160   5.451   4.228  17.164 -0.1146 -0.4056 -0.2533
 4890TIP3    H136161   5.522   4.177  17.204  0.0667  0.7687  0.9688
 4890TIP3    H236162   5.371   4.182  17.189  0.1145 -0.8054 -0.2481
 4891TIP3   OH236163   2.814   0.970   3.595 -0.5757 -0.2376 -0.1896
 4891TIP3    H136164   2.860   0.892   3.564 -1.3177 -0.4593 -0.7484
 4891TIP3    H236165   2.769   1.004   3.518  1.8966  2.3336 -0.6647
 4892TIP3   OH236166   0.018   6.472  15.798 -0.4438 -0.6262 -0.1148
 4892TIP3    H136167  -0.033   6.414  15.854 -0.6556 -1.5711 -1.2328
 4892TIP3    H236168   0.082   6.512  15.856  0.4800 -2.8759  0.5260
 4893TIP3   OH236169   1.667   5.997  15.705  0.1507  0.1530  0.5030
 4893TIP3    H136170   1.747   6.013  15.753  1.5060 -1.1152 -1.1869
 4893TIP3    H236171   1.613   5.944  15.765  1.0559  0.0407  1.2328
 4894TIP3   OH236172   2.481   4.573   0.573  0.0175 -0.3089 -0.4135
 4894TIP3    H136173   2.476   4.480   0.552 -0.1398 -0.3785 -0.0789
 4894TIP3    H236174   2.402   4.590   0.625 -0.0333  0.0426 -0.5985
 4895TIP3   OH236175   1.781   0.785  15.771 -0.5832  0.2491  0.1130
 4895TIP3    H136176   1.804   0.764  15.680 -0.7651  0.7130 -0.0435
 4895TIP3    H236177   1.844   0.853  15.796  0.1552 -0.6287  0.6918
 4896TIP3   OH236178   1.827   4.895  11.977  0.1752 -0.4182 -0.2356
 4896TIP3    H136179   1.752   4.850  12.016  0.2449 -1.4447 -1.2502
 4896TIP3    H236180   1.816   4.883  11.883  1.3958 -0.2003 -0.4215
 4897TIP3   OH236181   0.403   1.900   3.069 -0.2212 -0.2148 -0.5552
 4897TIP3    H136182   0.489   1.937   3.051 -0.8756  1.9157  0.4070
 4897TIP3    H236183   0.357   1.967   3.119 -2.7238 -0.9673 -1.6514
 4898TIP3   OH236184   2.445   0.523   4.975 -0.0661 -0.2893  0.1451
 4898TIP3    H136185   2.406   0.595   5.025 -0.2401 -0.2269 -0.0804
 4898TIP3    H236186   2.523   0.561   4.935  1.1920 -0.8269  1.9278
 4899TIP3   OH236187   4.048   0.831   5.252 -0.0266  0.4291  0.4620
 4899TIP3    H136188   4.030   0.904   5.193  0.8183  0.4219  0.1848
 4899TIP3    H236189   4.109   0.775   5.203 -1.8410 -1.2944  0.0313
 4900TIP3   OH236190   0.154   4.399  12.235  0.1964 -0.2524  0.0631
 4900TIP3    H136191   0.076   4.447  12.263  0.2382 -0.2551  0.1818
 4900TIP3    H236192   0.147   4.397  12.139 -1.3845 -2.5782  0.1220
 4901TIP3   OH236193   6.693   3.448  13.879 -0.1275  0.1796 -0.1309
 4901TIP3    H136194   6.708   3.465  13.972 -0.2289  0.5529 -0.1836
 4901TIP3    H236195   6.773   3.403  13.850  0.1280  0.5417  0.0103
 4902TIP3   OH236196   0.951   3.524   4.361  0.1129 -0.8979  0.5762
 4902TIP3    H136197   1.013   3.480   4.420 -0.3242 -1.1162  0.8730
 4902TIP3    H236198   0.907   3.588   4.416  1.6957  0.9146 -0.1359
 4903TIP3   OH236199   3.880   2.885  14.840 -0.0094  0.3338 -0.4378
 4903TIP3    H136200   3.878   2.808  14.896  1.0656  0.6031 -0.0041
 4903TIP3    H236201   3.832   2.952  14.889  1.3397  0.7139  0.4174
 4904TIP3   OH236202   2.341   3.701   2.547  0.4908 -0.0670  0.0136
 4904TIP3    H136203   2.276   3.753   2.595  1.9318  1.7521  0.1426
 4904TIP3    H236204   2.424   3.745   2.566  1.5908 -1.5487 -1.1661
 4905TIP3   OH236205   4.941   1.611   5.829  0.9287 -0.0966  0.0476
 4905TIP3    H136206   4.867   1.556   5.803  0.6724  0.6501 -0.8279
 4905TIP3    H236207   4.966   1.658   5.749  1.2016  0.9995  0.7579
 4906TIP3   OH236208   4.519   5.867   1.615  0.2567 -0.4379 -0.6870
 4906TIP3    H136209   4.496   5.785   1.572  0.4129 -0.7584 -0.1642
 4906TIP3    H236210   4.606   5.889   1.582  0.2238 -0.4923 -0.8094
 4907TIP3   OH236211   5.328   2.950   5.026 -0.2086 -0.3468  0.1394
 4907TIP3    H136212   5.294   2.860   5.023 -1.9742  0.1251  2.6112
 4907TIP3    H236213   5.409   2.943   5.077 -1.5505 -0.3260  2.4103
 4908TIP3   OH236214   2.074   4.628  11.093  0.1216 -0.2503  0.4356
 4908TIP3    H136215   2.029   4.694  11.040  1.2841 -0.1414 -0.4524
 4908TIP3    H236216   2.096   4.559  11.031 -0.2051 -1.0242  1.1703
 4909TIP3   OH236217   1.475   4.055   1.964 -0.1951 -0.4851 -0.3730
 4909TIP3    H136218   1.501   3.985   2.024  0.1223 -1.5851 -1.7302
 4909TIP3    H236219   1.558   4.097   1.940 -0.4555  0.9709  1.0940
 4910TIP3   OH236220   4.834   4.936   5.549  0.3887  0.2117  0.1329
 4910TIP3    H136221   4.782   4.856   5.556 -0.0217  0.6492  3.7428
 4910TIP3    H236222   4.901   4.915   5.483  0.1027 -2.9891  0.6873
 4911TIP3   OH236223   5.350   5.125   0.918 -0.3187  0.5182  0.4380
 4911TIP3    H136224   5.381   5.152   1.004 -0.0236  0.7593  0.2583
 4911TIP3    H236225   5.368   5.200   0.861 -0.8450  0.4983  0.2410
 4912TIP3   OH236226   6.678   4.321   6.930 -0.5373 -0.0992 -0.7166
 4912TIP3    H136227   6.734   4.245   6.913  1.3725  1.5238 -2.1682
 4912TIP3    H236228   6.657   4.355   6.843 -2.2617  0.4626 -0.1292
 4913TIP3   OH236229   6.245   6.568   3.953  0.1856 -0.3820 -0.3335
 4913TIP3    H136230   6.158   6.558   3.991  0.2102 -2.1777 -0.6558
 4913TIP3    H236231   6.300   6.600   4.024 -0.3836 -0.9032  0.3486
 4914TIP3   OH236232   5.139   0.854  11.847  0.4496 -0.0563 -0.6933
 4914TIP3    H136233   5.149   0.941  11.887  1.1403 -1.2095  1.8598
 4914TIP3    H236234   5.050   0.854  11.811  0.0524  1.3665  0.2012
 4915TIP3   OH236235   2.039   6.382  12.939  0.4626  0.2865 -0.4487
 4915TIP3    H136236   2.034   6.430  12.856  1.8254  0.7583 -0.2843
 4915TIP3    H236237   2.069   6.295  12.915 -0.2188  0.0703 -0.5502
 4916TIP3   OH236238   2.820   4.040  17.271  1.0343  0.6347 -0.1819
 4916TIP3    H136239   2.749   4.094  17.238  2.9538  2.4809 -1.5043
 4916TIP3    H236240   2.808   4.041  17.366 -1.7406 -0.7229 -0.4029
 4917TIP3   OH236241   0.137   0.295  12.831  0.0319 -0.0024 -0.1303
 4917TIP3    H136242   0.135   0.388  12.854 -1.1970 -0.4559  1.8722
 4917TIP3    H236243   0.072   0.286  12.762 -0.0659  0.5829 -0.1207
 4918TIP3   OH236244   1.723   2.143  15.799 -0.6028 -0.6118 -0.0405
 4918TIP3    H136245   1.681   2.163  15.883 -1.1545  0.1546 -0.4912
 4918TIP3    H236246   1.817   2.150  15.818 -0.7245  2.0372 -0.0271
 4919TIP3   OH236247   1.257   0.607   2.794  0.1149  0.4829  0.3247
 4919TIP3    H136248   1.280   0.579   2.883  2.0148  0.9922  0.0457
 4919TIP3    H236249   1.262   0.703   2.798  0.0926  0.5126 -0.3051
 4920TIP3   OH236250   0.088   4.025   1.207 -0.1124  0.1189  0.0128
 4920TIP3    H136251   0.062   4.032   1.299  2.8578  1.2155  0.8677
 4920TIP3    H236252   0.025   4.080   1.160 -0.4314  1.2658  1.6947
 4921TIP3   OH236253   6.450   1.613   6.113  0.1416  0.5243 -0.1129
 4921TIP3    H136254   6.482   1.597   6.202  0.0304 -0.2369 -0.2063
 4921TIP3    H236255   6.390   1.688   6.122  0.1735  0.4882  0.4383
 4922TIP3   OH236256   2.323   2.967   0.286 -0.1211 -0.8164 -0.1046
 4922TIP3    H136257   2.240   3.013   0.302 -0.2836 -1.3691  0.6808
 4922TIP3    H236258   2.389   3.021   0.331  0.4605  1.2748 -3.1552
 4923TIP3   OH236259   6.107   5.578   5.944 -0.0722 -0.0350  0.4758
 4923TIP3    H136260   6.101   5.495   5.992  0.4016 -0.6188 -0.4364
 4923TIP3    H236261   6.034   5.630   5.976 -1.5243 -1.5236 -0.2919
 4924TIP3   OH236262   2.269   6.148  15.708 -0.4373  0.1062  0.1643
 4924TIP3    H136263   2.351   6.132  15.663  0.1107  0.4742  1.0038
 4924TIP3    H236264   2.214   6.072  15.687  0.9189 -1.2597  1.4107
 4925TIP3   OH236265   1.873   4.124   4.487 -0.8398 -0.0847  0.6709
 4925TIP3    H136266   1.810   4.173   4.435 -0.1598 -0.1961 -0.2979
 4925TIP3    H236267   1.823   4.089   4.560 -1.6424  0.8069  0.5645
 4926TIP3   OH236268   0.856   0.621   3.500 -0.1623 -0.1377  0.3314
 4926TIP3    H136269   0.786   0.574   3.544  0.4198 -0.1678  1.2488
 4926TIP3    H236270   0.927   0.626   3.565 -0.1758  1.9609  0.2529
 4927TIP3   OH236271   6.667   1.490  16.695 -0.9421 -0.1932  0.5025
 4927TIP3    H136272   6.580   1.466  16.665 -1.0708  0.3877  0.4086
 4927TIP3    H236273   6.655   1.573  16.741 -0.6163 -0.6550  1.4683
 4928TIP3   OH236274   2.305   3.410  11.486  0.4473 -0.5714  0.3405
 4928TIP3    H136275   2.209   3.411  11.491  0.4143  1.4043 -0.1083
 4928TIP3    H236276   2.332   3.369  11.569 -0.7560 -2.6554 -0.2096
 4929TIP3   OH236277   4.238   4.841   6.487  0.2364  0.4155  0.2006
 4929TIP3    H136278   4.300   4.780   6.446  1.7331  1.0908  1.3495
 4929TIP3    H236279   4.240   4.817   6.580 -0.9992  0.6673  0.3013
 4930TIP3   OH236280   2.561   1.261   1.466  0.5705  0.0361 -0.4414
 4930TIP3    H136281   2.632   1.303   1.417 -0.0304  1.1408 -0.4027
 4930TIP3    H236282   2.552   1.174   1.426  1.9540 -0.1365 -0.4229
 4931TIP3   OH236283   3.349   1.895   1.267  0.4627  0.1743  0.5425
 4931TIP3    H136284   3.275   1.905   1.326  0.3349  1.2754  0.2155
 4931TIP3    H236285   3.370   1.802   1.270 -2.0049 -0.5059 -0.6577
 4932TIP3   OH236286   2.021   1.365   0.568  0.2572 -0.6451  0.0980
 4932TIP3    H136287   1.958   1.437   0.567  2.0110  0.9988 -1.8049
 4932TIP3    H236288   2.049   1.355   0.477  0.2377 -3.6904  0.2974
 4933TIP3   OH236289   1.729   5.990   2.938 -0.6582 -0.3969 -0.4387
 4933TIP3    H136290   1.787   6.037   2.997 -1.9166 -0.7431  1.1473
 4933TIP3    H236291   1.646   6.038   2.943 -1.0944 -1.0504 -1.1263
 4934TIP3   OH236292   2.700   2.592   4.669 -0.0675  0.2725 -0.2585
 4934TIP3    H136293   2.646   2.553   4.601 -0.2297 -0.2869  0.1823
 4934TIP3    H236294   2.780   2.620   4.623  0.6612 -1.8333 -0.3855
 4935TIP3   OH236295   4.633   4.071   1.745 -0.2695  0.0500  1.1091
 4935TIP3    H136296   4.564   4.111   1.692  1.8026 -0.3416 -2.2266
 4935TIP3    H236297   4.593   4.056   1.830 -3.3453  2.4742  0.2763
 4936TIP3   OH236298   2.390   2.595  13.507 -0.0685 -0.1532 -0.3109
 4936TIP3    H136299   2.391   2.642  13.424  2.7113  2.2774  0.9259
 4936TIP3    H236300   2.311   2.625  13.551  1.4052  3.2863  0.2603
 4937TIP3   OH236301   0.466   3.648  11.758 -0.7812  0.1670  0.1158
 4937TIP3    H136302   0.427   3.610  11.679 -0.2304 -0.2399  0.0342
 4937TIP3    H236303   0.439   3.589  11.829  0.1138 -0.4241 -0.0175
 4938TIP3   OH236304   3.626   5.549   3.406 -0.4249 -0.6116  0.0125
 4938TIP3    H136305   3.722   5.553   3.411 -0.4894  1.5327  0.7740
 4938TIP3    H236306   3.608   5.503   3.324  1.2453 -0.9957 -0.1835
 4939TIP3   OH236307   2.089   5.141   1.740 -0.3768 -0.2415  0.1017
 4939TIP3    H136308   2.028   5.135   1.814  2.1162 -2.2422  2.1740
 4939TIP3    H236309   2.174   5.159   1.779  0.9514 -0.5993 -2.3709
 4940TIP3   OH236310   0.998   1.473   2.419 -0.0017 -0.2076  0.0245
 4940TIP3    H136311   0.945   1.536   2.371  0.5825 -0.3862 -0.8896
 4940TIP3    H236312   1.023   1.519   2.500 -1.7556 -0.2327  0.6202
 4941TIP3   OH236313   3.538   2.470   5.041 -0.6913 -0.7795 -0.0974
 4941TIP3    H136314   3.599   2.529   4.996 -0.1326 -0.4170  1.0961
 4941TIP3    H236315   3.550   2.489   5.134 -2.5870 -0.7477  0.1806
 4942TIP3   OH236316   2.410   0.903  13.689  0.2149  0.1026 -0.6810
 4942TIP3    H136317   2.446   0.858  13.613  1.9935  0.7539 -0.2681
 4942TIP3    H236318   2.386   0.990  13.657  2.2801  0.8870 -0.2712
 4943TIP3   OH236319   1.125   3.405   4.902  0.4460  0.0994 -0.6555
 4943TIP3    H136320   1.208   3.443   4.873 -0.6588  2.3395 -1.1026
 4943TIP3    H236321   1.130   3.406   4.997  1.4029 -1.0078 -0.6617
 4944TIP3   OH236322   4.042   3.768   0.897 -0.3896  0.6581  0.0394
 4944TIP3    H136323   4.026   3.847   0.949 -0.3274 -0.1224  1.2734
 4944TIP3    H236324   4.137   3.768   0.883 -0.5788  1.6683 -1.4067
 4945TIP3   OH236325   5.845   4.680   5.649  0.9135  0.2740 -0.4190
 4945TIP3    H136326   5.928   4.727   5.658  1.6772 -0.8855 -1.2548
 4945TIP3    H236327   5.826   4.682   5.556 -0.4786  1.2744 -0.1563
 4946TIP3   OH236328   4.821   6.210   6.013  0.2265  0.0586 -0.2819
 4946TIP3    H136329   4.843   6.153   5.940  0.2136  0.0932 -0.3124
 4946TIP3    H236330   4.900   6.211   6.067  0.9938  1.7055 -1.3615
 4947TIP3   OH236331   5.190   2.010   2.055  0.1508  0.4334  0.3191
 4947TIP3    H136332   5.174   2.104   2.058  0.5654  0.5527 -0.6062
 4947TIP3    H236333   5.109   1.970   2.087  0.1195  1.1091  1.0970
 4948TIP3   OH236334   3.958   5.013   1.131 -0.7471  0.1957 -0.1535
 4948TIP3    H136335   3.983   4.943   1.071  0.1658 -0.1825  0.6480
 4948TIP3    H236336   3.983   5.094   1.085  1.2685 -0.1297  0.2532
 4949TIP3   OH236337   3.969   1.900  13.724 -0.4296 -0.8361 -0.0231
 4949TIP3    H136338   3.991   1.991  13.706  0.7003 -1.3003 -1.2519
 4949TIP3    H236339   3.922   1.901  13.807  1.2923  0.6680  1.0126
 4950TIP3   OH236340   6.456   1.868   1.212  0.5986  0.4236  0.0201
 4950TIP3    H136341   6.435   1.900   1.300 -2.5394 -0.4505 -0.2879
 4950TIP3    H236342   6.402   1.921   1.154  0.0948 -1.1871 -1.0417
 4951TIP3   OH236343   3.742   5.092   3.870 -0.2673  0.5202 -0.2097
 4951TIP3    H136344   3.737   5.153   3.796  0.7190 -0.4517 -1.1118
 4951TIP3    H236345   3.804   5.132   3.930 -1.2937  1.4597  0.2647
 4952TIP3   OH236346   5.965   3.338  17.116  0.8518 -0.0786  0.2782
 4952TIP3    H136347   6.031   3.273  17.138 -0.2021 -1.3300 -0.1283
 4952TIP3    H236348   5.918   3.354  17.198 -0.4155 -1.6447 -0.1067
 4953TIP3   OH236349   5.289   4.407  15.435 -1.4398 -0.3088  0.1133
 4953TIP3    H136350   5.255   4.495  15.423 -1.3791 -0.3057 -0.0352
 4953TIP3    H236351   5.274   4.388  15.527 -0.5895  0.2163  0.3702
 4954TIP3   OH236352   2.655   2.257   4.966  0.5761 -0.4457 -0.7957
 4954TIP3    H136353   2.735   2.222   4.926  0.9173 -0.7735  0.1398
 4954TIP3    H236354   2.667   2.242   5.059  0.4518  1.5915 -0.4015
 4955TIP3   OH236355   0.939   2.560  14.320 -0.1054  0.1490 -0.0567
 4955TIP3    H136356   0.963   2.631  14.260  1.8725  0.9493  1.5682
 4955TIP3    H236357   1.022   2.525  14.351 -1.0482 -2.6063 -0.4108
 4956TIP3   OH236358   2.611   2.470  15.610 -0.3107  0.0868  0.0560
 4956TIP3    H136359   2.650   2.557  15.622 -0.7589  0.0386  2.4645
 4956TIP3    H236360   2.532   2.472  15.664 -0.9895 -1.4254 -0.8337
 4957TIP3   OH236361   4.142   1.044   2.791 -0.5620  0.1196 -0.0111
 4957TIP3    H136362   4.073   0.992   2.832  0.3440 -0.8051  0.4033
 4957TIP3    H236363   4.162   1.112   2.855 -0.1833 -0.4204  0.4628
 4958TIP3   OH236364   5.414   5.479   1.315  0.1393  0.1935  0.4360
 4958TIP3    H136365   5.375   5.402   1.356  2.0352 -0.9562  0.2143
 4958TIP3    H236366   5.415   5.546   1.383 -1.3169 -0.0372  0.7037
 4959TIP3   OH236367   3.050   0.512  13.256  0.3841  0.0096  0.2663
 4959TIP3    H136368   3.130   0.504  13.204  1.0217 -2.7619  1.4656
 4959TIP3    H236369   2.980   0.481  13.198  0.2698  1.5864 -0.4855
 4960TIP3   OH236370   2.873   4.381  12.795  0.5506  0.0801 -0.0396
 4960TIP3    H136371   2.841   4.380  12.885  1.1508 -0.0721  0.1710
 4960TIP3    H236372   2.795   4.399  12.742 -0.1483 -1.5074  0.3778
 4961TIP3   OH236373   5.321   6.364  11.845 -0.0990 -0.0487 -0.0471
 4961TIP3    H136374   5.238   6.316  11.846 -0.0260 -0.1691  0.4377
 4961TIP3    H236375   5.321   6.415  11.926  1.9443 -2.9237  1.9750
 4962TIP3   OH236376   3.414   6.179  11.500 -0.2091  0.4454 -0.1201
 4962TIP3    H136377   3.364   6.252  11.463  1.9886  1.9274 -0.3583
 4962TIP3    H236378   3.464   6.144  11.425 -0.4416 -0.6304  0.2134
 4963TIP3   OH236379   5.442   2.507  14.348  0.6097  0.6707 -0.7186
 4963TIP3    H136380   5.391   2.569  14.296  0.4642  2.2324  1.1283
 4963TIP3    H236381   5.504   2.469  14.287 -0.8318  0.9211 -2.4137
 4964TIP3   OH236382   4.044   5.220   3.031 -0.4059  0.7698  0.3878
 4964TIP3    H136383   4.030   5.129   3.006  0.0517  0.3072  1.7287
 4964TIP3    H236384   4.075   5.262   2.951 -0.1464 -0.3723 -0.1339
 4965TIP3   OH236385   4.093   2.946   2.535  0.2879  0.4440 -0.0636
 4965TIP3    H136386   4.179   2.920   2.570  0.8124 -0.7785 -2.1198
 4965TIP3    H236387   4.052   2.864   2.509 -1.5668  1.0146  0.9266
 4966TIP3   OH236388   6.182   0.111  15.199 -0.4702 -0.1630  0.1710
 4966TIP3    H136389   6.104   0.063  15.170 -0.7286 -0.0233  0.6345
 4966TIP3    H236390   6.151   0.167  15.270 -1.0391  3.5712 -2.7437
 4967TIP3   OH236391   0.184   1.111  10.825  0.5387 -0.0678  0.2169
 4967TIP3    H136392   0.112   1.172  10.842  0.2639 -0.6687  1.2969
 4967TIP3    H236393   0.263   1.161  10.846  0.2803 -0.2844  1.8166
 4968TIP3   OH236394   5.540   4.519   3.638  0.3629 -0.5702  0.1758
 4968TIP3    H136395   5.567   4.502   3.548 -0.3101 -0.3669 -0.0656
 4968TIP3    H236396   5.482   4.447   3.661 -0.7940  0.2406 -0.1279
 4969TIP3   OH236397   2.643   4.152  14.008 -0.1574 -0.1091  0.3123
 4969TIP3    H136398   2.665   4.242  14.033 -2.6507 -0.0000  2.5294
 4969TIP3    H236399   2.548   4.148  14.013 -0.4118 -2.0783 -2.8990
 4970TIP3   OH236400   6.077   3.082  11.334 -0.3115  0.5043 -0.0331
 4970TIP3    H136401   6.048   3.173  11.330 -0.7179  0.4228  0.7339
 4970TIP3    H236402   6.079   3.062  11.428 -1.5889 -0.6802 -0.2187
 4971TIP3   OH236403   5.204   3.087  15.389  0.1589  0.1837 -0.4324
 4971TIP3    H136404   5.246   3.145  15.325  0.4034 -0.4177 -0.8226
 4971TIP3    H236405   5.170   3.015  15.337  0.3017 -0.2787  0.1098
 4972TIP3   OH236406   0.105   4.773   5.628  0.1879  0.4814 -0.2698
 4972TIP3    H136407   0.090   4.797   5.536  0.2133  0.2063 -0.3491
 4972TIP3    H236408   0.178   4.827   5.656 -0.2332  1.0304 -0.2199
 4973TIP3   OH236409   3.455   5.754  12.954 -0.2942  0.1702 -0.0467
 4973TIP3    H136410   3.373   5.704  12.948 -0.3494  0.4432 -3.0221
 4973TIP3    H236411   3.426   5.846  12.955 -0.0597  0.2391  0.6562
 4974TIP3   OH236412   2.116   4.712   3.421 -0.5106 -0.8422 -0.2259
 4974TIP3    H136413   2.152   4.775   3.484  0.0110 -1.8470  0.5143
 4974TIP3    H236414   2.075   4.766   3.354  0.5612  0.3042  0.0057
 4975TIP3   OH236415   4.246   4.417  11.859  0.1179 -0.4095 -0.2715
 4975TIP3    H136416   4.187   4.467  11.916 -0.6946 -0.9589 -0.6177
 4975TIP3    H236417   4.189   4.358  11.811  0.9043 -0.5976 -0.9936
 4976TIP3   OH236418   0.653   4.125   0.880 -0.1071  0.3612  0.9490
 4976TIP3    H136419   0.689   4.207   0.845 -0.5034  0.2350  0.2120
 4976TIP3    H236420   0.689   4.057   0.823 -2.2377  0.3139 -0.4666
 4977TIP3   OH236421   3.867   0.394  13.286  0.7085  0.0089 -0.1180
 4977TIP3    H136422   3.820   0.338  13.225  1.6079 -0.4945 -0.3788
 4977TIP3    H236423   3.861   0.348  13.370 -0.7502  0.8311  0.2534
 4978TIP3   OH236424   6.592   1.690  10.597  0.4717 -0.1046  0.0195
 4978TIP3    H136425   6.526   1.624  10.579  0.5274  0.4822 -2.8861
 4978TIP3    H236426   6.675   1.642  10.598  0.1659 -0.7090  2.7898
 4979TIP3   OH236427   5.915   2.369   3.079 -0.0929 -0.4073 -0.5677
 4979TIP3    H136428   5.917   2.289   3.131 -0.7145  0.1736  0.3824
 4979TIP3    H236429   5.823   2.383   3.058 -0.1013  0.4799 -0.0190
 4980TIP3   OH236430   2.287   4.576   0.757  0.3667 -0.1247  0.0008
 4980TIP3    H136431   2.348   4.600   0.826 -0.7497 -0.6149  1.1974
 4980TIP3    H236432   2.203   4.613   0.785 -0.1696 -0.5841 -0.9418
 4981TIP3   OH236433   0.658   1.251  12.691 -0.0109  0.1083 -0.3491
 4981TIP3    H136434   0.639   1.216  12.778  0.7934  0.0740 -0.1801
 4981TIP3    H236435   0.695   1.338  12.708  0.9103 -0.2212 -0.6046
 4982TIP3   OH236436   5.393   1.062  12.100  0.8846  0.7597 -0.2988
 4982TIP3    H136437   5.387   1.142  12.153  0.5034  0.6757 -0.2062
 4982TIP3    H236438   5.376   0.991  12.162 -2.4933  0.7965 -0.9879
 4983TIP3   OH236439   0.421   5.086  14.528 -0.6000 -0.2393  0.8812
 4983TIP3    H136440   0.405   5.142  14.452 -0.8544  1.1532  1.9241
 4983TIP3    H236441   0.495   5.031  14.502 -0.8262  0.0419 -0.4465
 4984TIP3   OH236442   2.545   3.751  13.734 -0.2335  0.2886 -0.3028
 4984TIP3    H136443   2.467   3.767  13.680 -0.7596 -0.4089  0.2374
 4984TIP3    H236444   2.569   3.838  13.766 -0.6143  0.5546 -0.7129
 4985TIP3   OH236445   2.814   3.746  10.622  0.0883 -0.4351 -0.3215
 4985TIP3    H136446   2.785   3.655  10.612 -0.8569 -0.0412 -1.3737
 4985TIP3    H236447   2.880   3.759  10.555 -0.7028 -0.0000 -1.0427
 4986TIP3   OH236448   5.892   0.448  12.589 -0.0114 -0.0586  0.1063
 4986TIP3    H136449   5.926   0.475  12.504 -0.8600 -0.2397 -0.2983
 4986TIP3    H236450   5.813   0.500  12.601  1.4455  1.9104  1.9848
 4987TIP3   OH236451   0.737   6.226   1.387 -0.0130 -0.3069 -0.3292
 4987TIP3    H136452   0.816   6.174   1.374  0.4025  0.1882  0.1381
 4987TIP3    H236453   0.669   6.180   1.338  0.6070 -0.6359 -0.9007
 4988TIP3   OH236454   1.552   2.125  11.723 -0.7564  0.6923  0.3002
 4988TIP3    H136455   1.520   2.152  11.638  1.0336 -0.4267 -0.8018
 4988TIP3    H236456   1.474   2.095  11.770 -1.6257  0.2426 -1.3721
 4989TIP3   OH236457   3.529   2.107   0.983  0.3676 -0.1777 -0.0477
 4989TIP3    H136458   3.592   2.150   0.925 -0.5907 -1.7375 -2.4096
 4989TIP3    H236459   3.445   2.118   0.939 -0.3740 -1.6519  0.9139
 4990TIP3   OH236460   2.340   1.376  15.263  0.4332 -0.1161 -0.0855
 4990TIP3    H136461   2.335   1.397  15.356  1.8669 -2.0211  0.4920
 4990TIP3    H236462   2.346   1.461  15.220 -0.5760  0.8241  1.5088
 4991TIP3   OH236463   2.495   5.728  11.235  0.2428 -0.4748  0.1130
 4991TIP3    H136464   2.445   5.761  11.309  0.4762  0.6159 -0.2028
 4991TIP3    H236465   2.435   5.670  11.189 -0.6267  0.5406 -0.0644
 4992TIP3   OH236466   4.085   6.231   1.567 -0.4607 -0.6355  0.6619
 4992TIP3    H136467   4.034   6.168   1.515 -1.9152  2.0472 -1.4629
 4992TIP3    H236468   4.175   6.218   1.539 -0.9987 -0.4591 -1.2873
 4993TIP3   OH236469   5.309   0.492  13.097  0.2194  0.5312 -0.2450
 4993TIP3    H136470   5.361   0.507  13.176 -2.6652  0.6452  1.8350
 4993TIP3    H236471   5.274   0.578  13.075 -1.7591 -0.0050  0.5591
 4994TIP3   OH236472   2.059   2.670  17.292  0.0493 -0.6338  0.5425
 4994TIP3    H136473   2.060   2.665  17.196 -2.2187 -0.8506  0.4781
 4994TIP3    H236474   2.093   2.758  17.312 -0.2378 -0.2667 -0.5087
 4995TIP3   OH236475   6.777   3.087  15.344 -0.9247 -0.3479  0.7043
 4995TIP3    H136476   6.758   3.154  15.409  2.9288  1.9224 -0.1870
 4995TIP3    H236477   6.858   3.046  15.375  0.2212 -0.1871 -1.8057
 4996TIP3   OH236478   1.659   0.264   5.780  0.7633  0.1980 -0.5033
 4996TIP3    H136479   1.750   0.281   5.756  1.0674  2.2635  1.8165
 4996TIP3    H236480   1.611   0.270   5.697  2.6371 -0.6123 -1.7188
 4997TIP3   OH236481   6.559   6.610   1.702  0.1043  0.3174 -0.7334
 4997TIP3    H136482   6.645   6.630   1.741 -0.8282  1.2930  0.9802
 4997TIP3    H236483   6.499   6.669   1.747 -1.3683  0.2384 -2.4893
 4998TIP3   OH236484   3.859   4.087   3.556  0.2713  0.2621  0.1793
 4998TIP3    H136485   3.890   4.175   3.532 -1.9923  1.7456  2.1802
 4998TIP3    H236486   3.939   4.040   3.579  1.4751  2.3351  0.5714
 4999TIP3   OH236487   0.760   4.069  13.382 -0.0012 -0.4385 -0.2669
 4999TIP3    H136488   0.758   4.021  13.299 -0.9433 -1.2537  0.2102
 4999TIP3    H236489   0.672   4.059  13.418  1.0451 -2.2365  2.0187
 5000TIP3   OH236490   3.831   2.977  10.429 -0.3953 -0.0754 -0.3345
 5000TIP3    H136491   3.760   2.921  10.462 -0.3918 -1.4956 -2.5099
 5000TIP3    H236492   3.798   3.011  10.346  0.8361  0.6244 -0.5627
 5001TIP3   OH236493   3.943   5.457   5.844  0.2767 -0.3862 -0.4216
 5001TIP3    H136494   3.998   5.513   5.899 -0.2480 -0.7722  0.5315
 5001TIP3    H236495   3.926   5.380   5.899 -0.6898 -0.5528 -0.9376
 5002TIP3   OH236496   6.466   4.356  11.868 -0.6940  0.2868  0.4503
 5002TIP3    H136497   6.436   4.441  11.836 -0.8011 -0.0455 -0.3476
 5002TIP3    H236498   6.429   4.348  11.956 -0.8849  0.9555  0.4298
 5003TIP3   OH236499   1.756   2.093  16.887 -0.2416 -0.1045  0.0053
 5003TIP3    H136500   1.768   2.005  16.922  1.4920  0.6427  1.4130
 5003TIP3    H236501   1.729   2.078  16.796 -1.2356 -2.0730  0.5594
 5004TIP3   OH236502   0.879   5.662   5.320  0.2311  0.2008  0.1154
 5004TIP3    H136503   0.786   5.655   5.342  0.3675  0.9909  1.0145
 5004TIP3    H236504   0.915   5.576   5.342 -0.4284 -0.3710 -0.9921
 5005TIP3   OH236505   0.147   5.994   0.119  0.5810 -0.4618 -0.1580
 5005TIP3    H136506   0.229   5.969   0.078 -0.7275 -2.3958 -1.8133
 5005TIP3    H236507   0.126   5.920   0.177  1.2855  1.2224  2.3823
 5006TIP3   OH236508   6.592   2.271   2.907  0.9355 -0.2659  0.5367
 5006TIP3    H136509   6.527   2.274   2.837  0.4461  0.8395  1.0193
 5006TIP3    H236510   6.557   2.206   2.969  0.7109 -0.2847  0.3924
 5007TIP3   OH236511   4.510   3.032  12.999 -0.7425 -0.2837 -0.5185
 5007TIP3    H136512   4.505   3.127  13.010 -1.7959 -0.3400 -0.4295
 5007TIP3    H236513   4.542   2.999  13.083  0.0342  0.0146 -0.6857
 5008TIP3   OH236514   0.452   5.139   4.249 -0.0858 -0.0497 -0.3006
 5008TIP3    H136515   0.414   5.055   4.274 -1.1426  0.5697  0.2938
 5008TIP3    H236516   0.454   5.137   4.154  0.1759 -0.8623 -0.2845
 5009TIP3   OH236517   5.451   1.210  13.049 -0.2695  0.3812  0.3312
 5009TIP3    H136518   5.416   1.221  12.960  1.0034  0.8105 -0.1403
 5009TIP3    H236519   5.375   1.187  13.102 -0.9940 -0.2887 -0.9453
 5010TIP3   OH236520   3.359   0.627   2.265 -0.1990  0.2278  0.1819
 5010TIP3    H136521   3.288   0.615   2.327  1.2106  0.0516  1.8393
 5010TIP3    H236522   3.362   0.545   2.215  0.5869 -0.9402  2.0370
 5011TIP3   OH236523   5.849   2.767   4.206 -0.6391 -0.4417  0.3074
 5011TIP3    H136524   5.766   2.801   4.238  0.2184  0.4859  1.7135
 5011TIP3    H236525   5.838   2.672   4.204 -2.2574 -0.2523 -1.1935
 5012TIP3   OH236526   0.385   4.662  12.292  0.3018  0.2405 -0.0205
 5012TIP3    H136527   0.291   4.646  12.303  0.1503 -0.6602 -2.2159
 5012TIP3    H236528   0.390   4.733  12.228  1.1435  0.8514  0.6906
 5013TIP3   OH236529   1.188   3.073   5.193 -0.0097 -0.5357 -0.5644
 5013TIP3    H136530   1.172   3.056   5.286  1.9874  2.6533  0.5180
 5013TIP3    H236531   1.153   2.996   5.148 -2.7753 -1.3708  2.6306
 5014TIP3   OH236532   0.769   0.542   4.192 -0.1379  0.8699 -0.0675
 5014TIP3    H136533   0.823   0.608   4.148 -1.3635  2.3278  0.4831
 5014TIP3    H236534   0.686   0.545   4.144 -0.1976 -0.3233 -0.0476
 5015TIP3   OH236535   6.511   3.534   0.199 -0.1757  0.0838 -0.1785
 5015TIP3    H136536   6.470   3.451   0.172 -0.4504 -0.1825  0.9871
 5015TIP3    H236537   6.579   3.508   0.261  0.5942  0.6546 -0.7743
 5016TIP3   OH236538   0.126   6.174  14.974  0.1756  0.4310  0.8263
 5016TIP3    H136539   0.139   6.174  15.069  0.2599  0.7188  0.8153
 5016TIP3    H236540   0.162   6.090  14.945  0.3025  0.4141  1.0271
 5017TIP3   OH236541   2.836   6.421  14.175  0.4504 -0.2435 -0.7139
 5017TIP3    H136542   2.896   6.358  14.215 -1.2151 -1.9174 -0.6539
 5017TIP3    H236543   2.799   6.373  14.100 -0.6700  0.7633 -0.8284
 5018TIP3   OH236544   5.314   2.458   6.321  0.6840 -0.3124  0.1401
 5018TIP3    H136545   5.348   2.453   6.410  1.2349  0.1658 -0.0299
 5018TIP3    H236546   5.227   2.420   6.325  1.2518 -1.6174  0.5853
 5019TIP3   OH236547   3.676   0.235  13.144  0.0085 -0.1032  0.2939
 5019TIP3    H136548   3.582   0.220  13.138  0.0891 -0.0712 -2.3786
 5019TIP3    H236549   3.715   0.149  13.131  0.4020 -0.1492  1.5894
 5020TIP3   OH236550   3.742   3.124   0.848  0.2498  0.4466 -0.3014
 5020TIP3    H136551   3.669   3.134   0.786  0.2123  2.4860  0.0190
 5020TIP3    H236552   3.700   3.126   0.934  0.4086 -1.4119 -0.1323
 5021TIP3   OH236553   1.549   0.823   0.383 -0.5786  0.4737 -0.4193
 5021TIP3    H136554   1.612   0.848   0.450  0.8462 -1.2973 -1.0012
 5021TIP3    H236555   1.556   0.893   0.317  0.3724  0.6092 -0.2008
 5022TIP3   OH236556   0.497   6.766  16.277  0.0953  0.0408 -0.5084
 5022TIP3    H136557   0.502   6.730  16.365  1.3067  0.9293 -0.1835
 5022TIP3    H236558   0.526   6.695  16.220 -0.1734 -0.3615 -0.1509
 5023TIP3   OH236559   0.269   6.349  14.399 -0.3979 -0.3908  0.1312
 5023TIP3    H136560   0.314   6.293  14.337 -2.0557 -1.9223  0.2338
 5023TIP3    H236561   0.274   6.302  14.482  1.6607  1.5539  1.2149
 5024TIP3   OH236562   0.271   4.341  16.419  0.1546  0.3791 -0.3978
 5024TIP3    H136563   0.253   4.363  16.328  2.1910  4.0492 -0.0996
 5024TIP3    H236564   0.239   4.416  16.469 -1.3312 -1.7388  2.0539
 5025TIP3   OH236565   3.134   0.673   4.831  0.4863  0.1307  0.5519
 5025TIP3    H136566   3.163   0.605   4.770 -0.9681 -1.0871  1.1634
 5025TIP3    H236567   3.051   0.704   4.796  1.1852  1.7190  0.2237
 5026TIP3   OH236568   2.954   3.262  16.175 -0.0949 -0.5542 -0.0881
 5026TIP3    H136569   2.961   3.246  16.270 -0.3084 -0.0938  0.0080
 5026TIP3    H236570   2.951   3.357  16.168 -0.2550 -0.5965 -0.5519
 5027TIP3   OH236571   2.800   6.777  12.691 -0.5318 -0.9279  0.1886
 5027TIP3    H136572   2.786   6.727  12.771  0.8749 -1.0732  0.3723
 5027TIP3    H236573   2.850   6.718  12.635  1.1004  0.2023  0.3800
 5028TIP3   OH236574   2.567   3.738  15.198 -0.6549  0.3036 -0.2175
 5028TIP3    H136575   2.506   3.798  15.155 -0.4093  0.8228  0.1526
 5028TIP3    H236576   2.515   3.696  15.267 -0.4282  1.2422  0.5373
 5029TIP3   OH236577   4.227   0.885  11.412 -0.3119  0.3843 -0.1278
 5029TIP3    H136578   4.201   0.794  11.427 -0.6700  0.5007 -0.0436
 5029TIP3    H236579   4.191   0.933  11.487 -0.9002  0.7435 -0.6388
 5030TIP3   OH236580   6.684   0.950   4.447 -0.1154 -0.1290  0.5451
 5030TIP3    H136581   6.614   0.965   4.510 -1.6342 -0.4966 -0.9669
 5030TIP3    H236582   6.718   1.038   4.429 -0.2457  0.0696  1.2252
 5031TIP3   OH236583   1.757   3.097  11.401 -0.5305  0.1919 -0.0124
 5031TIP3    H136584   1.742   3.133  11.488 -0.4450  0.6539 -0.1830
 5031TIP3    H236585   1.845   3.129  11.377 -1.2198  1.4801 -0.9488
 5032TIP3   OH236586   1.460   5.389   6.245  0.5462  0.1507 -0.2033
 5032TIP3    H136587   1.367   5.375   6.229  0.3311  2.1477 -0.8935
 5032TIP3    H236588   1.484   5.321   6.309 -0.9607 -1.4500 -1.2763
 5033TIP3   OH236589   6.016   0.370  12.310  0.1526  0.4618 -0.0804
 5033TIP3    H136590   5.953   0.303  12.337 -1.5720  2.8828  2.5023
 5033TIP3    H236591   6.058   0.398  12.391  0.4348  2.8177 -0.9572
 5034TIP3   OH236592   6.492   5.742   4.036  0.9679  0.5083  0.6193
 5034TIP3    H136593   6.573   5.699   4.008  0.2757 -2.2940  2.4296
 5034TIP3    H236594   6.488   5.726   4.131 -1.6380  0.5979  0.6098
 5035TIP3   OH236595   4.359   4.877  16.454 -0.3946 -0.0821 -0.2423
 5035TIP3    H136596   4.310   4.946  16.498 -2.1606 -0.7337 -1.0994
 5035TIP3    H236597   4.432   4.858  16.513 -1.7965  0.1435  1.6607
 5036TIP3   OH236598   0.427   5.910  14.380 -0.1915 -0.0126  0.1496
 5036TIP3    H136599   0.345   5.875  14.415  0.3852  0.2160  1.8146
 5036TIP3    H236600   0.442   5.859  14.301 -1.2679 -0.9815  0.5327
 5037TIP3   OH236601   1.381   5.436   0.894 -0.2172 -1.3621 -0.5671
 5037TIP3    H136602   1.382   5.443   0.799 -1.0024  0.8883 -0.4598
 5037TIP3    H236603   1.385   5.526   0.926  2.2347 -2.1002  1.6169
 5038TIP3   OH236604   5.023   2.952   4.042  0.1593  0.5143  0.2936
 5038TIP3    H136605   5.070   2.879   4.003  0.7335  0.4540  1.0855
 5038TIP3    H236606   4.931   2.924   4.041  0.1952  0.4031 -0.7439
 5039TIP3   OH236607   0.868   6.437  16.718  0.0608 -0.2568  0.4515
 5039TIP3    H136608   0.893   6.454  16.809 -1.3168 -0.6066  0.9152
 5039TIP3    H236609   0.798   6.372  16.724 -0.3410  0.0274 -0.8473
 5040TIP3   OH236610   3.385   2.564   5.325 -0.2116 -0.3029 -0.5251
 5040TIP3    H136611   3.305   2.610   5.298  0.7966  1.3302 -0.9006
 5040TIP3    H236612   3.455   2.627   5.307  0.7993  0.0702  3.7080
 5041TIP3   OH236613   6.460   2.506  17.031 -0.3740  0.0937  0.1013
 5041TIP3    H136614   6.515   2.529  17.106  0.0700  0.6252 -0.3718
 5041TIP3    H236615   6.444   2.589  16.986 -0.3333 -0.2600 -0.5887
 5042TIP3   OH236616   6.300   6.250   2.183 -0.6939 -0.2887 -0.0161
 5042TIP3    H136617   6.308   6.345   2.188  0.5578 -0.2898 -1.0991
 5042TIP3    H236618   6.303   6.231   2.089  3.8116 -1.6425  0.1590
 5043TIP3   OH236619   6.763   4.407  11.256  1.2714  0.2167 -0.6065
 5043TIP3    H136620   6.747   4.419  11.350 -0.0621 -0.6386 -0.7059
 5043TIP3    H236621   6.814   4.326  11.251 -0.0378 -0.6220 -0.7047
 5044TIP3   OH236622   4.890   6.536   2.749  0.3299  0.0006 -0.4997
 5044TIP3    H136623   4.875   6.478   2.824  2.3258 -0.0342 -0.0573
 5044TIP3    H236624   4.838   6.614   2.769 -0.6892 -0.7626 -0.0544
 5045TIP3   OH236625   3.028   1.167  12.727 -0.3158  0.0407 -0.1676
 5045TIP3    H136626   3.032   1.096  12.791 -1.1696 -0.2653 -0.4351
 5045TIP3    H236627   3.107   1.219  12.743  0.6994 -1.3691 -0.4302
 5046TIP3   OH236628   6.398   2.761   5.700  0.0926  0.0833 -0.1958
 5046TIP3    H136629   6.338   2.696   5.737 -1.2893  0.9228 -0.8576
 5046TIP3    H236630   6.431   2.720   5.620  0.3133 -0.3484  0.1179
 5047TIP3   OH236631   0.164   1.617  12.022 -0.1445 -0.1992 -0.7737
 5047TIP3    H136632   0.188   1.689  12.080 -0.8876 -1.1776  0.8403
 5047TIP3    H236633   0.247   1.583  11.989  0.2292  1.1031 -1.2072
 5048TIP3   OH236634   5.291   5.909   5.195 -0.3146 -0.2513 -0.0302
 5048TIP3    H136635   5.225   5.945   5.254 -0.9535  1.0815 -1.4950
 5048TIP3    H236636   5.346   5.855   5.252 -0.9777  0.8319  1.7513
 5049TIP3   OH236637   5.516   3.375  14.169 -0.1595  0.0177  0.4580
 5049TIP3    H136638   5.496   3.398  14.078  0.8835  0.3083  0.2807
 5049TIP3    H236639   5.536   3.281  14.166 -1.6033 -0.3173  0.6712
 5050TIP3   OH236640   1.607   0.058  15.937 -0.4772 -0.0015  0.4922
 5050TIP3    H136641   1.652  -0.024  15.915 -0.6167  0.1472 -0.3703
 5050TIP3    H236642   1.548   0.034  16.009  0.1411 -0.4502  0.8574
 5051TIP3   OH236643   4.867   0.924   0.118  0.4108  0.0145 -0.3705
 5051TIP3    H136644   4.844   0.831   0.121 -0.4976  0.2024 -1.1125
 5051TIP3    H236645   4.961   0.924   0.104  0.6124 -0.7863  0.7933
 5052TIP3   OH236646   2.163   0.173  13.094  0.8915  0.3027  0.1625
 5052TIP3    H136647   2.069   0.167  13.080  0.7764 -1.8571  1.3618
 5052TIP3    H236648   2.172   0.210  13.182  1.1027 -0.4947  0.4872
 5053TIP3   OH236649   3.228   4.757  11.389  0.9473  0.5907  0.5730
 5053TIP3    H136650   3.141   4.730  11.359  1.0543  0.3350  0.4882
 5053TIP3    H236651   3.266   4.678  11.428  1.1534  0.6908  0.5770
 5054TIP3   OH236652   6.627   3.069  16.544 -0.0838 -0.1865 -0.3046
 5054TIP3    H136653   6.661   3.141  16.597 -1.0967  2.3463 -2.8096
 5054TIP3    H236654   6.688   3.062  16.471 -1.4192  0.0070 -1.4822
 5055TIP3   OH236655   2.992   1.349   5.406 -0.3541 -0.2943  0.5918
 5055TIP3    H136656   3.021   1.269   5.364 -1.9826 -0.5564 -0.1215
 5055TIP3    H236657   3.001   1.331   5.500  1.2827 -0.4948  0.4218
 5056TIP3   OH236658   1.254   4.237   1.483  0.1984 -0.0447  0.3422
 5056TIP3    H136659   1.216   4.149   1.480  0.5291 -0.2573  1.7247
 5056TIP3    H236660   1.205   4.286   1.418  0.1890 -1.3132 -0.6589
 5057TIP3   OH236661   2.846   0.538   1.976 -0.0589 -0.0056 -0.5174
 5057TIP3    H136662   2.791   0.605   1.935 -1.1438 -1.4637 -1.5351
 5057TIP3    H236663   2.802   0.519   2.059 -0.8230 -0.7954 -1.0921
 5058TIP3   OH236664   2.412   4.095   3.375 -0.0806 -0.4905  0.4915
 5058TIP3    H136665   2.323   4.076   3.402 -1.4296  0.8750 -2.4852
 5058TIP3    H236666   2.426   4.186   3.401 -0.0810 -0.2816 -0.2178
 5059TIP3   OH236667   3.686   3.807  15.342  0.1859  0.1906 -0.1208
 5059TIP3    H136668   3.766   3.777  15.299  1.4268  3.2146 -0.1671
 5059TIP3    H236669   3.716   3.836  15.428 -0.9923  0.6965  0.1267
 5060TIP3   OH236670   1.788   5.826   4.941 -0.5872  0.1471 -0.2977
 5060TIP3    H136671   1.728   5.843   5.014 -1.0193  0.9497 -0.8194
 5060TIP3    H236672   1.841   5.905   4.935 -0.6427  0.1386 -0.9327
 5061TIP3   OH236673   5.937   3.417   2.462  0.1427 -0.1612 -0.5949
 5061TIP3    H136674   5.908   3.333   2.499 -1.1904  0.1927 -0.7656
 5061TIP3    H236675   5.979   3.462   2.535 -1.6479  0.1572  0.3010
 5062TIP3   OH236676   5.218   2.001   0.983  0.6861  0.3953  0.0358
 5062TIP3    H136677   5.173   1.995   0.898  0.9763  1.2816 -0.1976
 5062TIP3    H236678   5.197   1.920   1.027 -0.4189  0.4118 -0.4285
 5063TIP3   OH236679   5.732   3.243   4.904  0.2339 -0.0951 -0.1408
 5063TIP3    H136680   5.701   3.156   4.929 -2.3624  0.7207 -0.2837
 5063TIP3    H236681   5.750   3.237   4.811  0.1225 -0.4936 -0.1379
 5064TIP3   OH236682   1.349   3.608  17.156 -0.4096  0.5195 -0.0191
 5064TIP3    H136683   1.402   3.571  17.085 -1.7948 -1.0469 -0.2877
 5064TIP3    H236684   1.390   3.692  17.174  1.5060 -0.1416 -0.9537
 5065TIP3   OH236685   4.349   5.122   1.632 -0.0760 -0.3372 -0.0151
 5065TIP3    H136686   4.302   5.120   1.549 -2.0802 -1.9126  1.0721
 5065TIP3    H236687   4.398   5.040   1.635  1.2789  0.4311 -0.2923
 5066TIP3   OH236688   4.574   2.402  11.817 -0.6451  0.8431 -0.2628
 5066TIP3    H136689   4.568   2.345  11.893 -1.8933 -1.4832 -2.0041
 5066TIP3    H236690   4.665   2.395  11.789 -0.8616 -0.6480 -0.6648
 5067TIP3   OH236691   2.109   5.469   0.324 -0.1560 -0.2759  0.2927
 5067TIP3    H136692   2.110   5.456   0.229 -1.6204  0.0960  0.1914
 5067TIP3    H236693   2.140   5.386   0.360 -0.3455 -0.7026 -0.4981
 5068TIP3   OH236694   6.347   5.198   1.896  0.1288  0.2551  0.4255
 5068TIP3    H136695   6.381   5.271   1.947 -0.8053  0.2134  1.1409
 5068TIP3    H236696   6.342   5.232   1.806 -0.7177  1.2491  0.8232
 5069TIP3   OH236697   4.326   6.767   3.966  0.4342 -0.7328  0.2010
 5069TIP3    H136698   4.280   6.840   3.926 -1.3955 -2.0436 -0.1957
 5069TIP3    H236699   4.381   6.807   4.034  0.1468  1.0574 -0.5808
 5070TIP3   OH236700   0.033   3.840  11.376 -0.0658  0.8781 -0.3037
 5070TIP3    H136701   0.125   3.817  11.387 -0.8614 -2.9331 -0.1877
 5070TIP3    H236702   0.020   3.915  11.433  3.0829  2.0890 -0.9642
 5071TIP3   OH236703   1.244   1.986   5.373 -0.4308  0.2199  0.0959
 5071TIP3    H136704   1.310   1.940   5.321 -1.2243 -0.5170 -0.2842
 5071TIP3    H236705   1.224   2.065   5.322  0.7696  0.9073  0.6395
 5072TIP3   OH236706   3.543   6.747   4.779  0.0542  0.3360  0.7416
 5072TIP3    H136707   3.612   6.683   4.762 -0.4912 -0.4221  1.2918
 5072TIP3    H236708   3.514   6.729   4.869 -1.7792 -0.3009  0.0839
 5073TIP3   OH236709   5.432   0.824  13.766  0.5369 -0.2444  0.3319
 5073TIP3    H136710   5.508   0.792  13.716  0.0138 -1.8939  0.5426
 5073TIP3    H236711   5.460   0.910  13.798  0.5313  1.4617 -3.6513
 5074TIP3   OH236712   2.576   3.581  14.690  0.7099 -0.3176  0.0454
 5074TIP3    H136713   2.532   3.631  14.759  1.3178  1.2409 -0.6620
 5074TIP3    H236714   2.668   3.582  14.714  0.8983  0.0514 -0.6613
 5075TIP3   OH236715   2.013   5.194   2.764 -0.5820  0.2992  0.4398
 5075TIP3    H136716   2.056   5.116   2.798 -1.9290  1.0584  4.3661
 5075TIP3    H236717   2.041   5.265   2.822 -2.5937  1.9053 -0.4203
 5076TIP3   OH236718   2.622   0.925   4.212  0.0041  0.4803 -0.2461
 5076TIP3    H136719   2.626   0.886   4.299  0.3169  0.5906 -0.2113
 5076TIP3    H236720   2.711   0.918   4.178 -0.2849 -0.3170 -0.8893
 5077TIP3   OH236721   5.666   5.898   2.748  0.7424  0.1045  0.1166
 5077TIP3    H136722   5.628   5.943   2.823  3.1177  1.5014  0.6087
 5077TIP3    H236723   5.673   5.807   2.775 -2.2913 -0.2943 -0.1066
 5078TIP3   OH236724   3.501   3.897   4.601 -0.3934 -0.1120  0.0412
 5078TIP3    H136725   3.530   3.984   4.628  1.0741 -0.7722  0.7000
 5078TIP3    H236726   3.420   3.913   4.552  0.7669  1.8082 -1.4038
 5079TIP3   OH236727   4.488   3.541   0.361  0.2237  0.4188  0.1720
 5079TIP3    H136728   4.544   3.468   0.335 -1.2191 -0.8340  0.3645
 5079TIP3    H236729   4.400   3.513   0.335 -0.8280  0.6472  3.1265
 5080TIP3   OH236730   6.629   6.170  15.542  0.6328  0.0169 -0.5620
 5080TIP3    H136731   6.635   6.189  15.635  0.8021 -1.0365 -0.3372
 5080TIP3    H236732   6.676   6.087  15.532  1.1428  0.4211 -1.6835
 5081TIP3   OH236733   5.666   2.729  12.336 -0.1280  0.0858  0.2347
 5081TIP3    H136734   5.684   2.737  12.430 -0.0350 -0.1592  0.2384
 5081TIP3    H236735   5.712   2.650  12.310  0.2750  0.4386 -0.1266
 5082TIP3   OH236736   6.592   0.121   4.388 -0.1346 -0.1348 -0.1483
 5082TIP3    H136737   6.518   0.060   4.381  1.3901 -1.9518 -2.0313
 5082TIP3    H236738   6.666   0.065   4.411  0.9664  1.3856  0.1325
 5083TIP3   OH236739   2.396   1.692  15.819 -0.4463  0.7080  0.3354
 5083TIP3    H136740   2.454   1.758  15.782  0.3723 -0.2259 -0.1075
 5083TIP3    H236741   2.337   1.668  15.748  0.4227 -0.3019 -0.0800
 5084TIP3   OH236742   0.167   5.010   3.901 -0.2024  0.0853  0.0519
 5084TIP3    H136743   0.127   5.063   3.832 -0.5806  0.3508  0.4710
 5084TIP3    H236744   0.221   5.072   3.951  0.6718 -0.2481 -0.4464
 5085TIP3   OH236745   5.770   0.359   3.711 -0.2809 -0.4532  0.5382
 5085TIP3    H136746   5.677   0.341   3.725 -0.3654  0.7121  1.6266
 5085TIP3    H236747   5.792   0.310   3.631 -2.3625  0.9432 -1.0075
 5086TIP3   OH236748   6.716   5.648  16.274 -0.1176 -0.3175  0.2151
 5086TIP3    H136749   6.683   5.571  16.321 -1.6926 -0.0668 -0.4261
 5086TIP3    H236750   6.797   5.670  16.319 -0.2277 -1.6628  1.1412
 5087TIP3   OH236751   4.224   1.148  12.164  0.3004  0.3982  0.5707
 5087TIP3    H136752   4.288   1.085  12.131 -1.9442 -0.6235 -2.1838
 5087TIP3    H236753   4.227   1.137  12.259  2.7554 -0.9801  0.4186
 5088TIP3   OH236754   2.933   3.396  15.367  0.2767  0.1392 -0.4369
 5088TIP3    H136755   2.883   3.476  15.384  1.4417  0.4883  1.7482
 5088TIP3    H236756   2.868   3.336  15.330 -1.0935  1.4614 -0.3090
 5089TIP3   OH236757   0.965   4.580  14.366  0.5064  0.2474 -0.1399
 5089TIP3    H136758   1.049   4.623  14.384 -0.1637  0.6289  2.4851
 5089TIP3    H236759   0.980   4.533  14.284  2.7565  1.6234 -0.6158
 5090TIP3   OH236760   0.348   1.638  11.164 -0.2377 -0.2237  0.4677
 5090TIP3    H136761   0.294   1.696  11.218 -2.6453 -1.4499 -0.4921
 5090TIP3    H236762   0.371   1.692  11.088  2.1914  1.1247  2.0114
 5091TIP3   OH236763   5.369   0.660   1.454 -0.3654 -0.4004 -0.0135
 5091TIP3    H136764   5.449   0.650   1.402 -0.4584  1.7800 -0.6813
 5091TIP3    H236765   5.398   0.699   1.536 -0.3616 -2.8356  1.2212
 5092TIP3   OH236766   3.771   2.206  12.761 -0.1270 -0.1640 -0.5287
 5092TIP3    H136767   3.850   2.168  12.798  0.9753 -0.2888 -2.8573
 5092TIP3    H236768   3.781   2.301  12.774 -1.3827 -0.3181  2.3977
 5093TIP3   OH236769   0.059   5.470  11.841  0.2101  0.0098  0.4966
 5093TIP3    H136770   0.101   5.454  11.926 -0.3443 -1.2039  0.5634
 5093TIP3    H236771   0.127   5.449  11.777  0.2409 -0.3001  0.6278
 5094TIP3   OH236772   0.924   6.661   3.822 -0.3560 -0.4812 -0.3930
 5094TIP3    H136773   0.975   6.610   3.884 -0.1186  1.8673  1.4719
 5094TIP3    H236774   0.989   6.705   3.768 -0.5299 -0.6876 -0.7801
 5095TIP3   OH236775   0.187   3.297   2.540 -0.0961 -0.7689 -0.0867
 5095TIP3    H136776   0.219   3.240   2.609  1.0896 -0.9731 -0.7676
 5095TIP3    H236777   0.094   3.275   2.531  0.3488 -2.7173 -0.4272
 5096TIP3   OH236778   5.318   2.220  14.373 -0.2473 -0.0975 -0.2517
 5096TIP3    H136779   5.252   2.198  14.439  0.8128  0.3252  0.9898
 5096TIP3    H236780   5.267   2.248  14.296 -1.5268 -1.3877  0.0669
 5097TIP3   OH236781   0.222   1.138   1.582  0.8238 -0.2071  0.1311
 5097TIP3    H136782   0.159   1.209   1.587  0.7847 -0.2495  0.2559
 5097TIP3    H236783   0.252   1.138   1.491 -1.6224 -2.1288 -0.7838
 5098TIP3   OH236784   6.243   5.764  13.780 -0.1294 -0.8304  0.1395
 5098TIP3    H136785   6.325   5.793  13.820 -0.1107  1.0296 -1.1045
 5098TIP3    H236786   6.265   5.681  13.738  0.3562 -1.7933  2.1479
 5099TIP3   OH236787   1.279   3.816   4.217  0.6036 -0.1436  0.3252
 5099TIP3    H136788   1.264   3.784   4.306  0.3466  0.2385  0.4189
 5099TIP3    H236789   1.363   3.862   4.222 -0.1152  1.1441  0.7073
 5100TIP3   OH236790   2.251   5.032  13.404 -0.0793  0.0102 -0.5294
 5100TIP3    H136791   2.341   5.007  13.428  0.2609  0.6646 -1.0904
 5100TIP3    H236792   2.233   4.981  13.326 -0.5532 -0.8247  0.1095
 5101TIP3   OH236793   2.494   4.336   1.367 -0.2709 -0.0709 -0.0533
 5101TIP3    H136794   2.528   4.376   1.287 -0.8039  1.3312  0.3726
 5101TIP3    H236795   2.500   4.406   1.433 -1.6104 -0.5732  0.6445
 5102TIP3   OH236796   4.708   3.554  14.880  0.7005 -0.8461 -0.1522
 5102TIP3    H136797   4.626   3.554  14.929  0.0300  0.6583 -1.2265
 5102TIP3    H236798   4.762   3.489  14.925 -0.8082 -1.3579  1.0037
 5103TIP3   OH236799   4.933   3.041  11.986 -0.9597 -0.4458 -0.1525
 5103TIP3    H136800   5.016   3.030  12.032 -0.8745 -2.8043 -0.7169
 5103TIP3    H236801   4.957   3.073  11.899 -0.5773 -1.4044 -0.4150
 5104TIP3   OH236802   3.374   2.844  15.735 -0.3889 -0.0174 -0.1247
 5104TIP3    H136803   3.318   2.769  15.756  0.8286 -0.9209  0.0547
 5104TIP3    H236804   3.383   2.840  15.640  0.2497 -0.5589 -0.0534
 5105TIP3   OH236805   5.391   1.514  15.792 -0.5370 -0.6177  0.6907
 5105TIP3    H136806   5.451   1.585  15.813 -0.7539 -0.2536  0.1201
 5105TIP3    H236807   5.416   1.443  15.850  0.0523 -0.2636  0.8775
 5106TIP3   OH236808   2.664   3.950  14.795  0.3531  0.3526 -0.0327
 5106TIP3    H136809   2.657   4.045  14.794 -3.8455  0.3146  2.4860
 5106TIP3    H236810   2.584   3.920  14.751  1.1438 -2.0184  0.0016
 5107TIP3   OH236811   2.058   0.140  14.721  0.0093 -0.1550 -0.4031
 5107TIP3    H136812   1.971   0.125  14.759 -0.7028 -0.3168 -2.0374
 5107TIP3    H236813   2.061   0.234  14.706  0.8691  0.1410  1.3116
 5108TIP3   OH236814   0.595   4.057   6.759 -0.2328  0.1078 -0.0176
 5108TIP3    H136815   0.529   4.062   6.691 -1.2760  0.1507  0.9750
 5108TIP3    H236816   0.606   4.147   6.789  0.2319  0.0906 -0.1255
 5109TIP3   OH236817   6.432   0.141  13.826  0.0298  0.2060 -0.2894
 5109TIP3    H136818   6.451   0.232  13.849  0.1136 -0.4995  2.9201
 5109TIP3    H236819   6.517   0.097  13.833 -0.5231 -0.6514  1.3931
 5110TIP3   OH236820   6.452   2.055  12.266  0.3886  0.6017  0.4037
 5110TIP3    H136821   6.398   2.022  12.338  2.1698 -1.1717  1.0115
 5110TIP3    H236822   6.538   2.068  12.305  0.9313  1.4254 -0.9985
 5111TIP3   OH236823   4.203   2.787  12.176  0.1734  0.3804 -0.0597
 5111TIP3    H136824   4.258   2.724  12.128  0.8598  0.4282  0.6466
 5111TIP3    H236825   4.130   2.805  12.116 -1.0401 -2.4866  0.4151
 5112TIP3   OH236826   1.963   2.019  11.427  0.8485  0.8098 -0.0525
 5112TIP3    H136827   2.016   1.941  11.446  0.8843  0.6799 -0.6623
 5112TIP3    H236828   2.003   2.056  11.348  1.2305  1.8112  0.5936
 5113TIP3   OH236829   6.592   3.612  13.638 -0.3503 -0.6071  0.3590
 5113TIP3    H136830   6.501   3.592  13.619  0.2811 -2.4723 -0.9010
 5113TIP3    H236831   6.626   3.534  13.681  1.1753 -0.7986 -1.0837
 5114TIP3   OH236832   3.226   4.592  13.571  0.2845 -0.0356 -0.2175
 5114TIP3    H136833   3.259   4.614  13.658  0.5009  1.6539 -0.6896
 5114TIP3    H236834   3.272   4.512  13.547  3.5035  1.7664 -0.5169
 5115TIP3   OH236835   1.150   1.897  10.319  0.1378 -0.5443  0.6625
 5115TIP3    H136836   1.079   1.956  10.344  0.0240 -0.0493 -0.7257
 5115TIP3    H236837   1.115   1.848  10.244  1.8077  0.9819 -1.2295
 5116TIP3   OH236838   1.829   1.055   0.339  0.1368  0.1496 -0.2983
 5116TIP3    H136839   1.768   1.028   0.270 -0.3891 -1.0267  0.5990
 5116TIP3    H236840   1.831   0.981   0.400 -0.2756  1.5900  1.5462
 5117TIP3   OH236841   5.573   4.502  14.554  0.5682 -0.3405 -0.7121
 5117TIP3    H136842   5.486   4.464  14.535  0.8670 -0.3743 -2.1272
 5117TIP3    H236843   5.626   4.426  14.578 -0.5031 -0.0161  3.3429
 5118TIP3   OH236844   6.340   0.348   4.180 -0.3034  0.1612  0.2449
 5118TIP3    H136845   6.356   0.396   4.262 -0.2399 -1.1457  1.0219
 5118TIP3    H236846   6.279   0.279   4.205 -1.0537  0.3294 -1.0342
 5119TIP3   OH236847   5.378   5.579   3.404 -0.1943 -0.2826 -0.0270
 5119TIP3    H136848   5.396   5.666   3.439 -0.3820  0.2526 -1.2024
 5119TIP3    H236849   5.285   5.566   3.419 -0.3649  0.1261 -0.6915
 5120TIP3   OH236850   0.460   1.021  16.759 -0.0750 -0.6798  0.1763
 5120TIP3    H136851   0.384   1.078  16.768 -0.0363 -0.4985 -0.6239
 5120TIP3    H236852   0.506   1.029  16.843  0.9062  1.8841 -0.5292
 5121TIP3   OH236853   0.831   0.872   4.753  0.0511 -0.3212  1.0024
 5121TIP3    H136854   0.926   0.860   4.753  0.1518  0.2900 -0.1341
 5121TIP3    H236855   0.805   0.863   4.845  1.5848  2.2246  1.8022
 5122TIP3   OH236856   4.947   6.095  15.707 -1.0114 -0.3777  0.1086
 5122TIP3    H136857   4.963   6.050  15.623  1.5769  0.0537  0.2788
 5122TIP3    H236858   4.883   6.163  15.686  0.9695  0.9625 -2.0258
 5123TIP3   OH236859   5.040   0.287   0.548  0.1250 -0.4206  0.4544
 5123TIP3    H136860   5.085   0.203   0.540 -1.7985 -1.4123 -0.9613
 5123TIP3    H236861   4.969   0.270   0.611 -0.7701 -0.1207 -0.4502
 5124TIP3   OH236862   2.467   2.663  14.344  0.0137  0.3434  0.1375
 5124TIP3    H136863   2.468   2.634  14.253  2.4476  1.7721 -0.4013
 5124TIP3    H236864   2.385   2.711  14.353  0.3838  1.4615 -1.8037
 5125TIP3   OH236865   0.433   6.661   6.266  0.0235 -0.0738  0.0439
 5125TIP3    H136866   0.507   6.609   6.296 -0.6009 -0.6376  0.6493
 5125TIP3    H236867   0.356   6.614   6.298 -0.6190  0.2148 -1.0188
 5126TIP3   OH236868   0.285   4.999   1.861  0.1102 -0.0613  0.3849
 5126TIP3    H136869   0.358   5.061   1.866  0.8064 -0.7952 -0.3973
 5126TIP3    H236870   0.323   4.920   1.823 -0.6026 -1.2170  1.9456
 5127TIP3   OH236871   6.719   6.372  12.644 -1.1483 -0.5532  0.3739
 5127TIP3    H136872   6.638   6.422  12.629 -1.0018 -1.0591 -2.7547
 5127TIP3    H236873   6.779   6.435  12.682 -1.4111  1.4189 -2.1579
 5128TIP3   OH236874   3.309   4.241  12.146 -0.4006  0.6255 -0.1646
 5128TIP3    H136875   3.234   4.197  12.185  0.6433  0.1614  1.4108
 5128TIP3    H236876   3.293   4.236  12.051 -2.7282  1.3016  0.1453
 5129TIP3   OH236877   2.142   0.453   1.305  0.5948  0.1325 -0.0834
 5129TIP3    H136878   2.080   0.524   1.292  1.3822  0.6272 -1.2013
 5129TIP3    H236879   2.094   0.389   1.359 -1.2763 -0.0088 -1.8124
 5130TIP3   OH236880   5.201   1.979  11.192 -0.0178  0.4632 -0.0521
 5130TIP3    H136881   5.197   1.884  11.203  1.2073  0.3666 -0.2660
 5130TIP3    H236882   5.202   1.992  11.097  1.9865  0.5292 -0.0684
 5131TIP3   OH236883   2.401   1.591  16.298 -0.2570 -0.1895  0.3161
 5131TIP3    H136884   2.438   1.680  16.295  0.4306 -0.3505  2.5027
 5131TIP3    H236885   2.372   1.575  16.208 -0.9157  2.4537 -0.0508
 5132TIP3   OH236886   1.831   1.191  17.227 -0.5745  0.2763  0.2116
 5132TIP3    H136887   1.897   1.260  17.216 -0.4418  0.0450 -0.5009
 5132TIP3    H236888   1.749   1.238  17.243 -0.3871  0.5875  0.2684
 5133TIP3   OH236889   1.699   0.593  13.156  0.1446  0.1238  0.8732
 5133TIP3    H136890   1.618   0.554  13.190  0.8517 -2.3882 -0.0519
 5133TIP3    H236891   1.768   0.535  13.187  1.0461 -0.9336 -2.6498
 5134TIP3   OH236892   2.067   0.801  12.845  0.4915  0.2471  0.4063
 5134TIP3    H136893   2.155   0.826  12.817 -0.0146  1.7089  0.0511
 5134TIP3    H236894   2.028   0.759  12.768  1.4121 -1.9949  1.0671
 5135TIP3   OH236895   4.027   0.718  15.795  0.4678 -0.0346 -0.5005
 5135TIP3    H136896   3.962   0.780  15.829  0.6340  0.0577 -0.3518
 5135TIP3    H236897   4.036   0.653  15.864  0.7235  0.0924 -0.4148
 5136TIP3   OH236898   4.810   4.854  17.217  0.1086  0.4049 -0.5571
 5136TIP3    H136899   4.779   4.919  17.154  0.3453  1.3140  0.2441
 5136TIP3    H236900   4.772   4.882  17.300  0.0291 -0.6184 -0.2391
 5137TIP3   OH236901   6.340   1.852   4.255  0.4227 -0.0989  0.9720
 5137TIP3    H136902   6.363   1.778   4.312  1.6070  0.0483  0.7168
 5137TIP3    H236903   6.331   1.813   4.168  1.2460  0.0614  0.8001
 5138TIP3   OH236904   0.784   1.619   2.619 -0.3581 -0.4461  0.1489
 5138TIP3    H136905   0.777   1.585   2.709 -0.4191 -1.1812 -0.1231
 5138TIP3    H236906   0.720   1.568   2.570 -0.8341  0.4534 -0.1749
 5139TIP3   OH236907   3.366   3.970   0.058 -0.0951 -0.0042 -0.2550
 5139TIP3    H136908   3.400   3.931  -0.023 -1.0352  0.9307 -1.1359
 5139TIP3    H236909   3.352   4.063   0.036  1.4632  0.7229  1.5759
 5140TIP3   OH236910   5.627   2.121  15.109  0.1843  0.2417  0.1173
 5140TIP3    H136911   5.697   2.102  15.046  0.1503 -0.3962  0.2638
 5140TIP3    H236912   5.566   2.176  15.060  0.1588 -0.2420 -0.4188
 5141TIP3   OH236913   0.840   4.534   3.424 -0.1298 -0.0573  0.1776
 5141TIP3    H136914   0.881   4.620   3.421 -0.3332  0.0168 -1.0286
 5141TIP3    H236915   0.794   4.532   3.508 -0.6414  1.2572 -0.0485
 5142TIP3   OH236916   0.464   2.227   4.474 -0.1091 -0.0975  0.2373
 5142TIP3    H136917   0.417   2.143   4.479  1.3402 -1.1663 -1.9665
 5142TIP3    H236918   0.398   2.293   4.493 -1.6289 -1.6762  0.7257
 5143TIP3   OH236919   6.407   3.305  15.158  0.1090 -0.6960  0.8255
 5143TIP3    H136920   6.488   3.315  15.108  0.0994  0.8976  1.0798
 5143TIP3    H236921   6.349   3.374  15.126 -1.1287 -1.7312  0.7389
 5144TIP3   OH236922   5.398   6.046  14.619  0.4175  0.1133  0.2670
 5144TIP3    H136923   5.406   5.952  14.606  0.4125 -0.0846  1.5562
 5144TIP3    H236924   5.424   6.084  14.535  1.4721 -1.0038  0.0517
 5145TIP3   OH236925   1.196   3.305  17.110 -0.3868 -0.4664 -0.1718
 5145TIP3    H136926   1.128   3.372  17.104 -1.5063 -1.5031  0.4026
 5145TIP3    H236927   1.172   3.254  17.187  1.8712 -0.0165  0.9187
 5146TIP3   OH236928   1.367   6.242  14.793 -0.2076  0.5875 -0.2463
 5146TIP3    H136929   1.397   6.203  14.711 -1.4800  0.4364 -0.6586
 5146TIP3    H236930   1.273   6.222  14.796 -0.4281  1.6730  0.6409
 5147TIP3   OH236931   3.359   2.233   4.270 -0.2259 -0.3126 -0.2951
 5147TIP3    H136932   3.417   2.175   4.320 -1.1126 -0.0061  1.1474
 5147TIP3    H236933   3.311   2.283   4.336 -1.1999  0.3789 -1.4652
 5148TIP3   OH236934   3.275   2.586  15.803  0.5454 -0.0170  0.2484
 5148TIP3    H136935   3.186   2.553  15.792  0.5622 -0.3428  1.0557
 5148TIP3    H236936   3.328   2.532  15.743  0.3859 -0.6593  0.6722
 5149TIP3   OH236937   5.679   2.735   5.601 -0.1894 -0.0654  0.4743
 5149TIP3    H136938   5.676   2.733   5.697 -0.8962 -0.6568  0.4463
 5149TIP3    H236939   5.730   2.657   5.578 -0.3922 -0.1634  0.3564
 5150TIP3   OH236940   3.006   3.844   2.643 -0.6778 -0.5425 -0.6415
 5150TIP3    H136941   2.968   3.899   2.710  0.1842 -2.6649  1.7635
 5150TIP3    H236942   3.093   3.881   2.627  0.5283 -1.9344  2.1096
 5151TIP3   OH236943   3.643   2.008   6.781  0.3405 -0.4036  0.2958
 5151TIP3    H136944   3.717   2.063   6.755  0.3155  0.0825  1.2071
 5151TIP3    H236945   3.662   1.922   6.742 -0.9652  0.8414 -3.5908
 5152TIP3   OH236946   2.580   4.062   0.498 -0.1608 -0.1189 -0.0488
 5152TIP3    H136947   2.506   4.016   0.539  0.2622 -0.4540  0.3456
 5152TIP3    H236948   2.633   3.993   0.459 -0.4588  0.1842 -1.0113
 5153TIP3   OH236949   0.874   1.174   5.369  0.2077  0.1781  0.6343
 5153TIP3    H136950   0.925   1.093   5.372 -1.4586 -0.9071  0.8499
 5153TIP3    H236951   0.847   1.188   5.460  1.1394  1.4409  0.7404
 5154TIP3   OH236952   1.963   2.572  12.468 -0.1761  0.7379  0.1711
 5154TIP3    H136953   1.957   2.598  12.560  2.1012 -1.2963  0.9965
 5154TIP3    H236954   2.034   2.507  12.466  0.5523  1.4613 -3.1885
 5155TIP3   OH236955   3.147   0.508   5.661 -0.3665 -0.2996  0.1479
 5155TIP3    H136956   3.218   0.479   5.719  0.2193 -0.4773 -0.6333
 5155TIP3    H236957   3.096   0.568   5.714  0.6486  0.2053  0.5851
 5156TIP3   OH236958   6.257   2.307  17.060  0.2989  0.0408  0.1568
 5156TIP3    H136959   6.282   2.281  16.971  0.5306  0.4277  0.1072
 5156TIP3    H236960   6.332   2.358  17.092 -0.2900  0.9118  0.1458
 5157TIP3   OH236961   1.055   5.202  16.580 -0.3945 -0.1398  0.2663
 5157TIP3    H136962   0.983   5.176  16.523 -0.8183  0.1553  0.6725
 5157TIP3    H236963   1.095   5.119  16.607 -0.5472 -0.2992  0.0066
 5158TIP3   OH236964   4.317   1.870   6.078 -0.3018 -0.0354  0.3555
 5158TIP3    H136965   4.253   1.901   6.014 -0.7065 -1.7289 -0.1015
 5158TIP3    H236966   4.265   1.821   6.142  0.5870 -2.2118 -0.5021
 5159TIP3   OH236967   5.121   0.824   1.475  0.1992 -0.1707  0.1929
 5159TIP3    H136968   5.132   0.737   1.436 -3.5156 -0.5072 -0.4526
 5159TIP3    H236969   5.103   0.807   1.567  2.7154  0.2453  0.8450
 5160TIP3   OH236970   4.973   2.259   4.612 -0.4291 -0.7147 -0.0118
 5160TIP3    H136971   4.928   2.294   4.690  0.9082  0.7004  0.1846
 5160TIP3    H236972   4.929   2.302   4.538  0.6506  0.8381  0.1892
 5161TIP3   OH236973   2.564   5.900  14.968  0.1505 -0.6171 -0.2537
 5161TIP3    H136974   2.551   5.855  14.885  1.1239 -1.0896 -0.1683
 5161TIP3    H236975   2.526   5.987  14.954 -0.7438 -1.0720 -0.7928
 5162TIP3   OH236976   4.307   5.741  13.017  0.4018  0.1353  0.4182
 5162TIP3    H136977   4.264   5.754  13.102 -2.9338 -1.1831 -0.9039
 5162TIP3    H236978   4.385   5.689  13.038  0.3302  0.8184  2.7446
 5163TIP3   OH236979   4.110   3.332   3.708 -0.7716 -0.0490  0.7793
 5163TIP3    H136980   4.021   3.299   3.696 -0.1997 -1.0685 -0.9990
 5163TIP3    H236981   4.101   3.402   3.773 -2.6039 -1.1789  1.8365
 5164TIP3   OH236982   2.829   1.911  16.385 -0.2356  0.2967  0.5269
 5164TIP3    H136983   2.810   2.001  16.360  2.3457  0.9465  0.6093
 5164TIP3    H236984   2.866   1.872  16.305  1.9283  0.4170  1.4050
 5165TIP3   OH236985   0.284   0.262   2.438 -0.0630  0.7014 -0.4085
 5165TIP3    H136986   0.251   0.342   2.478  1.0432  2.5640 -2.8990
 5165TIP3    H236987   0.283   0.281   2.344  1.2673 -1.8195 -1.0129
 5166TIP3   OH236988   1.552   3.561  14.337 -0.6112  0.1958 -0.1005
 5166TIP3    H136989   1.551   3.513  14.254  0.4729 -0.1133  0.0469
 5166TIP3    H236990   1.610   3.635  14.321  2.6906 -1.8212  1.3578
 5167TIP3   OH236991   4.768   6.622  13.239 -0.2541  0.2506  0.1279
 5167TIP3    H136992   4.755   6.664  13.154  0.2934  0.1097 -0.0316
 5167TIP3    H236993   4.811   6.689  13.292  0.1933  0.0510  0.0208
 5168TIP3   OH236994   2.546   2.664  11.245 -0.3630  0.3566 -0.6996
 5168TIP3    H136995   2.571   2.628  11.330  0.7740  0.4883 -0.9635
 5168TIP3    H236996   2.473   2.609  11.216  0.8008 -1.2476 -0.7190
 5169TIP3   OH236997   2.940   2.464   0.844  0.6082 -0.1254 -0.1426
 5169TIP3    H136998   2.924   2.385   0.793  0.9773 -0.3500  0.0807
 5169TIP3    H236999   2.858   2.513   0.840  0.1106 -0.9008  0.3880
 5170TIP3   OH237000   6.152   5.584  15.033 -0.2368  0.0056 -0.0795
 5170TIP3    H137001   6.240   5.549  15.045  0.5914  1.8347 -0.4481
 5170TIP3    H237002   6.104   5.554  15.110  0.7569 -0.8341  0.2492
 5171TIP3   OH237003   0.804   6.224  12.930  0.0020  0.4808  0.6144
 5171TIP3    H137004   0.850   6.147  12.900  2.3843  2.1230 -0.2218
 5171TIP3    H237005   0.810   6.220  13.026  2.8209  1.0671  0.5485
 5172TIP3   OH237006   4.334   3.852  13.015 -0.7318 -0.0195  0.4476
 5172TIP3    H137007   4.342   3.947  13.010  1.4761 -0.1503  0.7190
 5172TIP3    H237008   4.313   3.826  12.925  0.4545  0.6024 -0.0306
 5173TIP3   OH237009   1.468   4.850   6.247  0.1963  0.0547  0.6047
 5173TIP3    H137010   1.474   4.878   6.339  1.0836 -2.6838  1.4711
 5173TIP3    H237011   1.386   4.801   6.242  0.1024  0.2766 -0.1076
 5174TIP3   OH237012   1.317   1.368  14.170  0.4521  0.5607 -0.0346
 5174TIP3    H137013   1.281   1.308  14.236 -0.2741 -0.6440 -1.4713
 5174TIP3    H237014   1.367   1.432  14.221 -1.3285  0.5907  1.8166
 5175TIP3   OH237015   2.397   1.124  13.986 -0.6417 -0.3921 -0.3124
 5175TIP3    H137016   2.404   1.150  13.894  0.3481 -0.4404 -0.2630
 5175TIP3    H237017   2.419   1.203  14.035  4.3582 -1.5494 -0.1558
 5176TIP3   OH237018   0.173   6.718   2.189  0.1791  0.4081 -0.2467
 5176TIP3    H137019   0.145   6.771   2.263  0.8764  2.4647 -1.3869
 5176TIP3    H237020   0.108   6.735   2.121 -0.7534 -1.8599 -0.0192
 5177TIP3   OH237021   0.407   3.642  13.038  0.9906  0.5130 -0.0512
 5177TIP3    H137022   0.380   3.620  12.948 -0.1194 -0.6447  0.5340
 5177TIP3    H237023   0.353   3.586  13.093 -0.0494  2.8677  1.4528
 5178TIP3   OH237024   6.664   1.241   4.393  0.4253  0.5188  0.3368
 5178TIP3    H137025   6.726   1.313   4.383 -0.5018  1.2469 -0.3590
 5178TIP3    H237026   6.597   1.258   4.327 -0.4680 -0.2911  1.0104
 5179TIP3   OH237027   3.449   3.663  13.146 -0.4148 -0.4740 -0.0493
 5179TIP3    H137028   3.493   3.744  13.117 -1.8065 -0.0339 -1.0412
 5179TIP3    H237029   3.439   3.674  13.240  0.2815  0.0734 -0.0269
 5180TIP3   OH237030   3.983   3.515   2.263  0.7056  1.0436  0.2777
 5180TIP3    H137031   4.033   3.529   2.183 -0.7767 -1.5035 -1.2637
 5180TIP3    H237032   3.892   3.533   2.238  0.1731 -0.1138  1.2434
 5181TIP3   OH237033   2.631   3.524  15.532 -0.4733 -0.4113 -0.1782
 5181TIP3    H137034   2.644   3.599  15.474 -1.0547  0.5076  0.8498
 5181TIP3    H237035   2.716   3.480  15.533  0.2985  1.0198  0.2786
 5182TIP3   OH237036   4.627   3.021   2.291 -0.4516  0.0965  0.5969
 5182TIP3    H137037   4.585   3.086   2.347  1.3731 -0.4257  2.7519
 5182TIP3    H237038   4.564   2.949   2.286 -2.3117  1.7347 -1.4578
 5183TIP3   OH237039   6.263   5.514   1.252 -0.7994 -0.0990  0.4992
 5183TIP3    H137040   6.332   5.568   1.290 -1.2474 -0.0540  1.2649
 5183TIP3    H237041   6.206   5.576   1.207 -1.1402  0.0383  1.1115
 5184TIP3   OH237042   0.500   3.785  17.255 -0.3758 -0.1167 -0.3485
 5184TIP3    H137043   0.527   3.693  17.255 -1.6811 -0.5149 -0.3955
 5184TIP3    H237044   0.557   3.826  17.320  0.6635 -0.8158 -0.7835
 5185TIP3   OH237045   1.003   3.477  13.018  0.0573 -0.0333 -0.2483
 5185TIP3    H137046   0.950   3.513  12.946  2.7096 -0.3549 -2.5578
 5185TIP3    H237047   1.075   3.431  12.974  1.2904 -1.1595  2.6652
 5186TIP3   OH237048   2.141   0.863  15.649 -0.3383 -0.3989 -0.1313
 5186TIP3    H137049   2.068   0.911  15.610 -0.2733 -0.3750 -0.2251
 5186TIP3    H237050   2.100   0.793  15.699 -0.3646 -1.7134 -1.9089
 5187TIP3   OH237051   2.481   6.044  15.556 -0.3832  0.7410 -0.2523
 5187TIP3    H137052   2.571   6.030  15.525  0.5083  3.6699  0.6518
 5187TIP3    H237053   2.464   5.969  15.613  0.9974 -0.5111 -1.3829
 5188TIP3   OH237054   4.358   3.006   3.450  0.5622  0.2129  0.2977
 5188TIP3    H137055   4.319   2.920   3.466 -1.1627  1.4523  4.0046
 5188TIP3    H237056   4.299   3.048   3.388 -0.8361  0.0024  1.4309
 5189TIP3   OH237057   3.865   0.028  14.252 -0.1828 -0.3212 -0.0243
 5189TIP3    H137058   3.774   0.056  14.241 -0.4784 -0.9953  0.6447
 5189TIP3    H237059   3.862  -0.036  14.323  0.6765 -1.0864 -0.6672
 5190TIP3   OH237060   2.041   4.660   0.845 -0.4052 -0.4917  0.0433
 5190TIP3    H137061   1.968   4.686   0.790  1.2961 -0.0828 -2.1330
 5190TIP3    H237062   2.066   4.740   0.892 -1.4959 -0.7104  1.0604
 5191TIP3   OH237063   0.072   0.727   1.686 -0.2859  0.4457 -0.0680
 5191TIP3    H137064   0.038   0.796   1.742 -1.0586  0.7565 -0.8899
 5191TIP3    H237065  -0.002   0.668   1.672 -0.6937  1.3743 -2.2489
 5192TIP3   OH237066   6.624   2.823  10.489 -0.3160 -0.4128  0.1137
 5192TIP3    H137067   6.619   2.892  10.423 -0.8658 -0.3494  0.2218
 5192TIP3    H237068   6.673   2.752  10.446  1.3875  0.5146  0.4233
 5193TIP3   OH237069   4.026   6.473  12.582  0.1841 -0.1756 -0.1198
 5193TIP3    H137070   4.025   6.563  12.550 -0.7231 -0.3922 -0.7308
 5193TIP3    H237071   3.983   6.478  12.668  2.0332  0.2969  0.8315
 5194TIP3   OH237072   3.323   2.924  11.488  0.0523 -1.0675 -0.0272
 5194TIP3    H137073   3.299   2.838  11.454 -0.9556 -0.8941  0.2097
 5194TIP3    H237074   3.415   2.916  11.511  1.1343 -0.9352 -3.6460
 5195TIP3   OH237075   4.464   0.123  14.441  1.1968 -0.6732  0.0069
 5195TIP3    H137076   4.419   0.174  14.373  2.8454  0.5349 -0.2396
 5195TIP3    H237077   4.397   0.064  14.475 -0.2187  0.1615 -1.2162
 5196TIP3   OH237078   3.077   5.982  13.269  0.6188  0.9651  0.3263
 5196TIP3    H137079   3.037   5.966  13.355  0.4517  0.3679  0.1422
 5196TIP3    H237080   3.029   5.925  13.209  0.6984  1.4152 -0.1804
 5197TIP3   OH237081   4.048   4.929  13.122  0.2078  0.1297  0.2783
 5197TIP3    H137082   4.047   4.959  13.031  2.2866  1.0982  0.5003
 5197TIP3    H237083   4.131   4.962  13.157 -1.7315  2.2824  3.3780
 5198TIP3   OH237084   3.952   0.244  15.221  0.4960 -0.4434 -0.2134
 5198TIP3    H137085   4.028   0.303  15.213  2.6139 -3.1017 -1.2283
 5198TIP3    H237086   3.901   0.260  15.142  1.4882 -0.5177 -0.8891
 5199TIP3   OH237087   0.077   5.346  14.594  0.3408  0.1181  0.0684
 5199TIP3    H137088   0.064   5.440  14.605 -2.0209 -0.2216  0.8706
 5199TIP3    H237089   0.033   5.325  14.512 -0.5191 -0.4843  0.6637
 5200TIP3   OH237090   5.504   2.116  15.378  0.5962 -0.2754 -0.2375
 5200TIP3    H137091   5.581   2.127  15.434  1.6456 -0.3224 -1.6298
 5200TIP3    H237092   5.536   2.134  15.289 -1.2035  0.5700 -0.7521
 5201TIP3   OH237093   0.902   6.447  14.508 -0.3996 -0.2681  1.0899
 5201TIP3    H137094   0.936   6.532  14.537 -0.6959 -0.4450  1.9902
 5201TIP3    H237095   0.907   6.451  14.412 -0.4647  0.7899  1.1121
 5202TIP3   OH237096   1.198   3.766   2.077  0.4452  0.3815 -0.3104
 5202TIP3    H137097   1.248   3.754   1.996  0.8672 -0.0256  0.0026
 5202TIP3    H237098   1.186   3.678   2.111  1.5037  0.6363  0.7989
 5203TIP3   OH237099   5.887   3.629   0.771 -0.2741  0.3125  0.3771
 5203TIP3    H137100   5.928   3.628   0.858  0.4877  2.0410  0.0894
 5203TIP3    H237101   5.797   3.654   0.787 -0.7835 -1.6403  0.8426
 5204TIP3   OH237102   5.063   6.666   1.728 -0.0517  0.2361 -0.3154
 5204TIP3    H137103   4.971   6.639   1.730 -0.2929  1.0381 -0.2700
 5204TIP3    H237104   5.065   6.742   1.671 -0.0417  2.3602  2.3312
 5205TIP3   OH237105   3.909   1.383  12.680 -0.4469  0.1676  0.1040
 5205TIP3    H137106   3.862   1.380  12.763  0.6538  0.3419  0.7507
 5205TIP3    H237107   3.842   1.408  12.615 -1.4778 -0.7412  0.7956
 5206TIP3   OH237108   3.755   5.450   2.651 -0.7791  0.1494  0.0829
 5206TIP3    H137109   3.768   5.506   2.575  2.8114  1.4832  1.4310
 5206TIP3    H237110   3.721   5.509   2.719  1.6013  0.5079  1.0742
 5207TIP3   OH237111   5.734   0.069   3.786 -0.2682  0.2941 -0.4664
 5207TIP3    H137112   5.675   0.141   3.808  0.3512  0.5390  0.4620
 5207TIP3    H237113   5.820   0.099   3.816  0.4944  0.2705 -2.4472
 5208TIP3   OH237114   3.673   2.176  11.742 -0.0488 -0.0053  0.6358
 5208TIP3    H137115   3.724   2.096  11.734 -0.6759 -0.4445  0.9443
 5208TIP3    H237116   3.719   2.226  11.810  0.3733 -0.0693  0.4054
 5209TIP3   OH237117   0.732   0.763  15.809  0.1623 -0.5570 -0.6364
 5209TIP3    H137118   0.725   0.687  15.751 -1.2959 -1.3261  0.4728
 5209TIP3    H237119   0.739   0.725  15.897 -0.0597  0.5932 -0.1101
 5210TIP3   OH237120   0.031   1.867   3.175 -0.0286  0.2139 -0.2020
 5210TIP3    H137121  -0.026   1.871   3.253  0.2927  0.0136  0.0447
 5210TIP3    H237122  -0.021   1.822   3.109  0.2689 -1.0308  0.3931
 5211TIP3   OH237123   6.588   5.180  12.879 -0.6248  0.3766 -0.6764
 5211TIP3    H137124   6.588   5.096  12.833 -1.0982 -0.0312  0.0436
 5211TIP3    H237125   6.656   5.231  12.836 -0.1868 -0.4509 -0.9944
 5212TIP3   OH237126   3.785   5.116  14.072  0.2313 -0.0783 -0.9077
 5212TIP3    H137127   3.823   5.056  14.136  1.1056 -0.0463 -1.3713
 5212TIP3    H237128   3.715   5.161  14.119  0.9771  0.0782  0.0898
 5213TIP3   OH237129   2.657   1.925   6.248  0.4782 -0.3655 -1.0505
 5213TIP3    H137130   2.735   1.874   6.225  0.8549 -0.3421  0.1087
 5213TIP3    H237131   2.676   1.960   6.335 -1.7337 -2.2393  0.3065
 5214TIP3   OH237132   1.636   6.060   5.227  0.8641  0.3299  0.0061
 5214TIP3    H137133   1.620   6.122   5.156 -0.5261  0.4937  0.4352
 5214TIP3    H237134   1.703   6.101   5.281 -0.6116  1.8695  0.7361
 5215TIP3   OH237135   0.424   2.340  16.447  0.1088  0.0073 -0.0108
 5215TIP3    H137136   0.506   2.327  16.496  0.5482 -0.0470 -0.7372
 5215TIP3    H237137   0.395   2.427  16.471  1.1542  0.6083 -0.8349
 5216TIP3   OH237138   1.673   2.729  16.999  0.3032 -0.2611 -0.6890
 5216TIP3    H137139   1.719   2.696  17.077  0.3194  0.5595 -0.3462
 5216TIP3    H237140   1.631   2.652  16.962 -0.4261 -0.5222  0.6178
 5217TIP3   OH237141   3.299   6.571  17.163 -0.3516 -0.3748 -0.1278
 5217TIP3    H137142   3.293   6.486  17.121 -2.1989 -0.1951 -0.3179
 5217TIP3    H237143   3.244   6.629  17.109 -0.8719  0.4100  1.1811
 5218TIP3   OH237144   3.052   6.507  14.984 -0.2863 -0.3699  0.8224
 5218TIP3    H137145   3.004   6.440  14.936 -0.9558  1.1098 -0.6814
 5218TIP3    H237146   2.985   6.570  15.010  0.6745  1.4063 -0.7563
 5219TIP3   OH237147   2.383   2.887   0.720  0.3941  0.2859 -0.2547
 5219TIP3    H137148   2.395   2.935   0.802 -0.4122  2.6246 -1.4160
 5219TIP3    H237149   2.291   2.901   0.696 -0.3333 -3.0702 -0.0175
 5220TIP3   OH237150   6.444   5.758  14.911 -0.5716 -0.0508  0.1731
 5220TIP3    H137151   6.373   5.812  14.876 -1.3543 -1.0514  0.1519
 5220TIP3    H237152   6.499   5.738  14.836 -1.1584 -0.5703 -0.1317
 5221TIP3   OH237153   5.014   0.490  11.237 -0.5160  0.7662  0.0511
 5221TIP3    H137154   5.040   0.570  11.190 -1.6111  0.1628 -1.6833
 5221TIP3    H237155   5.095   0.459  11.277 -0.1104  2.8714  1.0076
 5222TIP3   OH237156   1.998   3.370   2.379 -0.4049 -0.1606 -0.2758
 5222TIP3    H137157   2.041   3.329   2.455 -0.5432  1.7871  0.9208
 5222TIP3    H237158   1.922   3.314   2.362 -0.0098 -1.0023  0.5982
 5223TIP3   OH237159   6.026   2.117  14.747 -0.0331  0.2929 -0.1954
 5223TIP3    H137160   6.035   2.184  14.679 -0.6627  0.9340  0.3287
 5223TIP3    H237161   6.113   2.077  14.753 -0.5758 -1.6073 -3.1700
 5224TIP3   OH237162   5.432   2.414  15.994 -0.4377 -0.4038  0.2196
 5224TIP3    H137163   5.468   2.365  15.920 -0.5277 -0.7800  0.4204
 5224TIP3    H237164   5.368   2.354  16.033  0.2418 -0.5510  1.1321
 5225TIP3   OH237165   0.768   3.840   1.119 -0.2676  0.1994  0.3925
 5225TIP3    H137166   0.766   3.784   1.041  2.2251  1.1424 -0.4613
 5225TIP3    H237167   0.806   3.785   1.187  1.7526  0.6169 -0.3235
 5226TIP3   OH237168   4.488   0.893  11.313  0.3422 -0.1760 -0.2966
 5226TIP3    H137169   4.397   0.863  11.308  0.7523 -1.4202 -0.6627
 5226TIP3    H237170   4.496   0.929  11.402 -0.2479 -0.9483  0.0843
 5227TIP3   OH237171   1.901   3.927   2.153  0.0121 -0.6081 -0.6699
 5227TIP3    H137172   1.867   3.838   2.141  0.3488 -0.7033 -0.9214
 5227TIP3    H237173   1.989   3.914   2.187  0.9553 -0.4184 -2.9396
 5228TIP3   OH237174   1.696   0.853  13.290 -0.0080 -0.1019  0.2369
 5228TIP3    H137175   1.691   0.764  13.255  1.0840 -0.1342  0.1325
 5228TIP3    H237176   1.718   0.907  13.213  1.5201 -0.0521  0.6816
 5229TIP3   OH237177   4.511   1.642   3.754  0.6504  0.5681 -0.0506
 5229TIP3    H137178   4.420   1.666   3.735 -0.0170 -1.0187  0.9490
 5229TIP3    H237179   4.560   1.678   3.680 -0.9882  0.1734 -1.4149
 5230TIP3   OH237180   3.378   3.643  12.314 -0.5138 -0.2045  0.7310
 5230TIP3    H137181   3.351   3.578  12.250 -0.0996  1.5605 -1.3662
 5230TIP3    H237182   3.296   3.678  12.350 -0.8443  0.2323 -0.4134
 5231TIP3   OH237183   5.703   0.128   0.621  0.3978  0.4307  0.4959
 5231TIP3    H137184   5.733   0.040   0.597 -0.0867  0.6870 -1.1925
 5231TIP3    H237185   5.613   0.132   0.589  0.6027  1.7252  0.0032
 5232TIP3   OH237186   0.430   1.467   3.200 -0.3093 -0.1667  0.6884
 5232TIP3    H137187   0.371   1.531   3.238 -0.6360 -0.7613  1.1976
 5232TIP3    H237188   0.509   1.471   3.255  0.8829  1.9100 -1.0550
 5233TIP3   OH237189   3.320   3.579  15.165 -0.2168  0.1383  0.1319
 5233TIP3    H137190   3.306   3.618  15.252  2.0219  0.4407  0.4152
 5233TIP3    H237191   3.301   3.650  15.104 -1.0630  0.1505  0.3947
 5234TIP3   OH237192   4.535   2.413   4.663  0.3418 -0.1158 -0.3396
 5234TIP3    H137193   4.502   2.470   4.593  0.6279  1.0436  0.4359
 5234TIP3    H237194   4.456   2.381   4.707  0.1657 -0.7643 -1.1183
 5235TIP3   OH237195   4.516   6.450   2.932  0.3569 -0.6853  0.7441
 5235TIP3    H137196   4.491   6.397   2.857 -0.1298 -1.8760  1.6989
 5235TIP3    H237197   4.447   6.515   2.940  0.1066 -0.9208  0.5008
 5236TIP3   OH237198   5.737   5.765  11.144  0.0628  1.0730 -0.1927
 5236TIP3    H137199   5.689   5.840  11.179 -0.5883  0.3151  0.5875
 5236TIP3    H237200   5.698   5.749  11.058 -1.1020  0.4947  0.4127
 5237TIP3   OH237201   2.406   2.635  11.919 -0.2836  0.1923  0.0973
 5237TIP3    H137202   2.386   2.561  11.863  3.2665 -0.3553 -0.7281
 5237TIP3    H237203   2.402   2.711  11.860 -3.4472  0.7396  0.8382
 5238TIP3   OH237204   2.062   3.207  16.669  0.4450 -0.3222  0.6632
 5238TIP3    H137205   2.046   3.243  16.757 -1.7452 -0.7400  0.5070
 5238TIP3    H237206   2.115   3.129  16.685 -0.7970 -0.9942  1.7853
 5239TIP3   OH237207   5.996   4.022  16.144 -0.0030 -0.5651  0.2792
 5239TIP3    H137208   5.912   3.983  16.124  0.1016 -0.3450 -0.6654
 5239TIP3    H237209   6.022   4.066  16.063  0.9697 -0.5418  0.5843
 5240TIP3   OH237210   2.009   6.703  16.509  0.0882 -0.2012  0.0767
 5240TIP3    H137211   1.921   6.672  16.528 -0.5612  1.0164 -0.7889
 5240TIP3    H237212   2.020   6.689  16.415  0.9088 -0.5613  0.2191
 5241TIP3   OH237213   4.152   0.840   0.117  0.3043  0.6822  0.0220
 5241TIP3    H137214   4.118   0.904   0.054  0.0198  0.4442 -0.0711
 5241TIP3    H237215   4.246   0.855   0.119  0.0508  2.3010  1.3268
 5242TIP3   OH237216   2.151   4.090   2.014 -0.1375  0.0853 -0.4856
 5242TIP3    H137217   2.113   4.018   1.964 -0.6465 -0.1625  0.2532
 5242TIP3    H237218   2.242   4.096   1.982 -0.5660  0.2083 -1.7390
 5243TIP3   OH237219   3.707   3.781  11.450  0.2363 -0.3103 -0.0583
 5243TIP3    H137220   3.704   3.876  11.446 -0.9152 -0.2229  1.8509
 5243TIP3    H237221   3.780   3.762  11.509  1.2794 -0.6858 -1.4215
 5244TIP3   OH237222   6.453   0.255  11.974 -0.2438 -0.3773 -0.2214
 5244TIP3    H137223   6.439   0.243  12.068  2.3090  0.3833  0.3454
 5244TIP3    H237224   6.455   0.165  11.939 -1.9506 -0.6404  0.2755
 5245TIP3   OH237225   4.159   2.853   1.281  0.0122  0.3027 -0.3094
 5245TIP3    H137226   4.190   2.785   1.340 -0.3813  0.1427 -0.2828
 5245TIP3    H237227   4.085   2.813   1.235  1.5112 -0.3049 -2.3817
 5246TIP3   OH237228   3.346   5.094   0.928  0.5627 -0.5102  1.1181
 5246TIP3    H137229   3.431   5.078   0.888  0.6917  1.3961  0.5587
 5246TIP3    H237230   3.321   5.009   0.965  1.6240 -1.6990 -0.7318
 5247TIP3   OH237231   2.624   5.674  16.633  0.0744 -0.2974  0.4892
 5247TIP3    H137232   2.691   5.704  16.572  0.5795 -0.5595  0.9050
 5247TIP3    H237233   2.651   5.711  16.718 -2.0677  2.3753  0.1521
 5248TIP3   OH237234   6.277   1.695  14.323 -0.0756  0.2663 -0.0354
 5248TIP3    H137235   6.263   1.647  14.405 -1.5195 -1.4075 -1.1611
 5248TIP3    H237236   6.215   1.768  14.327  0.0627  0.3573  0.4846
 5249TIP3   OH237237   3.160   6.771   3.859 -0.1589  0.1950  0.0049
 5249TIP3    H137238   3.169   6.721   3.940 -0.0939 -1.0408 -0.7384
 5249TIP3    H237239   3.183   6.860   3.883 -0.8423 -0.0043  1.5047
 5250TIP3   OH237240   5.370   6.296   3.007 -0.6337  0.3097 -0.2517
 5250TIP3    H137241   5.347   6.336   3.091 -0.7893  0.1025 -0.1943
 5250TIP3    H237242   5.300   6.322   2.948 -0.6771  0.2109 -0.2429
 5251TIP3   OH237243   4.935   0.614  15.822  0.7454 -0.2728 -0.4109
 5251TIP3    H137244   5.002   0.605  15.754  1.3876  2.5597 -0.2583
 5251TIP3    H237245   4.909   0.524  15.841  2.6507 -1.3256 -2.2992
 5252TIP3   OH237246   1.770   0.952   4.471 -0.5479  0.1458  0.0345
 5252TIP3    H137247   1.708   1.013   4.430 -2.2208  0.8626  3.2866
 5252TIP3    H237248   1.815   1.004   4.538  0.8776 -1.2888  0.2693
 5253TIP3   OH237249   1.646   4.174   0.293 -0.7728  0.8916 -0.0459
 5253TIP3    H137250   1.625   4.240   0.359 -1.3618  0.9195 -0.2578
 5253TIP3    H237251   1.600   4.096   0.322  0.3402  0.4098  0.4828
 5254TIP3   OH237252   6.377   5.548   4.854 -0.6802  0.0554 -0.0813
 5254TIP3    H137253   6.462   5.535   4.812 -0.0472 -1.3339  1.4881
 5254TIP3    H237254   6.364   5.468   4.905 -2.1364  0.9628  1.0397
 5255TIP3   OH237255   6.052   3.257  13.978 -0.0467 -0.1387 -0.2411
 5255TIP3    H137256   6.080   3.304  14.057  0.3797 -1.2904  0.3238
 5255TIP3    H237257   6.052   3.323  13.909 -2.2347  1.3590  1.0481
 5256TIP3   OH237258   0.402   3.976  12.097 -0.2019 -0.3697 -0.2832
 5256TIP3    H137259   0.380   3.958  12.005 -0.2653 -2.4964  0.1042
 5256TIP3    H237260   0.339   4.043  12.124  0.8306  1.5201 -2.1839
 5257TIP3   OH237261   6.385   1.998   2.372  0.1949 -0.1178  0.0408
 5257TIP3    H137262   6.298   2.031   2.395 -0.5081 -2.3227  0.7979
 5257TIP3    H237263   6.426   1.979   2.456  1.8626  1.8079 -0.2579
 5258TIP3   OH237264   6.244   0.825  13.275  0.2528  0.0928  0.4899
 5258TIP3    H137265   6.301   0.775  13.334  0.0423  1.1206  1.6096
 5258TIP3    H237266   6.262   0.917  13.295 -1.8347  0.4713  0.9637
 5259TIP3   OH237267   4.095   1.326  11.129  0.1471 -0.0867  0.2646
 5259TIP3    H137268   4.074   1.394  11.065 -0.3612 -0.4384  0.0551
 5259TIP3    H237269   4.043   1.250  11.102  2.0392 -1.1754 -0.5923
 5260TIP3   OH237270   6.312   3.599   3.952  0.0732  0.0410  0.1769
 5260TIP3    H137271   6.321   3.669   3.887  0.4288 -0.3418 -0.1947
 5260TIP3    H237272   6.271   3.527   3.904  0.7430 -0.4037  0.2503
 5261TIP3   OH237273   4.025   3.356  15.345 -0.3170  0.6703 -0.0546
 5261TIP3    H137274   4.102   3.407  15.320 -0.7012  0.2117 -2.3664
 5261TIP3    H237275   4.053   3.265  15.340 -0.6745  0.5298  0.3712
 5262TIP3   OH237276   3.033   2.774  13.786 -0.1603 -0.4081  0.2764
 5262TIP3    H137277   2.971   2.828  13.835 -1.3603 -0.8761 -0.6766
 5262TIP3    H237278   3.082   2.836  13.732 -0.4371 -0.1258  0.3501
 5263TIP3   OH237279   4.050   4.713  13.471  0.6195  0.1167 -0.1224
 5263TIP3    H137280   4.112   4.759  13.414  0.8098 -0.4935 -0.4176
 5263TIP3    H237281   4.007   4.783  13.521  0.3946  0.6791 -1.0606
 5264TIP3   OH237282   2.826   4.877   2.203  0.4736  0.7506  0.0795
 5264TIP3    H137283   2.845   4.971   2.202  0.3725  0.7838  0.6802
 5264TIP3    H237284   2.850   4.849   2.292  1.9834 -0.1120 -0.5584
 5265TIP3   OH237285   3.029   1.268   4.368  0.0244  0.0827 -0.4672
 5265TIP3    H137286   3.000   1.185   4.406 -2.4605  0.5657 -1.1450
 5265TIP3    H237287   3.065   1.316   4.442  1.7964 -1.6683 -0.1173
 5266TIP3   OH237288   0.177   1.930   4.259  0.3059 -0.3331  0.2896
 5266TIP3    H137289   0.130   1.855   4.297 -1.2457 -0.2385 -1.3028
 5266TIP3    H237290   0.115   2.002   4.265  0.9398  0.2671 -0.2535
 5267TIP3   OH237291   5.636   3.585   3.917 -0.6840  0.0478 -0.0622
 5267TIP3    H137292   5.644   3.643   3.841  2.4846  0.4582  0.4510
 5267TIP3    H237293   5.566   3.624   3.970 -1.2335  1.1794 -1.5468
 5268TIP3   OH237294   1.958   6.096   2.035  0.4388  0.0481 -0.1140
 5268TIP3    H137295   1.872   6.102   2.076  0.8052  0.7426  0.5836
 5268TIP3    H237296   1.944   6.128   1.946 -0.0919 -0.1910 -0.1221
 5269TIP3   OH237297   6.787   3.221   4.679 -0.3470 -0.3277 -0.6110
 5269TIP3    H137298   6.810   3.138   4.636  1.4304 -0.4442  0.4301
 5269TIP3    H237299   6.819   3.211   4.769  2.1397  2.2890 -1.0384
 5270TIP3   OH237300   0.363   1.433   2.160 -0.6953  0.4206 -0.1189
 5270TIP3    H137301   0.444   1.478   2.183 -0.0039 -0.6508 -0.3981
 5270TIP3    H237302   0.325   1.407   2.245 -0.2490  0.0831 -0.0184
 5271TIP3   OH237303   5.025   1.040   6.147 -0.0404 -0.3256  0.2765
 5271TIP3    H137304   5.092   1.043   6.079 -0.5616 -0.4407 -0.2479
 5271TIP3    H237305   5.039   1.120   6.199  0.3473 -0.2332  0.0313
 5272TIP3   OH237306   4.073   4.476   1.903  0.0316 -0.4289 -0.4047
 5272TIP3    H137307   3.997   4.491   1.846  0.0025  1.5282  0.1019
 5272TIP3    H237308   4.144   4.524   1.861  1.1378 -2.4547 -1.0179
 5273TIP3   OH237309   1.886   1.716   5.613 -0.1107  0.1386 -0.3921
 5273TIP3    H137310   1.900   1.796   5.663  0.8992 -0.4384  0.2832
 5273TIP3    H237311   1.842   1.656   5.675  1.7302 -0.8041  0.0697
 5274TIP3   OH237312   0.449   5.505   4.440  0.1119  0.4640  0.1850
 5274TIP3    H137313   0.508   5.438   4.407 -1.6652 -0.7073 -0.8233
 5274TIP3    H237314   0.477   5.586   4.398  1.3261  0.0612  0.1919
 5275TIP3   OH237315   1.786   0.768  13.616 -0.0192  0.0641  0.3774
 5275TIP3    H137316   1.807   0.856  13.649  2.4598  0.6364 -2.2376
 5275TIP3    H237317   1.697   0.777  13.582 -0.9182  0.6639  2.6898
 5276TIP3   OH237318   1.375   3.969  16.422 -0.1952 -0.3002  0.0800
 5276TIP3    H137319   1.413   3.962  16.509  0.2351 -1.2253 -0.1727
 5276TIP3    H237320   1.281   3.981  16.437 -0.0561  0.0996  0.6696
 5277TIP3   OH237321   1.752   5.992  12.797 -0.1169  0.6605 -0.3666
 5277TIP3    H137322   1.733   6.023  12.885  0.9150 -1.2822  0.6079
 5277TIP3    H237323   1.669   5.953  12.768 -0.6678  1.9432 -0.5806
 5278TIP3   OH237324   3.511   0.319   5.173 -0.0944 -0.2175 -0.2140
 5278TIP3    H137325   3.443   0.337   5.238 -0.1002  3.3879 -1.0226
 5278TIP3    H237326   3.592   0.317   5.223 -0.3509 -0.0167  0.2181
 5279TIP3   OH237327   2.007   2.965   2.193 -0.0017  0.1023  0.0518
 5279TIP3    H137328   1.935   3.000   2.246 -2.2621  1.2564 -3.4106
 5279TIP3    H237329   2.070   3.036   2.188 -1.1023  1.0458 -0.9751
 5280TIP3   OH237330   3.185   1.890   3.110  0.1377 -0.4118 -0.7144
 5280TIP3    H137331   3.102   1.854   3.078 -0.4394 -0.0127  0.2834
 5280TIP3    H237332   3.252   1.834   3.070 -0.6591 -1.4503 -0.6547
 5281TIP3   OH237333   0.454   5.326  11.813 -0.0990 -0.2890 -0.0592
 5281TIP3    H137334   0.525   5.346  11.873 -0.9769  1.3928  0.4859
 5281TIP3    H237335   0.407   5.409  11.803 -1.3539 -1.1030 -1.2266
 5282TIP3   OH237336   1.136   2.889   6.033 -0.2225 -0.0137  0.6411
 5282TIP3    H137337   1.198   2.899   6.105  1.6100 -0.6638 -0.7887
 5282TIP3    H237338   1.075   2.963   6.044  1.0445  0.9054  1.8385
 5283TIP3   OH237339   1.844   6.743   3.220  0.3824 -0.1697 -0.2879
 5283TIP3    H137340   1.779   6.730   3.151 -0.3102  1.3133  0.0402
 5283TIP3    H237341   1.928   6.730   3.177 -0.0946 -1.1186 -0.9596
 5284TIP3   OH237342   6.658   6.046   1.150  0.3642 -0.5371 -0.1235
 5284TIP3    H137343   6.620   6.125   1.111 -0.3699  0.6410  2.7539
 5284TIP3    H237344   6.733   6.026   1.094 -0.4425  1.1401 -1.9333
 5285TIP3   OH237345   3.420   2.727  15.437 -0.0708 -0.7397 -0.1107
 5285TIP3    H137346   3.406   2.817  15.406 -0.6551 -0.6135  0.4961
 5285TIP3    H237347   3.380   2.672  15.370  3.0007 -0.7545 -2.1352
 5286TIP3   OH237348   3.862   1.538  14.669 -0.3709  0.0278 -0.1157
 5286TIP3    H137349   3.817   1.610  14.715 -1.1991  0.4322 -1.4921
 5286TIP3    H237350   3.798   1.467  14.669 -0.6785  0.2836 -1.2500
 5287TIP3   OH237351   5.208   0.603   2.939 -0.8951 -0.0907  0.0496
 5287TIP3    H137352   5.192   0.571   2.850  1.5179 -2.0611  0.2091
 5287TIP3    H237353   5.280   0.666   2.930 -0.3793 -0.5844  0.6319
 5288TIP3   OH237354   1.263   5.067  12.379 -0.4751 -0.7627 -0.3031
 5288TIP3    H137355   1.314   5.131  12.331  1.4655 -1.6734  0.4346
 5288TIP3    H237356   1.188   5.116  12.413 -1.4349  0.1108 -3.3787
 5289TIP3   OH237357   0.469   1.602   4.579 -0.1551 -0.1847 -0.0560
 5289TIP3    H137358   0.431   1.515   4.568  1.3044 -0.7228 -1.1015
 5289TIP3    H237359   0.489   1.609   4.672  0.3835 -1.2516 -0.0882
 5290TIP3   OH237360   1.689   6.625   3.919  0.0137  0.1294 -0.6575
 5290TIP3    H137361   1.711   6.533   3.931 -2.7111 -0.5106  0.1800
 5290TIP3    H237362   1.721   6.647   3.832  1.4647 -1.3333 -0.5306
 5291TIP3   OH237363   5.893   6.387   4.434 -0.0850  0.2212 -0.3205
 5291TIP3    H137364   5.878   6.480   4.415 -0.5459  0.2776  0.3047
 5291TIP3    H237365   5.811   6.344   4.412  0.5110 -0.2405 -1.7817
 5292TIP3   OH237366   4.743   1.605  14.078  0.8159  0.2592  0.0559
 5292TIP3    H137367   4.650   1.607  14.101  0.7430  0.5568 -0.2469
 5292TIP3    H237368   4.789   1.600  14.161  0.5486  0.9176  0.2439
 5293TIP3   OH237369   6.799   3.556   0.583  0.2993  0.2490  0.0280
 5293TIP3    H137370   6.854   3.633   0.568 -1.0735  1.3646  0.5372
 5293TIP3    H237371   6.813   3.533   0.675 -0.6794  1.0575  0.4011
 5294TIP3   OH237372   3.746   2.796  16.310 -0.1142 -0.0446  0.6442
 5294TIP3    H137373   3.750   2.719  16.253 -1.4764  0.0551  0.3782
 5294TIP3    H237374   3.665   2.785  16.360  0.2259  0.6858  1.3801
 5295TIP3   OH237375   6.510   2.921  14.830  0.8583 -0.5110 -0.2472
 5295TIP3    H137376   6.523   2.993  14.769  1.7553 -1.6648 -1.5007
 5295TIP3    H237377   6.476   2.961  14.910  1.4814  1.2865 -0.8554
 5296TIP3   OH237378   3.917   3.374   0.447  0.3379 -0.0629 -0.5783
 5296TIP3    H137379   3.846   3.313   0.465  0.2510 -0.0573 -0.8897
 5296TIP3    H237380   3.936   3.414   0.531 -0.6494  0.6014 -0.6484
 5297TIP3   OH237381   6.377   1.443   3.156 -0.1855 -0.3531 -0.5091
 5297TIP3    H137382   6.336   1.512   3.103  1.0896 -1.1092 -2.5826
 5297TIP3    H237383   6.337   1.453   3.243 -2.1287  1.1510 -1.4950
 5298TIP3   OH237384   0.412   5.447   4.982 -0.4904 -0.0736 -0.4534
 5298TIP3    H137385   0.414   5.377   4.917 -0.0632  0.2987 -0.8484
 5298TIP3    H237386   0.484   5.425   5.042 -0.0686  0.2547 -0.8286
 5299TIP3   OH237387   2.174   6.200  11.529  0.4623 -0.4795 -0.4263
 5299TIP3    H137388   2.176   6.164  11.441 -0.8040 -1.1363 -0.2123
 5299TIP3    H237389   2.129   6.284  11.520 -0.9053 -1.1595 -0.2366
 5300TIP3   OH237390   3.517   3.575  16.292 -0.1028  0.5575 -0.3362
 5300TIP3    H137391   3.521   3.514  16.366 -0.2198 -0.6770 -1.3136
 5300TIP3    H237392   3.503   3.660  16.332 -0.6325 -0.1487  1.0459
 5301TIP3   OH237393   4.792   4.238   1.239 -0.3895  0.7894 -0.4411
 5301TIP3    H137394   4.759   4.325   1.215 -0.2696  1.1211  0.5289
 5301TIP3    H237395   4.794   4.239   1.335  0.7952  0.1558 -0.4415
 5302TIP3   OH237396   4.738   3.335  14.587 -0.7667 -0.4162  0.0250
 5302TIP3    H137397   4.671   3.315  14.653 -0.9681  1.9678  0.6291
 5302TIP3    H237398   4.812   3.367  14.638 -0.8719  1.3460 -0.8626
 5303TIP3   OH237399   2.697   0.970  15.709 -0.5400 -0.0975  0.0149
 5303TIP3    H137400   2.732   0.889  15.672  1.3030  0.7847 -0.2488
 5303TIP3    H237401   2.602   0.954  15.715 -0.2625 -2.1392 -0.3058
 5304TIP3   OH237402   2.505   5.253   5.169 -0.1674  0.1377 -0.4160
 5304TIP3    H137403   2.521   5.342   5.202 -1.6212  0.9295 -1.6891
 5304TIP3    H237404   2.590   5.210   5.175  0.5144  1.5067  0.5128
 5305TIP3   OH237405   1.528   2.909  15.929 -0.2462  0.1817  0.5551
 5305TIP3    H137406   1.529   2.820  15.964 -0.0782 -0.4193 -0.9092
 5305TIP3    H237407   1.436   2.936  15.932 -0.6116 -0.8066 -0.7613
 5306TIP3   OH237408   3.762   6.274  11.327  0.0671  0.1086  0.0785
 5306TIP3    H137409   3.688   6.326  11.358  1.1214  2.3394 -0.8877
 5306TIP3    H237410   3.825   6.276  11.399  0.6851  1.4720 -0.4583
 5307TIP3   OH237411   5.003   0.015   3.885  0.4464  0.2501  0.3807
 5307TIP3    H137412   4.994  -0.002   3.979 -0.0772 -1.7361  0.0103
 5307TIP3    H237413   5.034   0.105   3.880 -0.2242  0.6475  2.4339
 5308TIP3   OH237414   5.900   3.529  15.929  0.7900  0.4626 -0.3844
 5308TIP3    H137415   5.826   3.590  15.924  0.9253  0.7438  0.6981
 5308TIP3    H237416   5.974   3.583  15.959  0.9845 -0.1622  0.2922
 5309TIP3   OH237417   1.651   3.555   3.194  0.9105  0.2173  0.0517
 5309TIP3    H137418   1.559   3.548   3.169  0.3711  1.6091  1.4787
 5309TIP3    H237419   1.687   3.467   3.180 -1.0363 -0.7743  0.9743
 5310TIP3   OH237420   1.750   2.934  14.209 -0.6197  0.4343 -0.9302
 5310TIP3    H137421   1.766   2.840  14.211 -0.5951  0.3924 -2.1216
 5310TIP3    H237422   1.804   2.969  14.280 -1.6207 -0.5640  0.3732
 5311TIP3   OH237423   1.204   3.713   0.670 -0.1046 -0.0748 -0.1320
 5311TIP3    H137424   1.164   3.784   0.620  0.5373  0.6168  0.3153
 5311TIP3    H237425   1.130   3.663   0.703 -0.5751  0.4604 -0.3464
 5312TIP3   OH237426   0.490   1.145   3.259 -0.7119 -0.1768 -0.0611
 5312TIP3    H137427   0.478   1.237   3.233 -1.5000  0.4839  2.2791
 5312TIP3    H237428   0.401   1.113   3.273 -0.3955 -0.1921  2.3738
 5313TIP3   OH237429   1.173   5.649  15.675  0.0227  0.2939 -0.4187
 5313TIP3    H137430   1.106   5.582  15.663  0.5167 -0.4775  0.8736
 5313TIP3    H237431   1.241   5.627  15.611  0.1012 -0.3486 -0.1206
 5314TIP3   OH237432   1.494   3.261  15.735  0.1838  0.1454 -0.1121
 5314TIP3    H137433   1.545   3.234  15.811 -1.7922 -2.9181  0.3349
 5314TIP3    H237434   1.408   3.283  15.771 -1.5940 -3.7604 -1.4607
 5315TIP3   OH237435   0.760   5.913  11.069 -0.0021 -0.5294 -0.1880
 5315TIP3    H137436   0.713   5.848  11.017  1.1958 -1.5984  0.0291
 5315TIP3    H237437   0.831   5.943  11.012 -0.4514  0.4896 -0.2315
 5316TIP3   OH237438   0.028   4.366   3.709 -0.1435 -0.4227 -0.1116
 5316TIP3    H137439  -0.065   4.379   3.727 -0.7680 -3.3728 -0.7638
 5316TIP3    H237440   0.073   4.421   3.773 -2.2966  1.0558  0.2390
 5317TIP3   OH237441   6.027   1.264  12.834 -0.1390 -0.0064  0.1663
 5317TIP3    H137442   6.045   1.181  12.878  1.5456 -0.1825 -0.7635
 5317TIP3    H237443   5.933   1.260  12.813 -0.2977 -1.2340  0.9829
 5318TIP3   OH237444   5.228   4.417   5.959  0.0608  0.1208 -0.1422
 5318TIP3    H137445   5.301   4.385   5.906 -0.4623  0.7642 -1.2820
 5318TIP3    H237446   5.198   4.495   5.913 -2.3952 -1.0204 -0.6112
 5319TIP3   OH237447   4.002   3.531   4.952  0.3244  0.4302  0.1208
 5319TIP3    H137448   3.965   3.619   4.966  1.3239  0.5397  2.4314
 5319TIP3    H237449   3.942   3.472   4.997  0.9894  0.2254  0.7586
 5320TIP3   OH237450   3.183   1.737   0.282  0.4616  0.9351 -0.3730
 5320TIP3    H137451   3.090   1.726   0.302  0.1169  3.5409 -0.2234
 5320TIP3    H237452   3.219   1.648   0.287 -1.7933 -0.0065  0.5975
 5321TIP3   OH237453   5.602   3.251   2.555 -0.1811  0.0287  0.6645
 5321TIP3    H137454   5.513   3.248   2.588 -1.2759  0.9106 -1.9225
 5321TIP3    H237455   5.598   3.313   2.482  2.5582  0.0798  0.4609
 5322TIP3   OH237456   4.129   4.510  12.651 -0.1773  0.1236 -0.2151
 5322TIP3    H137457   4.099   4.583  12.705 -0.4401 -1.1781  1.4971
 5322TIP3    H237458   4.182   4.457  12.710  0.3292 -0.8598 -1.5199
 5323TIP3   OH237459   5.293   5.258   4.392 -0.2231  0.2418  0.0031
 5323TIP3    H137460   5.289   5.349   4.420  1.8503  0.2714  0.3799
 5323TIP3    H237461   5.233   5.212   4.451 -0.5557  1.2107  0.4373
 5324TIP3   OH237462   0.789   6.444   0.749 -0.0326  0.2891 -0.4062
 5324TIP3    H137463   0.874   6.478   0.721  0.5546 -0.2844  0.6165
 5324TIP3    H237464   0.742   6.428   0.668  1.5126 -1.1110 -1.0896
 5325TIP3   OH237465   6.108   4.136   5.842  0.1621  0.4763 -0.5498
 5325TIP3    H137466   6.097   4.199   5.913 -0.0120 -1.1364  0.9081
 5325TIP3    H237467   6.202   4.134   5.825  0.1482  1.2514 -0.7525
 5326TIP3   OH237468   0.937   4.194   0.907  0.1257 -0.5937  0.0094
 5326TIP3    H137469   0.932   4.190   1.002  1.0960 -0.3508  0.0858
 5326TIP3    H237470   0.896   4.113   0.877 -0.0923 -0.7189  0.6361
 5327TIP3   OH237471   5.449   0.588   3.931 -0.2014  0.5908 -0.6236
 5327TIP3    H137472   5.361   0.615   3.956 -0.4004 -0.7773  0.2936
 5327TIP3    H237473   5.505   0.618   4.002 -0.1865  0.0488 -0.3994
 5328TIP3   OH237474   0.771   1.727   0.600  0.0451 -0.1585  0.4130
 5328TIP3    H137475   0.861   1.704   0.580  0.7418  0.2584  2.8087
 5328TIP3    H237476   0.769   1.740   0.695 -2.3064  0.8485  0.3089
 5329TIP3   OH237477   0.880   2.686  12.089 -0.5928 -0.1716 -0.2091
 5329TIP3    H137478   0.900   2.744  12.162  0.9354  0.0580 -0.7594
 5329TIP3    H237479   0.839   2.743  12.023 -0.0263  0.0866 -0.3469
 5330TIP3   OH237480   4.289   3.024   3.036 -0.1724  0.3866 -0.4907
 5330TIP3    H137481   4.303   2.961   3.107  1.2749  0.1289 -0.9697
 5330TIP3    H237482   4.347   2.994   2.966 -1.7345  0.4781 -1.9171
 5331TIP3   OH237483   4.818   5.496  11.192 -0.2793  0.0479  0.6408
 5331TIP3    H137484   4.874   5.511  11.115 -1.1773 -3.1091 -0.8030
 5331TIP3    H237485   4.879   5.475  11.262  0.5800  3.2606  0.9912
 5332TIP3   OH237486   0.307   2.715  13.274 -0.1030  0.3029  0.3086
 5332TIP3    H137487   0.264   2.665  13.343 -0.2015  0.6929  0.5355
 5332TIP3    H237488   0.362   2.652  13.228  0.4156  0.1643  1.1147
 5333TIP3   OH237489   3.745   2.623   4.561  0.5690  0.4928 -0.4323
 5333TIP3    H137490   3.681   2.610   4.631  1.4836  0.6368  0.4725
 5333TIP3    H237491   3.702   2.591   4.482 -0.5524  0.4553  0.1726
 5334TIP3   OH237492   3.814   5.711   1.350 -0.7005  0.3330 -0.1805
 5334TIP3    H137493   3.777   5.747   1.269 -0.3385 -0.0681 -0.5234
 5334TIP3    H237494   3.737   5.696   1.406 -0.8586  1.6842 -0.0026
 5335TIP3   OH237495   5.289   1.562  10.545 -0.1251  0.2197 -0.1073
 5335TIP3    H137496   5.216   1.589  10.489 -1.4610 -2.2084  0.3070
 5335TIP3    H237497   5.252   1.563  10.634 -0.4341 -2.9999 -0.0756
 5336TIP3   OH237498   4.533   6.091  14.228  0.7133 -0.3840  0.1720
 5336TIP3    H137499   4.473   6.093  14.153 -1.2560 -0.1653  1.6457
 5336TIP3    H237500   4.501   6.018  14.282  1.1987  0.3182  1.4526
 5337TIP3   OH237501   6.596   1.696   4.500  0.0196 -0.5061  0.3946
 5337TIP3    H137502   6.678   1.652   4.522 -0.3434 -1.1108  0.5380
 5337TIP3    H237503   6.545   1.631   4.452  0.0992  0.2505 -0.7455
 5338TIP3   OH237504   2.129   3.976  15.299  0.4474  0.3995  0.1183
 5338TIP3    H137505   2.053   4.034  15.305 -2.3714 -3.0080  1.1110
 5338TIP3    H237506   2.163   3.971  15.388 -1.1302 -1.4372  0.7039
 5339TIP3   OH237507   2.428   0.006  12.304 -0.3132  0.3990 -0.6902
 5339TIP3    H137508   2.401  -0.052  12.233  0.1515 -0.7520  0.0476
 5339TIP3    H237509   2.523   0.013  12.295 -0.3608  1.0418 -0.7586
 5340TIP3   OH237510   2.581   0.307   3.053 -0.8839 -0.3851 -0.4024
 5340TIP3    H137511   2.599   0.236   2.991  0.0383  0.3881 -1.0591
 5340TIP3    H237512   2.581   0.386   2.999 -0.5864  0.2502  0.5063
 5341TIP3   OH237513   0.862   1.214  10.597  0.3815  0.0602 -0.0025
 5341TIP3    H137514   0.877   1.121  10.610  0.5303  0.1636  0.5726
 5341TIP3    H237515   0.853   1.224  10.502  2.0467 -0.2886 -0.2243
 5342TIP3   OH237516   5.967   5.928  16.907 -0.2715  0.1809 -0.3489
 5342TIP3    H137517   6.041   5.924  16.968 -1.3192 -1.2700  0.8828
 5342TIP3    H237518   5.894   5.890  16.955 -0.6365 -3.2267 -3.2035
 5343TIP3   OH237519   0.402   2.281   0.040 -0.4161 -0.2442  0.5878
 5343TIP3    H137520   0.464   2.298   0.112 -0.1461 -0.7401  0.4818
 5343TIP3    H237521   0.339   2.352   0.044 -1.3373 -1.1011  2.3184
 5344TIP3   OH237522   0.699   2.810  14.266 -0.0839 -0.0125 -0.0971
 5344TIP3    H137523   0.773   2.808  14.327  1.5883  1.2991 -1.9491
 5344TIP3    H237524   0.722   2.746  14.198 -0.5283  0.5824 -0.8252
 5345TIP3   OH237525   4.184   2.121  14.861 -0.5783 -0.2883 -0.5336
 5345TIP3    H137526   4.176   2.171  14.942 -1.8170 -0.8351 -0.2984
 5345TIP3    H237527   4.176   2.029  14.888  2.2397 -0.7396 -0.8736
 5346TIP3   OH237528   1.802   5.171  15.211  0.4793  0.4097  1.0043
 5346TIP3    H137529   1.890   5.134  15.217  1.8752  3.5730  3.6753
 5346TIP3    H237530   1.744   5.100  15.236  2.2283 -1.7189 -0.5864
 5347TIP3   OH237531   0.134   3.816   3.561 -0.5510  0.4850  0.7452
 5347TIP3    H137532   0.062   3.755   3.578 -1.9536  2.2695  1.5302
 5347TIP3    H237533   0.198   3.796   3.629  0.6073 -2.2927 -0.9795
 5348TIP3   OH237534   6.356   1.037   6.317  0.0216 -0.2402  0.2593
 5348TIP3    H137535   6.363   1.100   6.389 -1.0198 -0.3523  0.4720
 5348TIP3    H237536   6.339   0.953   6.359  0.6227 -0.5305 -0.0643
 5349TIP3   OH237537   4.249   5.181   5.015  0.3467 -0.3213 -0.9579
 5349TIP3    H137538   4.305   5.141   4.949 -0.1223 -0.0331 -1.5418
 5349TIP3    H237539   4.160   5.155   4.991  0.3036 -2.1672  0.9099
 5350TIP3   OH237540   2.021   4.769  16.552  0.3406 -0.2145 -0.1164
 5350TIP3    H137541   2.076   4.762  16.474  0.8104  0.1587  0.1691
 5350TIP3    H237542   1.936   4.735  16.525  0.4453  0.0790 -0.8447
 5351TIP3   OH237543   0.112   5.812   1.649 -0.1443  0.3340 -0.0754
 5351TIP3    H137544   0.125   5.717   1.648  0.3867  0.4061 -1.1308
 5351TIP3    H237545   0.136   5.839   1.738  0.9609 -0.3490 -0.1593
 5352TIP3   OH237546   4.321   0.304  11.441  0.1932  0.7611 -0.5244
 5352TIP3    H137547   4.361   0.345  11.365 -0.4263  0.9052 -0.7811
 5352TIP3    H237548   4.391   0.253  11.481  0.2996 -0.0541 -1.7124
 5353TIP3   OH237549   1.701   2.520   1.171 -0.1043 -0.3175  0.5960
 5353TIP3    H137550   1.707   2.472   1.254 -0.4802 -2.5415 -0.5874
 5353TIP3    H237551   1.723   2.455   1.104  1.5729  1.7657 -0.9987
 5354TIP3   OH237552   4.294   0.853  12.355  0.0475 -0.1496 -0.8365
 5354TIP3    H137553   4.320   0.761  12.349 -0.9534 -0.4618 -0.5326
 5354TIP3    H237554   4.226   0.863  12.288 -0.4894  0.1419 -0.2454
 5355TIP3   OH237555   0.620   4.226   2.090  0.1374 -0.0566 -0.2063
 5355TIP3    H137556   0.532   4.262   2.097 -0.2689 -0.8459 -1.1532
 5355TIP3    H237557   0.628   4.197   1.999  1.3912  0.0433 -0.1485
 5356TIP3   OH237558   3.091   0.064  16.327  0.2488 -0.4582  0.5225
 5356TIP3    H137559   3.165   0.124  16.337 -0.6383  1.0890 -1.3827
 5356TIP3    H237560   3.104   0.026  16.240 -0.3727 -1.3602  0.8192
 5357TIP3   OH237561   0.589   0.253  11.168  0.3374  0.8003  0.3270
 5357TIP3    H137562   0.668   0.205  11.193 -1.1057 -2.4719 -0.8293
 5357TIP3    H237563   0.540   0.262  11.249  0.0124 -1.0391  0.3725
 5358TIP3   OH237564   0.530   1.629   0.949 -0.1538  0.7547  0.6413
 5358TIP3    H137565   0.553   1.709   0.902 -0.5483  0.5694  0.1234
 5358TIP3    H237566   0.443   1.605   0.916  0.2631 -0.2878  0.2433
 5359TIP3   OH237567   3.225   3.283   0.443 -0.5158 -0.4644 -0.1115
 5359TIP3    H137568   3.154   3.338   0.409  0.6841  0.8288 -0.6140
 5359TIP3    H237569   3.290   3.345   0.475  1.0175 -1.5706 -0.9763
 5360TIP3   OH237570   5.268   2.716  15.765  0.0098 -0.0742 -0.2196
 5360TIP3    H137571   5.213   2.646  15.730  1.3433 -0.4287 -1.7621
 5360TIP3    H237572   5.278   2.777  15.691  0.4083  0.7725  0.5184
 5361TIP3   OH237573   1.417   4.330  13.168 -0.5317  0.0567  0.3782
 5361TIP3    H137574   1.404   4.274  13.091  1.1834 -1.2094  0.9450
 5361TIP3    H237575   1.340   4.312  13.223 -2.7109  2.2962 -1.6753
 5362TIP3   OH237576   5.007   6.396  11.355 -0.0082  0.2080  0.2665
 5362TIP3    H137577   4.930   6.453  11.357 -0.6039 -0.3811 -2.2918
 5362TIP3    H237578   4.973   6.308  11.372  0.6169  0.3004  2.2279
 5363TIP3   OH237579   5.863   6.593  15.260 -0.1691  0.3873  0.7174
 5363TIP3    H137580   5.954   6.607  15.236  0.0353  1.3141  1.9477
 5363TIP3    H237581   5.849   6.647  15.338 -1.6276 -0.1317  0.8635
 5364TIP3   OH237582   4.791   1.136  11.620 -0.2298  0.2045 -0.2123
 5364TIP3    H137583   4.805   1.068  11.686 -0.4860  1.1434  0.8379
 5364TIP3    H237584   4.700   1.123  11.591 -1.4415  2.0453  2.3687
 5365TIP3   OH237585   4.559   6.699   1.432  0.3590 -0.6854  0.2181
 5365TIP3    H137586   4.550   6.795   1.431  0.7575 -0.4942  3.6667
 5365TIP3    H237587   4.542   6.673   1.342  1.5536  2.7463 -1.1851
 5366TIP3   OH237588   1.193   2.252   3.977 -0.0669 -0.1832 -0.0204
 5366TIP3    H137589   1.226   2.334   3.940  0.5150 -0.7316 -0.7666
 5366TIP3    H237590   1.181   2.270   4.070 -1.6992  1.2784 -0.4769
 5367TIP3   OH237591   5.614   5.714   0.354 -0.3104 -0.2937 -0.3487
 5367TIP3    H137592   5.649   5.795   0.391 -1.2955  0.0099 -0.0280
 5367TIP3    H237593   5.630   5.648   0.421 -2.2708  0.2975  0.7757
 5368TIP3   OH237594   2.429   2.698  16.567 -0.2315 -0.4757  0.5296
 5368TIP3    H137595   2.404   2.721  16.657  1.8217  1.2346  0.7370
 5368TIP3    H237596   2.493   2.627  16.577  0.4891  0.1577  0.4798
 5369TIP3   OH237597   1.675   4.911   5.029  0.4285 -0.0536 -0.3338
 5369TIP3    H137598   1.686   4.956   5.113 -0.7475 -1.1759  0.4555
 5369TIP3    H237599   1.608   4.962   4.983  1.2835  0.7337 -0.7478
 5370TIP3   OH237600   3.888   3.202  11.823 -0.0814  0.5940 -0.3030
 5370TIP3    H137601   3.800   3.232  11.800 -0.5009 -1.9055 -2.4590
 5370TIP3    H237602   3.946   3.258  11.770 -0.6346  0.0292 -1.5639
 5371TIP3   OH237603   4.423   1.642  16.992 -0.1357 -0.0122 -0.7321
 5371TIP3    H137604   4.458   1.726  17.019 -0.1800 -0.4163  0.6876
 5371TIP3    H237605   4.330   1.646  17.014  0.3216 -1.3319  1.9268
 5372TIP3   OH237606   0.672   1.174   0.264 -0.6650 -0.0502  0.0190
 5372TIP3    H137607   0.692   1.242   0.200 -1.5580  0.8919  0.7095
 5372TIP3    H237608   0.586   1.198   0.299 -0.6084 -1.0565  0.9038
 5373TIP3   OH237609   5.570   4.863  14.712  0.4181  0.2462  0.3953
 5373TIP3    H137610   5.506   4.907  14.655  1.1852 -0.1839 -0.8251
 5373TIP3    H237611   5.644   4.923  14.715  0.5589  0.0640  0.5949
 5374TIP3   OH237612   0.563   6.585  14.629 -0.2268  0.5629 -0.0496
 5374TIP3    H137613   0.590   6.494  14.637  1.1272  0.9770  0.4740
 5374TIP3    H237614   0.645   6.633  14.617 -1.1048  1.4037 -4.0858
 5375TIP3   OH237615   3.457   6.251   4.591  0.1194 -0.1072  0.3868
 5375TIP3    H137616   3.396   6.210   4.530 -0.0975 -0.7442  1.0220
 5375TIP3    H237617   3.410   6.255   4.674 -0.7847  3.6287 -0.1337
 5376TIP3   OH237618   3.153   0.214   5.621 -0.3170  0.2678 -0.1684
 5376TIP3    H137619   3.073   0.177   5.584  1.3714 -2.5969 -1.3105
 5376TIP3    H237620   3.164   0.298   5.576 -0.5811 -1.1815 -3.1763
 5377TIP3   OH237621   4.402   0.731  15.094 -0.1740 -0.7265 -0.3680
 5377TIP3    H137622   4.461   0.790  15.140 -1.1736 -0.0822  0.1341
 5377TIP3    H237623   4.446   0.646  15.096  0.0999 -0.5852  1.2633
 5378TIP3   OH237624   3.501   2.883   0.338 -0.1699  0.0005  0.1273
 5378TIP3    H137625   3.590   2.916   0.351  0.4719 -1.6185  0.0744
 5378TIP3    H237626   3.505   2.833   0.257 -0.9870 -0.5706  0.4242
 5379TIP3   OH237627   6.200   6.021  10.622  0.0212 -0.1873 -0.3187
 5379TIP3    H137628   6.241   6.105  10.638  1.1600 -0.4231 -1.7739
 5379TIP3    H237629   6.112   6.043  10.589  0.5202  0.4671 -1.2610
 5380TIP3   OH237630   3.274   1.545  17.191  0.1743 -0.2725  0.0925
 5380TIP3    H137631   3.305   1.632  17.166  1.7310 -0.9753 -0.5429
 5380TIP3    H237632   3.347   1.507  17.240  0.5925 -2.1520 -1.8366
 5381TIP3   OH237633   4.699   3.876  16.587  0.2731  0.2915  0.0679
 5381TIP3    H137634   4.748   3.938  16.533  0.0064  1.4852  1.1213
 5381TIP3    H237635   4.749   3.871  16.669 -0.6111  0.4453  0.6308
 5382TIP3   OH237636   3.073   4.414  12.233 -0.2178 -0.0636 -0.5676
 5382TIP3    H137637   3.065   4.410  12.137 -2.3827 -1.5730 -0.4026
 5382TIP3    H237638   3.075   4.322  12.260  1.5364  0.3350  0.8186
 5383TIP3   OH237639   0.282   2.244   3.941 -0.3829  0.1430 -0.2340
 5383TIP3    H137640   0.191   2.213   3.940 -0.3633  0.0497  0.4283
 5383TIP3    H237641   0.329   2.179   3.992 -0.3901  1.3695  1.4161
 5384TIP3   OH237642   3.196   1.029   1.456 -0.2208 -0.2708  0.2725
 5384TIP3    H137643   3.227   1.061   1.541 -0.6983  0.9120  0.0328
 5384TIP3    H237644   3.102   1.016   1.469 -0.7717  2.1833 -0.6602
 5385TIP3   OH237645   5.888   2.147   1.716 -0.7699  0.4617  0.2417
 5385TIP3    H137646   5.924   2.093   1.786 -0.2789  0.7432  0.2111
 5385TIP3    H237647   5.947   2.133   1.642 -1.1680  0.3237 -0.0514
 5386TIP3   OH237648   0.636   3.965  16.127 -0.7678 -0.2578  0.3964
 5386TIP3    H137649   0.576   4.027  16.084  2.2587  1.6781 -1.4119
 5386TIP3    H237650   0.698   4.021  16.174  1.6756 -1.9059 -0.7065
 5387TIP3   OH237651   3.000   1.942  15.884  0.1759 -0.5476  0.2935
 5387TIP3    H137652   3.012   2.020  15.829  1.6380 -0.6974  0.3803
 5387TIP3    H237653   2.954   1.880  15.827  1.0177 -0.4328 -0.5391
 5388TIP3   OH237654   0.531   3.569   4.615 -0.3608 -0.4862  0.5120
 5388TIP3    H137655   0.506   3.584   4.706  1.1021 -1.1044  1.0542
 5388TIP3    H237656   0.491   3.485   4.592 -0.2172 -0.6330  0.7962
 5389TIP3   OH237657   3.531   2.545   3.365  0.1625  0.2702 -0.0476
 5389TIP3    H137658   3.518   2.542   3.459 -0.0385 -0.6365 -0.0982
 5389TIP3    H237659   3.444   2.531   3.327  0.1153  1.3439 -0.3764
 5390TIP3   OH237660   3.018   1.963  13.701  0.1901  0.0270  0.4836
 5390TIP3    H137661   3.091   2.022  13.686  0.0719  0.1936  0.5640
 5390TIP3    H237662   2.994   1.977  13.793  0.5298 -0.5584  0.6679
 5391TIP3   OH237663   3.517   4.645  17.222 -0.3569 -0.0005  0.0013
 5391TIP3    H137664   3.455   4.718  17.225  0.5804  0.8017  0.3430
 5391TIP3    H237665   3.588   4.675  17.165  0.8895  0.0870  1.5188
 5392TIP3   OH237666   0.685   3.177  14.415 -0.0137  0.1568  0.9206
 5392TIP3    H137667   0.630   3.127  14.475  1.3114  0.0228  2.0866
 5392TIP3    H237668   0.746   3.224  14.472  0.2279  1.3449 -0.2587
 5393TIP3   OH237669   4.014   0.166   3.396  0.5847 -0.7179 -0.3677
 5393TIP3    H137670   4.011   0.164   3.492  1.8082 -0.1116 -0.2947
 5393TIP3    H237671   3.935   0.120   3.368  0.4539 -1.3167  0.9318
 5394TIP3   OH237672   5.091   0.371  16.233  0.4602 -0.2486  0.1715
 5394TIP3    H137673   5.001   0.364  16.202  0.6946  0.3521 -0.6669
 5394TIP3    H237674   5.102   0.462  16.259  0.4573 -0.5964  1.4957
 5395TIP3   OH237675   2.456   4.909  11.609 -0.1734 -0.6907  0.3075
 5395TIP3    H137676   2.406   4.841  11.562  0.3196  0.4260 -1.9550
 5395TIP3    H237677   2.389   4.971  11.638 -0.2700  0.7916 -2.6972
 5396TIP3   OH237678   2.648   5.576   6.203  0.0425  0.4973 -0.0714
 5396TIP3    H137679   2.594   5.581   6.125  0.9695 -1.5095 -0.9334
 5396TIP3    H237680   2.609   5.505   6.255  0.3206  0.7839  0.5382
 5397TIP3   OH237681   5.144   5.607  14.382  0.5024 -0.0700  0.2834
 5397TIP3    H137682   5.135   5.539  14.315  0.3526  0.7336 -0.5305
 5397TIP3    H237683   5.134   5.689  14.334  2.0553  0.5830  1.0067
 5398TIP3   OH237684   0.861   4.207   5.866 -0.2357 -0.4160  0.0190
 5398TIP3    H137685   0.915   4.218   5.788  0.6465 -2.5799  0.2561
 5398TIP3    H237686   0.837   4.296   5.892  1.8402  0.5118 -1.0472
 5399TIP3   OH237687   0.603   5.231   2.737 -0.4780 -0.6305  0.0874
 5399TIP3    H137688   0.670   5.183   2.688  0.1047 -2.1448  2.2291
 5399TIP3    H237689   0.562   5.289   2.672  3.0641  0.5982 -1.2890
 5400TIP3   OH237690   4.337   1.553  11.063 -0.3573 -0.4336  0.4192
 5400TIP3    H137691   4.245   1.547  11.037  0.3048 -0.7765 -2.1436
 5400TIP3    H237692   4.359   1.646  11.055 -0.5891 -0.2800  1.4992
 5401TIP3   OH237693   1.815   0.097  14.854  0.3133 -0.5587 -0.3209
 5401TIP3    H137694   1.737   0.145  14.826  1.1900 -0.3460 -2.6730
 5401TIP3    H237695   1.796   0.006  14.832 -0.3166 -0.9822  1.7312
 5402TIP3   OH237696   0.067   6.375  16.231  0.4264  0.1516  0.0830
 5402TIP3    H137697   0.131   6.325  16.282  1.7536  0.2631 -1.3985
 5402TIP3    H237698   0.008   6.413  16.297  0.6232 -1.6382  1.3624
 5403TIP3   OH237699   1.804   5.681   4.508 -0.0115  0.6088 -0.0495
 5403TIP3    H137700   1.783   5.645   4.595 -0.6448 -0.2150 -0.5355
 5403TIP3    H237701   1.891   5.646   4.489  0.1089  0.7501  0.2206
 5404TIP3   OH237702   4.808   3.892  15.717  0.3850 -0.1269  0.6949
 5404TIP3    H137703   4.881   3.902  15.779  0.1284  0.1958  0.9480
 5404TIP3    H237704   4.825   3.958  15.649  2.8560 -3.0106 -1.8148
 5405TIP3   OH237705   1.829   6.100   0.461  0.1587  0.2469 -0.4280
 5405TIP3    H137706   1.844   6.188   0.496  2.6417 -0.4216  0.3966
 5405TIP3    H237707   1.899   6.089   0.395 -1.3922 -0.3738 -2.0557
 5406TIP3   OH237708   6.092   2.715   2.731 -0.1505 -0.4277 -0.0253
 5406TIP3    H137709   6.016   2.753   2.776  1.2064  0.5547  1.5476
 5406TIP3    H237710   6.066   2.713   2.639 -2.1558 -0.3188  0.4833
 5407TIP3   OH237711   3.854   5.885   6.292 -0.3090 -0.2787  0.5942
 5407TIP3    H137712   3.906   5.813   6.257 -0.4360 -0.1329  0.1015
 5407TIP3    H237713   3.863   5.877   6.387 -0.0768 -0.7605  0.5339
 5408TIP3   OH237714   3.358   6.118   4.368  0.3270  1.0684 -0.3654
 5408TIP3    H137715   3.355   6.058   4.294  1.1626  1.2001 -0.5205
 5408TIP3    H237716   3.302   6.191   4.342 -0.7743  0.3267 -0.1350
 5409TIP3   OH237717   4.648   4.606   2.324  0.1475 -0.4796 -0.2418
 5409TIP3    H137718   4.597   4.687   2.321  1.4397  0.3510 -0.7871
 5409TIP3    H237719   4.739   4.635   2.330  0.5782 -1.8495  5.7198
 5410TIP3   OH237720   0.925   5.373  16.007 -0.3171 -0.0339  0.0729
 5410TIP3    H137721   0.848   5.315  16.014 -0.8611  0.3026 -2.2810
 5410TIP3    H237722   0.999   5.313  15.999 -0.8438 -0.5043 -2.0518
 5411TIP3   OH237723   2.260   5.057   1.264  0.1701  0.4389 -0.5238
 5411TIP3    H137724   2.267   5.090   1.175 -0.3735  1.4550 -0.2129
 5411TIP3    H237725   2.325   5.107   1.314  1.0269 -0.6707 -0.4749
 5412TIP3   OH237726   0.959   1.540   5.635 -0.6095  0.2678  0.3517
 5412TIP3    H137727   0.928   1.481   5.704 -0.7858 -0.2145 -0.1290
 5412TIP3    H237728   0.931   1.498   5.554  0.9778 -0.0026 -0.0967
 5413TIP3   OH237729   3.519   4.196   0.661 -0.1313 -0.0582 -0.1295
 5413TIP3    H137730   3.530   4.281   0.702 -0.4747 -0.0677 -0.0145
 5413TIP3    H237731   3.584   4.194   0.590  0.5374 -0.0860  0.4812
 5414TIP3   OH237732   5.415   2.887  15.219  0.1181 -0.1294  0.2284
 5414TIP3    H137733   5.446   2.977  15.225 -1.1541  0.4436 -1.1493
 5414TIP3    H237734   5.493   2.834  15.239  1.0581  1.2540  0.4157
 5415TIP3   OH237735   6.232   4.010  14.707  0.2700 -0.1237 -0.4537
 5415TIP3    H137736   6.322   3.999  14.739  0.5735 -0.4435 -1.3803
 5415TIP3    H237737   6.239   3.999  14.612 -0.7833 -0.3335 -0.5175
 5416TIP3   OH237738   2.303   0.941  12.830  0.0584 -0.3020  0.4478
 5416TIP3    H137739   2.324   0.906  12.916  1.0291  0.4123  0.5153
 5416TIP3    H237740   2.291   1.035  12.844  1.7358  0.0746 -0.4328
 5417TIP3   OH237741   4.126   0.401   1.265 -0.1200 -0.6389  0.1110
 5417TIP3    H137742   4.035   0.394   1.292 -0.0117  0.6936  0.9092
 5417TIP3    H237743   4.176   0.405   1.347  0.5176  0.0446 -0.2906
 5418TIP3   OH237744   1.296   5.917   4.699  0.2281  0.1318  0.3924
 5418TIP3    H137745   1.311   6.002   4.656  0.2830  1.0525  2.1573
 5418TIP3    H237746   1.381   5.892   4.734 -0.2485  0.5819  1.9742
 5419TIP3   OH237747   4.775   0.146   5.149 -0.0845 -0.0503 -0.3856
 5419TIP3    H137748   4.685   0.123   5.169  0.4091 -0.7210  1.2702
 5419TIP3    H237749   4.791   0.109   5.063 -1.6237  0.7926 -1.0712
 5420TIP3   OH237750   6.691   2.795  14.266 -0.2188 -0.0481  0.8227
 5420TIP3    H137751   6.759   2.750  14.216 -0.1351 -0.3306  1.1853
 5420TIP3    H237752   6.641   2.725  14.307 -0.0988  0.1868  1.3765
 5421TIP3   OH237753   3.942   0.705   0.799 -0.4616  0.2058 -0.0085
 5421TIP3    H137754   3.938   0.745   0.886 -0.2889  1.7995 -0.6884
 5421TIP3    H237755   3.874   0.638   0.800 -0.4686  0.2061  1.3448
 5422TIP3   OH237756   5.039   0.087   4.531 -0.0982 -0.3256 -0.0600
 5422TIP3    H137757   4.961   0.039   4.501 -0.3104 -0.9666  1.4225
 5422TIP3    H237758   5.019   0.179   4.511 -0.5170 -0.6453 -1.1904
 5423TIP3   OH237759   1.856   4.140  13.042  0.3341  0.4262  0.2773
 5423TIP3    H137760   1.827   4.114  12.954  0.1764  1.0991  0.1199
 5423TIP3    H237761   1.849   4.236  13.041  0.7286  0.4620  0.8878
 5424TIP3   OH237762   4.521   2.214  16.986 -0.4834  0.5893 -0.3778
 5424TIP3    H137763   4.470   2.146  16.941 -1.2637 -0.4345  1.9088
 5424TIP3    H237764   4.563   2.168  17.059  0.7463  2.1621 -0.0522
 5425TIP3   OH237765   0.634   6.572   5.193 -0.0828 -0.5512 -0.4889
 5425TIP3    H137766   0.605   6.563   5.284 -1.8698 -1.9298 -1.1503
 5425TIP3    H237767   0.698   6.502   5.181  1.4865  0.7067  0.1467
 5426TIP3   OH237768   3.797   3.964  14.989 -0.0198  0.3643  0.1208
 5426TIP3    H137769   3.783   3.870  15.002 -0.9632  0.6846  1.7505
 5426TIP3    H237770   3.743   3.987  14.914 -1.2688 -0.0823  0.8550
 5427TIP3   OH237771   5.752   3.008   5.331  0.4035 -0.2238 -0.6081
 5427TIP3    H137772   5.740   3.062   5.408 -0.3106 -0.5988 -0.4518
 5427TIP3    H237773   5.806   3.061   5.272 -0.7506  0.8911 -0.6946
 5428TIP3   OH237774   4.818   4.317   4.548  0.0594 -0.0939 -0.2448
 5428TIP3    H137775   4.765   4.302   4.470 -0.8429  0.7071  0.1788
 5428TIP3    H237776   4.787   4.402   4.581 -0.9754 -1.2894  2.0550
 5429TIP3   OH237777   5.082   2.412  12.025 -0.7190  0.0925  0.8280
 5429TIP3    H137778   5.133   2.347  12.074 -0.5939  1.1645  2.1893
 5429TIP3    H237779   5.138   2.490  12.022 -0.7263  0.0698 -1.0777
 5430TIP3   OH237780   2.045   1.845   5.112  0.1070 -0.0038 -0.5601
 5430TIP3    H137781   1.986   1.872   5.041  1.2037  2.6616 -0.5816
 5430TIP3    H237782   2.107   1.918   5.121 -0.7322  0.4665  4.0069
 5431TIP3   OH237783   5.127   4.739   4.550 -0.4563  0.5639 -0.8303
 5431TIP3    H137784   5.201   4.701   4.596 -0.1864  0.1262 -1.6056
 5431TIP3    H237785   5.166   4.801   4.488 -0.5203 -1.2734 -2.8299
 5432TIP3   OH237786   5.535   6.285   2.107  0.2267 -0.4139  0.6933
 5432TIP3    H137787   5.512   6.378   2.111  0.8928 -0.2234  0.2776
 5432TIP3    H237788   5.483   6.245   2.176 -0.6283  0.1485  0.3932
 5433TIP3   OH237789   2.726   4.948  13.829 -0.1573  0.1881 -0.0752
 5433TIP3    H137790   2.663   5.013  13.858 -2.6147 -1.5351 -1.1905
 5433TIP3    H237791   2.693   4.865  13.865  2.5491 -0.5954  0.8649
 5434TIP3   OH237792   3.070   5.612  14.971 -0.5481 -0.1159  0.6831
 5434TIP3    H137793   3.009   5.660  15.026 -0.2585  0.0421  0.8709
 5434TIP3    H237794   3.144   5.593  15.028  0.6918  1.8250 -0.1376
 5435TIP3   OH237795   2.325   5.064  16.078 -0.5273  0.0452 -0.6692
 5435TIP3    H137796   2.355   4.975  16.097 -0.7216 -0.0790 -0.9299
 5435TIP3    H237797   2.405   5.117  16.076 -0.5342  0.1681  1.0042
 5436TIP3   OH237798   5.531   2.406   0.208  0.4305  0.9893 -0.1671
 5436TIP3    H137799   5.605   2.368   0.159 -0.8886 -1.3640 -0.4772
 5436TIP3    H237800   5.458   2.403   0.146 -1.2987 -2.0506  1.7544
 5437TIP3   OH237801   5.164   0.883  14.483  0.1625  0.0311 -0.0966
 5437TIP3    H137802   5.254   0.916  14.479 -0.0306  0.4750 -0.9222
 5437TIP3    H237803   5.138   0.872  14.392 -1.6796  2.8395 -0.0137
 5438TIP3   OH237804   6.390   4.573  11.715 -0.4517  0.0541 -0.4412
 5438TIP3    H137805   6.329   4.646  11.726 -0.1128  0.5808 -1.8674
 5438TIP3    H237806   6.346   4.514  11.654 -1.2258 -1.5559  1.5679
 5439TIP3   OH237807   5.934   5.200   4.121 -0.3221 -0.7198  0.3095
 5439TIP3    H137808   5.895   5.246   4.047  1.7218  1.0121  0.2031
 5439TIP3    H237809   5.958   5.114   4.087 -0.8262 -0.5115 -0.5852
 5440TIP3   OH237810   3.928   1.794   4.488 -0.3944 -0.2549 -0.4300
 5440TIP3    H137811   4.021   1.808   4.472 -0.2334  0.9508  1.2090
 5440TIP3    H237812   3.900   1.872   4.538 -2.1171 -0.8893 -0.3176
 5441TIP3   OH237813   1.148   2.440   0.636  0.1210 -0.0841 -0.1610
 5441TIP3    H137814   1.180   2.360   0.594  0.8569 -0.7975  1.6589
 5441TIP3    H237815   1.077   2.410   0.693 -1.0762  0.9036 -1.0768
 5442TIP3   OH237816   6.290   0.744  12.042 -0.1791  0.3213  0.0851
 5442TIP3    H137817   6.222   0.677  12.049  1.2394 -1.1618  0.2957
 5442TIP3    H237818   6.364   0.709  12.093  0.8534  1.7212 -0.3826
 5443TIP3   OH237819   6.071   1.977   1.258 -0.3822  0.2642 -0.0638
 5443TIP3    H137820   6.036   1.903   1.208 -0.7871  0.0923  0.4632
 5443TIP3    H237821   6.138   2.015   1.201  1.2196 -1.6632  0.3983
 5444TIP3   OH237822   1.345   3.456  13.959  0.7684  0.3315  0.7067
 5444TIP3    H137823   1.423   3.434  14.010  2.1626  1.3277 -0.8902
 5444TIP3    H237824   1.346   3.396  13.885 -0.7781 -0.5553  1.3474
 5445TIP3   OH237825   0.312   2.497  12.219  0.1880  0.3689  0.2403
 5445TIP3    H137826   0.403   2.465  12.221  0.6219  1.3811 -1.3989
 5445TIP3    H237827   0.279   2.468  12.134 -1.1206 -0.1345  0.8923
 5446TIP3   OH237828   3.846   0.729  13.613  0.1118  0.0543  0.0353
 5446TIP3    H137829   3.780   0.798  13.617 -0.5618 -0.5127 -0.9105
 5446TIP3    H237830   3.916   0.766  13.559 -0.1939  0.0559 -0.3673
 5447TIP3   OH237831   5.250   3.579  11.393 -0.3063  0.5053 -0.0442
 5447TIP3    H137832   5.254   3.573  11.488 -1.2861  2.2856  0.1566
 5447TIP3    H237833   5.316   3.645  11.371  0.7976 -0.7848 -0.7553
 5448TIP3   OH237834   4.384   5.193  16.206  0.5357  0.0268 -0.3842
 5448TIP3    H137835   4.474   5.212  16.180  0.4099 -0.0324 -0.8906
 5448TIP3    H237836   4.335   5.194  16.123  0.3202 -1.3093 -0.2916
 5449TIP3   OH237837   1.307   6.214  10.904  0.1262  0.1499 -0.1017
 5449TIP3    H137838   1.388   6.164  10.897  0.0889  0.0745 -0.0007
 5449TIP3    H237839   1.242   6.160  10.858  0.1688  0.2907 -0.3299
 5450TIP3   OH237840   1.921   5.607  10.285  0.1701  0.2042 -0.5583
 5450TIP3    H137841   2.004   5.644  10.315  0.1519  0.4798 -0.8441
 5450TIP3    H237842   1.877   5.679  10.239 -0.4961  0.2368  0.1074
 5451TIP3   OH237843   4.768   1.680  11.443 -0.1420  0.0013  0.1114
 5451TIP3    H137844   4.700   1.677  11.375 -0.4683 -1.0150  0.4675
 5451TIP3    H237845   4.764   1.594  11.485 -0.7993  1.0098  2.2566
 5452TIP3   OH237846   4.102   4.464   0.939 -0.1944 -0.1023  0.3395
 5452TIP3    H137847   4.164   4.446   0.869  0.5647 -2.8399  1.5700
 5452TIP3    H237848   4.048   4.536   0.906  0.6878 -0.6819 -2.6577
 5453TIP3   OH237849   6.744   5.729  11.706  0.0487  0.5078 -0.8184
 5453TIP3    H137850   6.787   5.693  11.629  0.5102  0.0005 -0.3363
 5453TIP3    H237851   6.746   5.657  11.770  0.2338  1.1169 -0.1256
 5454TIP3   OH237852   6.739   4.692  14.081 -0.7655 -0.4883 -0.5205
 5454TIP3    H137853   6.663   4.651  14.041 -1.0609 -2.1517  1.5441
 5454TIP3    H237854   6.811   4.632  14.063 -0.9764 -1.4803  1.5749
 5455TIP3   OH237855   4.004   4.315   2.130  0.1074 -0.3257  0.1269
 5455TIP3    H137856   4.037   4.389   2.078  0.7290  0.5502  1.7005
 5455TIP3    H237857   3.915   4.301   2.097  0.6952 -0.2611 -1.6140
 5456TIP3   OH237858   2.830   1.822   5.913 -1.1986  0.0678 -0.2932
 5456TIP3    H137859   2.871   1.806   5.998 -0.3598  1.7557 -0.3480
 5456TIP3    H237860   2.877   1.765   5.852  0.9744  1.7771 -0.3056
 5457TIP3   OH237861   3.776   0.202  14.521 -0.0160 -0.4711  0.2607
 5457TIP3    H137862   3.770   0.176  14.429  0.8546 -2.4231  0.6891
 5457TIP3    H237863   3.830   0.133  14.561  1.6756  1.6157  1.7642
 5458TIP3   OH237864   3.501   2.048  12.017 -0.5773  0.0042  0.7494
 5458TIP3    H137865   3.419   2.085  11.985  0.4255 -0.1637 -2.4570
 5458TIP3    H237866   3.504   1.960  11.980  0.4776 -0.4531  1.8661
 5459TIP3   OH237867   0.425   4.035   3.673 -0.9561 -0.1164  0.2611
 5459TIP3    H137868   0.347   4.091   3.671 -0.4316  0.6245 -0.5058
 5459TIP3    H237869   0.442   4.015   3.581 -0.6815 -0.8951  0.4764
 5460TIP3   OH237870   4.034   5.334   5.618  0.3612  0.5105  0.0923
 5460TIP3    H137871   3.980   5.355   5.542  1.2926  1.9705 -0.2022
 5460TIP3    H237872   4.000   5.389   5.689  0.4819  0.2982  0.3207
 5461TIP3   OH237873   0.943   6.096   2.176  0.6126 -0.0983 -0.0530
 5461TIP3    H137874   0.917   6.094   2.084  3.1560  1.8638 -0.9152
 5461TIP3    H237875   0.862   6.118   2.223 -0.7315 -1.1200 -1.7565
 5462TIP3   OH237876   3.832   0.217   1.188  0.0618 -0.7976  0.2413
 5462TIP3    H137877   3.796   0.129   1.202 -2.1076  0.1424  0.9200
 5462TIP3    H237878   3.843   0.252   1.276  2.5382 -0.9174  0.0653
 5463TIP3   OH237879   2.381   5.613  16.910  0.8953  1.1059 -0.7703
 5463TIP3    H137880   2.313   5.616  16.977  2.1799  2.3254  0.5703
 5463TIP3    H237881   2.362   5.534  16.860  1.1255 -1.2049  2.4579
 5464TIP3   OH237882   5.684   5.407   0.315 -0.2176 -0.0147  0.0375
 5464TIP3    H137883   5.732   5.435   0.393 -0.0168  0.8133 -0.3673
 5464TIP3    H237884   5.749   5.358   0.264  0.4328  1.6245 -0.8021
 5465TIP3   OH237885   1.379   3.505  12.690  0.7601  0.3028 -0.4672
 5465TIP3    H137886   1.465   3.465  12.681 -0.0913 -1.4330 -1.3238
 5465TIP3    H237887   1.363   3.547  12.606  0.5508  0.1710 -0.4943
 5466TIP3   OH237888   5.110   2.817  11.659 -0.2904  0.0027  0.1657
 5466TIP3    H137889   5.026   2.862  11.650 -0.1051  0.1942 -0.7275
 5466TIP3    H237890   5.169   2.864  11.601  0.6847  0.4225  1.4681
 5467TIP3   OH237891   4.916   1.900   6.228 -0.1637  0.4517  0.3316
 5467TIP3    H137892   4.929   1.975   6.287 -2.5128 -0.0973  1.7183
 5467TIP3    H237893   4.826   1.910   6.196  0.2493 -0.5805 -1.2776
 5468TIP3   OH237894   4.972   2.121  17.211  0.2262 -0.3051  0.4942
 5468TIP3    H137895   4.990   2.090  17.300 -0.1968 -0.0180  0.6833
 5468TIP3    H237896   5.056   2.114  17.165  0.3432 -0.8727  0.7909
 5469TIP3   OH237897   4.376   2.538   4.444  0.2678 -0.3861 -0.2632
 5469TIP3    H137898   4.417   2.494   4.369 -0.0282 -0.6361 -0.2823
 5469TIP3    H237899   4.282   2.527   4.429  0.1575  1.0554 -0.7447
 5470TIP3   OH237900   6.126   2.137   2.673 -0.4567 -0.3222  0.1597
 5470TIP3    H137901   6.085   2.188   2.603  0.0091  2.0390  1.4902
 5470TIP3    H237902   6.053   2.102   2.724 -0.8869  1.5459  0.9130
 5471TIP3   OH237903   4.587   2.912   3.340 -0.6595  0.1537 -0.0809
 5471TIP3    H137904   4.510   2.962   3.367 -0.0083  0.6204  1.0213
 5471TIP3    H237905   4.659   2.976   3.344  0.4630 -1.0863  2.7247
 5472TIP3   OH237906   5.852   5.252   3.506 -0.4716 -0.2464  0.1921
 5472TIP3    H137907   5.795   5.184   3.541 -0.6544 -0.2115 -0.0371
 5472TIP3    H237908   5.867   5.311   3.580  0.8859 -1.3118  0.8185
 5473TIP3   OH237909   4.237   5.835  17.124 -0.4871 -0.3590  0.0550
 5473TIP3    H137910   4.159   5.785  17.101 -0.1748 -2.2676  2.6727
 5473TIP3    H237911   4.218   5.924  17.093 -2.1424 -1.4899 -2.5378
 5474TIP3   OH237912   4.553   6.514   0.738  0.6565  0.6090 -0.6096
 5474TIP3    H137913   4.471   6.556   0.764  0.4012 -0.4120  0.2960
 5474TIP3    H237914   4.545   6.501   0.643 -0.0530  0.8861 -0.5909
 5475TIP3   OH237915   3.730   5.960  15.030 -0.6395  0.2206 -0.5766
 5475TIP3    H137916   3.779   5.889  15.072 -1.1381  0.6376  0.7503
 5475TIP3    H237917   3.722   5.932  14.939  0.0763 -0.9317 -0.3149
 5476TIP3   OH237918   0.707   5.664  14.498 -0.4084  0.8783  0.4617
 5476TIP3    H137919   0.642   5.602  14.530  1.0332 -1.1364 -0.3584
 5476TIP3    H237920   0.674   5.691  14.412 -0.2384 -0.0504  0.0968
 5477TIP3   OH237921   3.370   5.675   3.430  0.0654 -0.4825 -0.2354
 5477TIP3    H137922   3.386   5.769   3.433 -0.6788 -0.3045 -1.2843
 5477TIP3    H237923   3.456   5.637   3.411  0.7899 -0.2114  2.1835
 5478TIP3   OH237924   6.588   3.287  15.963 -0.0509 -0.1034 -0.4570
 5478TIP3    H137925   6.607   3.370  15.919 -2.1280  0.3497 -0.5861
 5478TIP3    H237926   6.585   3.310  16.056  1.8664 -0.5722 -0.2413
 5479TIP3   OH237927   6.752   5.132  11.605  0.3537 -0.0149  0.2787
 5479TIP3    H137928   6.730   5.040  11.589 -1.4537  0.5468 -0.7455
 5479TIP3    H237929   6.794   5.161  11.524  1.0459  0.0354  0.6530
 5480TIP3   OH237930   5.353   3.812  15.573 -0.3573 -0.2871  0.1518
 5480TIP3    H137931   5.335   3.906  15.579 -0.2535 -0.2341 -0.3686
 5480TIP3    H237932   5.409   3.803  15.496  1.4564 -0.4917  1.4154
 5481TIP3   OH237933   2.469   2.226  12.763 -0.2909  0.2081  0.2848
 5481TIP3    H137934   2.467   2.311  12.719 -0.7432 -0.0113 -0.1341
 5481TIP3    H237935   2.400   2.176  12.720  0.7123 -0.7536 -0.2402
 5482TIP3   OH237936   1.538   2.746   0.642 -0.6357 -0.1126  0.6437
 5482TIP3    H137937   1.479   2.685   0.688 -1.5317  0.3809  0.1875
 5482TIP3    H237938   1.543   2.712   0.553 -0.9608  0.3472  0.4452
 5483TIP3   OH237939   2.538   6.042  16.668 -0.7755  0.2647  0.5871
 5483TIP3    H137940   2.477   5.973  16.694  1.5221 -0.8052  3.5140
 5483TIP3    H237941   2.500   6.122  16.704 -2.6986  0.4364 -1.5819
 5484TIP3   OH237942   1.350   2.417  13.522  0.4156 -0.1390 -0.0677
 5484TIP3    H137943   1.330   2.380  13.436  0.2850  0.0696 -0.1292
 5484TIP3    H237944   1.444   2.406  13.532  0.2984 -1.0246  0.1677
 5485TIP3   OH237945   3.352   2.307   4.677  0.5087  0.2180 -0.1642
 5485TIP3    H137946   3.301   2.262   4.744  1.1463 -1.4859 -0.7746
 5485TIP3    H237947   3.289   2.330   4.609  0.4908 -1.9671 -0.9624
 5486TIP3   OH237948   5.012   4.386   1.585  0.3883 -0.1419  0.1529
 5486TIP3    H137949   4.962   4.417   1.661  1.9209  1.5774  0.5372
 5486TIP3    H237950   5.030   4.466   1.534  0.5397 -1.0826 -1.3278
 5487TIP3   OH237951   5.474   6.121  15.040 -0.0650 -0.2301 -0.0625
 5487TIP3    H137952   5.558   6.132  14.997  0.5194 -2.7347  0.3351
 5487TIP3    H237953   5.471   6.029  15.066 -2.1981  0.1871  1.4672
 5488TIP3   OH237954   6.627   1.118  16.018  0.5965  0.2526 -0.5976
 5488TIP3    H137955   6.667   1.205  16.019  1.6268 -0.1286  2.9748
 5488TIP3    H237956   6.534   1.134  16.003  0.7434  2.0058  0.1881
 5489TIP3   OH237957   6.807   4.308  16.591  0.5004 -0.1538  0.1667
 5489TIP3    H137958   6.812   4.240  16.659  3.7542 -0.6532 -0.4167
 5489TIP3    H237959   6.818   4.390  16.639 -0.8666 -0.1912  0.5867
 5490TIP3   OH237960   0.130   3.942  14.879 -0.0005 -0.1937 -0.5134
 5490TIP3    H137961   0.172   3.894  14.808  1.3014 -0.4727  0.4222
 5490TIP3    H237962   0.174   3.913  14.958 -1.7793 -0.2921  0.5041
 5491TIP3   OH237963   5.359   6.644  11.455 -0.1687 -0.0235 -0.5188
 5491TIP3    H137964   5.434   6.657  11.397 -0.0946  0.0753 -0.4012
 5491TIP3    H237965   5.334   6.553  11.442  0.4868 -0.2929  0.0467
 5492TIP3   OH237966   2.980   2.683  14.769 -0.2087 -0.0391 -0.1622
 5492TIP3    H137967   2.939   2.677  14.855  0.7072 -1.6214  0.2099
 5492TIP3    H237968   3.055   2.741  14.781 -0.0002 -0.3703  0.1477
 5493TIP3   OH237969   3.517   3.216   2.109 -0.4736 -0.2506  0.1297
 5493TIP3    H137970   3.440   3.168   2.077 -1.5797  1.8871 -0.6260
 5493TIP3    H237971   3.481   3.295   2.149  1.3365  1.5158 -1.4996
 5494TIP3   OH237972   3.526   0.021   1.631 -0.0161 -0.6478 -0.4361
 5494TIP3    H137973   3.580  -0.040   1.682  1.1532 -1.5105 -2.5898
 5494TIP3    H237974   3.582   0.098   1.619 -1.2346  0.6604  1.6803
 5495TIP3   OH237975   1.817   1.639   1.172 -0.2747  0.9090 -0.3073
 5495TIP3    H137976   1.853   1.712   1.222  0.7912  0.4188 -0.3301
 5495TIP3    H237977   1.859   1.646   1.086  1.6413 -1.0199  0.3759
 5496TIP3   OH237978   0.925   2.777  11.797 -0.3445 -0.1503  0.7604
 5496TIP3    H137979   0.838   2.739  11.783 -0.9435  1.5623 -0.6314
 5496TIP3    H237980   0.977   2.744  11.724 -0.2227 -0.0783  0.8160
 5497TIP3   OH237981   4.520   2.129  15.153 -0.0273  0.1035 -0.1051
 5497TIP3    H137982   4.552   2.067  15.217  2.6129  1.0952 -0.3496
 5497TIP3    H237983   4.539   2.089  15.068  1.1679  0.9601 -0.2609
 5498TIP3   OH237984   6.449   1.467  13.096 -0.3893 -0.0289  0.0670
 5498TIP3    H137985   6.526   1.472  13.040 -0.1453  1.2248  0.4889
 5498TIP3    H237986   6.377   1.448  13.036  0.0082  0.3769 -0.5399
 5499TIP3   OH237987   6.167   2.340   0.790 -0.2312 -0.0935 -0.1978
 5499TIP3    H137988   6.247   2.289   0.800 -0.4153 -0.8360 -2.2184
 5499TIP3    H237989   6.096   2.279   0.810 -0.3538  0.1360  0.0781
 5500TIP3   OH237990   1.955   5.481   0.021  0.3938  0.2163  0.0301
 5500TIP3    H137991   1.939   5.415  -0.046  0.4172 -1.6478  1.7831
 5500TIP3    H237992   1.867   5.507   0.050  0.3572  1.6448 -1.2292
 5501TIP3   OH237993   0.313   1.932   1.805 -0.1474  0.4362 -0.5822
 5501TIP3    H137994   0.358   1.895   1.729 -1.9623  0.9110 -1.9414
 5501TIP3    H237995   0.337   1.873   1.877  1.8083  0.1178 -1.4182
 5502TIP3   OH237996   5.801   5.837   4.029  0.4709 -0.0312 -0.5822
 5502TIP3    H137997   5.865   5.769   4.008  0.2123  0.0396 -1.6798
 5502TIP3    H237998   5.720   5.789   4.048  0.4314 -0.0544 -0.8081
 5503TIP3   OH237999   1.758   4.114   5.512  1.3054  0.9071  0.3594
 5503TIP3    H138000   1.714   4.165   5.445  0.2689  0.7817  0.9159
 5503TIP3    H238001   1.845   4.097   5.477  0.5928  0.3250 -1.2102
 5504TIP3   OH238002   6.628   3.259  11.541  0.2143  0.2296  0.0074
 5504TIP3    H138003   6.688   3.186  11.558  0.7322  0.4822 -0.6582
 5504TIP3    H238004   6.556   3.219  11.491 -1.1715 -0.4529  2.3940
 5505TIP3   OH238005   4.219   3.699   2.481 -0.0449  0.1648  0.6364
 5505TIP3    H138006   4.278   3.766   2.445 -0.0159  0.5927  1.4442
 5505TIP3    H238007   4.270   3.618   2.478  1.1035  0.7581  2.4960
 5506TIP3   OH238008   3.748   6.130   3.394 -0.7471  0.0019  0.3487
 5506TIP3    H138009   3.774   6.134   3.302 -0.3349 -0.4356  0.4415
 5506TIP3    H238010   3.677   6.066   3.397 -1.8151  1.1285  0.1101
 5507TIP3   OH238011   5.497   0.134   0.000  0.4440  0.0622 -0.1785
 5507TIP3    H138012   5.566   0.191   0.034  1.1761 -0.4113 -0.8377
 5507TIP3    H238013   5.481   0.166  -0.088  0.7395 -0.6411 -0.4914
 5508TIP3   OH238014   3.621   1.671   5.827  0.1534  0.4389  0.0930
 5508TIP3    H138015   3.580   1.597   5.782  0.9976  0.8598 -1.4468
 5508TIP3    H238016   3.562   1.690   5.900 -1.6881  0.1792 -1.2502
 5509TIP3   OH238017   2.589   6.728   2.763  0.4144  0.1145 -0.0490
 5509TIP3    H138018   2.544   6.811   2.753  2.0452  0.7935 -2.8686
 5509TIP3    H238019   2.552   6.689   2.842 -1.2964  2.9141  0.6344
 5510TIP3   OH238020   6.420   4.471   6.454  0.6481 -0.0505  0.0075
 5510TIP3    H138021   6.494   4.433   6.408  0.1534  0.2857 -1.1022
 5510TIP3    H238022   6.424   4.565   6.432 -1.2054 -0.3096 -1.7146
 5511TIP3   OH238023   3.480   5.030  14.745 -0.0225  0.0110 -1.0590
 5511TIP3    H138024   3.418   5.094  14.710 -0.7096 -0.8365 -1.4513
 5511TIP3    H238025   3.500   4.972  14.671 -0.4884 -1.0357 -0.3954
 5512TIP3   OH238026   3.798   0.852  15.892 -0.5330 -0.3366 -0.3335
 5512TIP3    H138027   3.711   0.887  15.873 -0.3726 -0.3399 -1.1285
 5512TIP3    H238028   3.839   0.918  15.948  0.1137  1.2751 -2.5821
 5513TIP3   OH238029   6.163   3.659  12.444  0.3261 -0.4219 -0.1105
 5513TIP3    H138030   6.116   3.690  12.366  1.1423  1.2882  0.0216
 5513TIP3    H238031   6.235   3.607  12.410 -0.8124 -1.8962 -0.3652
 5514TIP3   OH238032   0.133   5.161  11.936  0.0919 -0.7109 -0.4848
 5514TIP3    H138033   0.163   5.100  12.003  0.1850 -1.1586 -0.9325
 5514TIP3    H238034   0.066   5.214  11.979  0.0629 -1.0830 -0.0776
 5515TIP3   OH238035   1.696   1.551   6.116 -0.3125 -0.2912 -0.3032
 5515TIP3    H138036   1.736   1.498   6.185 -1.5996 -0.6939  0.1548
 5515TIP3    H238037   1.681   1.489   6.044  1.4372  0.2142 -1.1692
 5516TIP3   OH238038   4.781   2.347   0.640  0.3962 -0.5292 -0.4731
 5516TIP3    H138039   4.860   2.370   0.689 -0.2960  1.1679 -0.0686
 5516TIP3    H238040   4.785   2.252   0.632  2.6190 -0.4673 -0.7379
 5517TIP3   OH238041   2.972   3.962  14.927  0.6043  0.1182 -0.5067
 5517TIP3    H138042   3.055   3.965  14.879  0.4205 -2.3041 -1.0990
 5517TIP3    H238043   2.909   4.006  14.869  1.3326  1.5976 -0.2359
 5518TIP3   OH238044   0.591   4.228   1.763  0.2934  0.3518 -0.0985
 5518TIP3    H138045   0.499   4.214   1.785 -0.2093  1.2517 -1.4226
 5518TIP3    H238046   0.605   4.176   1.684 -0.0573  2.6658 -1.8153
 5519TIP3   OH238047   6.262   1.746   3.685 -0.2338  0.0506 -0.5895
 5519TIP3    H138048   6.312   1.669   3.657  0.0551  0.0314 -0.0428
 5519TIP3    H238049   6.227   1.720   3.771  0.0718  0.6170 -0.2892
 5520TIP3   OH238050   4.326   2.730   4.634 -0.1429 -0.1795  0.0384
 5520TIP3    H138051   4.405   2.784   4.636 -1.2864  1.5651  0.3857
 5520TIP3    H238052   4.346   2.660   4.572  2.3740 -0.9676  1.5942
 5521TIP3   OH238053   6.650   3.530  14.139  1.1517  0.4995  0.3472
 5521TIP3    H138054   6.729   3.562  14.181  0.9555  1.0096  0.3362
 5521TIP3    H238055   6.630   3.447  14.183  2.0835  0.0132 -0.1249
 5522TIP3   OH238056   2.396   3.324   0.924  0.2236 -0.0264 -0.3265
 5522TIP3    H138057   2.472   3.305   0.868  0.4791 -2.7297  0.7982
 5522TIP3    H238058   2.430   3.385   0.990  2.1506 -2.7793  1.4403
 5523TIP3   OH238059   2.429   0.458  14.989 -0.0125 -0.2487  0.1132
 5523TIP3    H138060   2.416   0.521  15.060 -1.6734 -0.1504 -0.2453
 5523TIP3    H238061   2.486   0.504  14.927 -2.5950  1.6863 -0.9952
 5524TIP3   OH238062   5.174   5.415   0.478  0.4613  0.1646  0.1587
 5524TIP3    H138063   5.233   5.475   0.433  0.0130  0.1850 -0.4046
 5524TIP3    H238064   5.224   5.333   0.485  0.1827 -0.1429 -1.2498
 5525TIP3   OH238065   4.077   4.452  17.039  0.4202 -0.4354  0.6814
 5525TIP3    H138066   4.171   4.442  17.056  0.7557  0.4800 -0.5318
 5525TIP3    H238067   4.042   4.363  17.047  1.6163 -1.0079 -0.1261
 5526TIP3   OH238068   2.510   1.084   1.043  0.6070  0.0269 -0.2473
 5526TIP3    H138069   2.461   1.147   1.095 -1.2387  0.9201 -2.8188
 5526TIP3    H238070   2.589   1.131   1.016 -0.0717  0.7996 -0.9707
 5527TIP3   OH238071   4.539   5.098  16.490  0.1482  0.1474 -0.3334
 5527TIP3    H138072   4.447   5.088  16.465  0.6620 -0.3502 -2.1894
 5527TIP3    H238073   4.548   5.045  16.570 -1.4417  1.3077  0.6829
 5528TIP3   OH238074   6.453   1.111   5.828  0.6543 -0.7833 -0.2783
 5528TIP3    H138075   6.428   1.194   5.870  2.2747 -0.0137 -0.7535
 5528TIP3    H238076   6.408   1.044   5.879  1.3762  0.2095  1.7620
 5529TIP3   OH238077   5.465   4.093  10.838 -0.3782  0.3506 -0.2596
 5529TIP3    H138078   5.502   4.157  10.777 -0.3653 -0.6676 -1.3586
 5529TIP3    H238079   5.392   4.139  10.879  1.2777  1.9690  1.0262
 5530TIP3   OH238080   3.726   3.087   1.956  0.7025 -0.2953  0.3013
 5530TIP3    H138081   3.680   3.004   1.942  0.5035 -0.5592  2.2662
 5530TIP3    H238082   3.686   3.123   2.036  0.7635  1.7226 -0.5267
 5531TIP3   OH238083   6.734   2.373   1.381 -0.2213 -0.2795 -0.0606
 5531TIP3    H138084   6.820   2.374   1.340 -0.2492  0.1752 -0.1129
 5531TIP3    H238085   6.743   2.313   1.455  0.5955  0.9376  0.8823
 5532TIP3   OH238086   1.655   2.295   3.268  0.4370  0.0586 -0.3226
 5532TIP3    H138087   1.649   2.207   3.231 -0.1602  0.4247 -1.1088
 5532TIP3    H238088   1.658   2.281   3.363  0.3138 -0.8026 -0.4408
 5533TIP3   OH238089   1.362   4.736  17.128 -0.7013  0.8605  0.3016
 5533TIP3    H138090   1.276   4.777  17.134 -0.3831  1.5265  0.4474
 5533TIP3    H238091   1.392   4.731  17.219 -0.7429  0.2753  0.2867
 5534TIP3   OH238092   5.241   3.408  14.298 -0.0964 -0.2584  0.4303
 5534TIP3    H138093   5.261   3.397  14.205  0.2525 -2.0699  0.6803
 5534TIP3    H238094   5.285   3.489  14.323 -1.4779  1.1269 -1.3017
 5535TIP3   OH238095   2.159   6.717   0.818 -0.3118 -0.3095 -0.3045
 5535TIP3    H138096   2.101   6.706   0.894  1.6372 -0.5497  1.2091
 5535TIP3    H238097   2.174   6.812   0.813 -0.7504 -0.2541 -0.6536
 5536TIP3   OH238098   4.164   3.368  14.169  0.1367 -0.8662  0.4625
 5536TIP3    H138099   4.155   3.275  14.148  0.0344 -0.8536  0.4507
 5536TIP3    H238100   4.116   3.379  14.251 -1.0302 -0.5502 -0.2497
 5537TIP3   OH238101   0.777   4.232   2.623 -0.4695 -0.1762  0.0966
 5537TIP3    H138102   0.839   4.275   2.682 -0.7393 -0.5672  0.6780
 5537TIP3    H238103   0.832   4.176   2.567 -0.3423 -1.0821  1.0897
 5538TIP3   OH238104   3.028   2.861   4.792 -0.2431  0.3989  0.6183
 5538TIP3    H138105   3.058   2.927   4.855  1.3034 -0.4033  0.7510
 5538TIP3    H238106   3.088   2.788   4.803 -0.5017 -0.1224 -1.1660
 5539TIP3   OH238107   4.579   0.318  13.644  0.1500 -0.7508 -0.3223
 5539TIP3    H138108   4.598   0.360  13.728 -0.9060 -0.4029 -0.2431
 5539TIP3    H238109   4.520   0.379  13.599 -1.3128 -2.0462 -0.2626
 5540TIP3   OH238110   1.319   0.244  14.813 -0.3685 -0.7411 -0.1612
 5540TIP3    H138111   1.239   0.195  14.829  0.0866 -0.9892  1.5062
 5540TIP3    H238112   1.368   0.189  14.750 -0.4323 -1.8159  0.6932
 5541TIP3   OH238113   3.473   2.743   3.943  0.1385 -0.4719  0.7566
 5541TIP3    H138114   3.511   2.662   3.910 -0.7063 -0.7954  0.5627
 5541TIP3    H238115   3.445   2.722   4.032 -0.9883 -0.6965  0.3636
 5542TIP3   OH238116   1.678   4.791  15.334 -0.4653 -0.8576 -0.5145
 5542TIP3    H138117   1.710   4.854  15.399  4.0337 -1.1076 -2.1175
 5542TIP3    H238118   1.644   4.846  15.263  0.0900 -0.3670 -0.4098
 5543TIP3   OH238119   3.189   4.089   0.643 -0.3212 -0.1830 -0.0130
 5543TIP3    H138120   3.200   3.994   0.646  0.1055 -0.1200  0.7370
 5543TIP3    H238121   3.240   4.117   0.567 -2.3688 -0.7703 -1.6912
 5544TIP3   OH238122   1.843   4.422  11.669 -0.2262 -0.2333  0.1009
 5544TIP3    H138123   1.830   4.328  11.681  1.5415 -0.5578 -0.1987
 5544TIP3    H238124   1.928   4.429  11.625  1.2868  1.5989  2.9926
 5545TIP3   OH238125   0.949   5.660   1.779  0.3492 -0.0406  0.3838
 5545TIP3    H138126   0.972   5.588   1.837  0.4564 -0.4452 -0.1533
 5545TIP3    H238127   1.016   5.727   1.797 -1.4693  1.2437  3.1090
 5546TIP3   OH238128   5.402   2.997   3.314  0.1842  0.4668  0.0909
 5546TIP3    H138129   5.444   2.917   3.346 -0.5413  0.8075  2.0596
 5546TIP3    H238130   5.355   2.970   3.235  0.8886 -0.7701  0.0673
 5547TIP3   OH238131   3.914   2.980  15.903  0.0632 -0.2896  0.0953
 5547TIP3    H138132   3.987   3.033  15.935  0.4581 -1.0748  0.5532
 5547TIP3    H238133   3.893   3.016  15.818  1.2850 -0.3065 -0.2381
 5548TIP3   OH238134   0.989   5.356   0.633  0.4596  0.2102  0.2616
 5548TIP3    H138135   0.994   5.260   0.630 -0.0387  0.1473  1.1958
 5548TIP3    H238136   1.014   5.383   0.545  0.2795 -0.7967 -0.1179
 5549TIP3   OH238137   1.932   1.498   1.402  0.4610 -0.4673  0.3624
 5549TIP3    H138138   1.842   1.468   1.396  0.5987 -0.7079 -0.7026
 5549TIP3    H238139   1.926   1.594   1.400  0.3098 -0.4793 -1.5646
 5550TIP3   OH238140   0.801   2.761   5.275 -0.4070 -0.1933 -0.1392
 5550TIP3    H138141   0.804   2.857   5.269  2.5071 -0.1727  0.1870
 5550TIP3    H238142   0.810   2.743   5.369 -3.4846 -0.8825  0.1537
 5551TIP3   OH238143   2.427   2.399   1.871  0.2021 -0.4379  0.0021
 5551TIP3    H138144   2.395   2.473   1.923 -1.7667 -1.2033 -0.0398
 5551TIP3    H238145   2.423   2.430   1.780 -2.2058 -1.0836 -0.1634
 5552TIP3   OH238146   6.774   4.246  15.689 -0.4096  0.0210  0.5730
 5552TIP3    H138147   6.759   4.336  15.660 -0.0286 -0.5097 -1.4504
 5552TIP3    H238148   6.848   4.251  15.748 -1.8808  1.3101  2.4171
 5553TIP3   OH238149   0.347   2.978  11.351 -0.4557 -0.1574  1.0262
 5553TIP3    H138150   0.435   3.016  11.359 -0.1977 -0.8584  1.6649
 5553TIP3    H238151   0.318   3.003  11.263 -0.2097  1.3033  1.3334
 5554TIP3   OH238152   3.355   0.313   0.511 -0.4395  0.0747  0.0029
 5554TIP3    H138153   3.410   0.306   0.433 -0.4343 -0.0348  0.0158
 5554TIP3    H238154   3.348   0.407   0.527 -2.2555  0.2296 -1.4070
 5555TIP3   OH238155   2.713   2.258   6.648 -0.4873  0.3523 -0.0289
 5555TIP3    H138156   2.706   2.346   6.612 -0.7110  0.2405 -0.2612
 5555TIP3    H238157   2.631   2.245   6.697 -0.0677  0.6093  0.7693
 5556TIP3   OH238158   5.661   0.681   0.005  0.1636  0.3809 -0.7128
 5556TIP3    H138159   5.695   0.720   0.086  1.4796 -2.1496  0.0519
 5556TIP3    H238160   5.594   0.620   0.034 -1.2652  1.3652 -1.8158
 5557TIP3   OH238161   0.809   4.633  15.536 -0.3272 -0.2162  0.1820
 5557TIP3    H138162   0.727   4.633  15.585 -0.8393 -2.9328 -0.5033
 5557TIP3    H238163   0.848   4.548  15.556  3.3714  1.6681  2.0501
 5558TIP3   OH238164   4.357   4.259   4.699 -0.1408  0.3089  0.2014
 5558TIP3    H138165   4.441   4.268   4.743  2.3860  1.1304 -4.1864
 5558TIP3    H238166   4.362   4.175   4.654 -0.8612  1.1066 -1.4677
 5559TIP3   OH238167   4.677   3.503   5.202  0.1800 -0.5008 -0.6860
 5559TIP3    H138168   4.678   3.407   5.201 -0.2796 -0.5333  0.3901
 5559TIP3    H238169   4.753   3.529   5.150  2.0316 -1.4846  1.3853
 5560TIP3   OH238170   5.865   0.061   1.230 -0.4754  0.3794 -0.3767
 5560TIP3    H138171   5.956   0.090   1.228 -0.1273 -0.7300 -1.4946
 5560TIP3    H238172   5.869  -0.030   1.262 -1.2106  0.4035 -0.1889
 5561TIP3   OH238173   4.617   4.733   5.630 -0.0040  0.3255  0.4849
 5561TIP3    H138174   4.656   4.657   5.672  0.5836  0.5082  0.2907
 5561TIP3    H238175   4.595   4.704   5.542 -0.0143  0.3092  0.4932
 5562TIP3   OH238176   2.676   2.092  14.770  0.0918  0.0423  0.0253
 5562TIP3    H138177   2.651   2.116  14.859 -0.5519  0.0658 -0.1537
 5562TIP3    H238178   2.593   2.068  14.728  0.4793 -0.6933 -0.3471
 5563TIP3   OH238179   1.754   2.988  16.953 -0.3173 -0.5033 -0.0524
 5563TIP3    H138180   1.791   2.909  16.914 -0.1373  0.1988 -1.3904
 5563TIP3    H238181   1.667   2.962  16.983  0.3324 -1.5804  0.9632
 5564TIP3   OH238182   6.310   3.862  16.611 -0.1037 -0.3839 -0.2232
 5564TIP3    H138183   6.302   3.928  16.542  1.4776  0.4991  0.3756
 5564TIP3    H238184   6.220   3.849  16.642 -0.4521  1.7010 -0.1921
 5565TIP3   OH238185   0.969   1.495   3.791  0.1380  0.7225 -0.1040
 5565TIP3    H138186   1.060   1.477   3.766 -0.3551 -0.4861 -1.1253
 5565TIP3    H238187   0.977   1.549   3.870  1.7372  1.1000 -0.4686
 5566TIP3   OH238188   2.481   2.814  12.938 -0.6742 -0.1553 -0.4969
 5566TIP3    H138189   2.543   2.801  13.010 -2.4954  0.4684  1.2559
 5566TIP3    H238190   2.423   2.739  12.942 -0.4126 -0.4568 -1.7908
 5567TIP3   OH238191   6.097   1.695  15.413 -0.2214 -0.3129  0.9451
 5567TIP3    H138192   6.120   1.606  15.387 -0.1586  0.0159 -0.2150
 5567TIP3    H238193   6.135   1.707  15.500  0.1376 -1.2693  0.9218
 5568TIP3   OH238194   4.084   3.559   2.751 -0.1301  0.4680  0.2003
 5568TIP3    H138195   4.153   3.572   2.686  0.4307 -0.5404  0.5594
 5568TIP3    H238196   4.028   3.492   2.713  0.7338 -0.8299  1.1123
 5569TIP3   OH238197   5.404   0.981  15.416  0.3588  0.6750 -0.3794
 5569TIP3    H138198   5.360   1.063  15.436 -0.8649  0.0784 -0.4959
 5569TIP3    H238199   5.360   0.949  15.337  0.9644  0.0183 -0.4584
 5570TIP3   OH238200   0.166   0.127  15.442  0.0336  0.1042  0.4744
 5570TIP3    H138201   0.174   0.216  15.476 -0.4731  0.6711 -0.8194
 5570TIP3    H238202   0.236   0.121  15.376 -0.0921 -0.3721  0.3800
 5571TIP3   OH238203   5.163   5.564   0.140 -0.3501  0.3718  0.3037
 5571TIP3    H138204   5.183   5.651   0.174 -1.7807 -0.4391  3.6243
 5571TIP3    H238205   5.240   5.511   0.160  0.1453  0.6071 -0.8785
 5572TIP3   OH238206   0.148   1.999  15.617  0.0186  0.1221  0.7857
 5572TIP3    H138207   0.091   1.951  15.557  0.4922  0.1205  0.3304
 5572TIP3    H238208   0.234   1.959  15.605  0.6045  1.5749 -0.1870
 5573TIP3   OH238209   3.471   2.029   3.985 -0.6236 -0.0308 -0.1089
 5573TIP3    H138210   3.567   2.031   3.993 -0.5619 -1.9600  0.0879
 5573TIP3    H238211   3.450   1.936   3.980 -2.5988  0.3240  0.9826
 5574TIP3   OH238212   3.372   5.393   0.908 -0.3945  0.0307 -0.0572
 5574TIP3    H138213   3.297   5.450   0.925  0.4759  1.5538 -1.0241
 5574TIP3    H238214   3.335   5.305   0.903 -2.2565  0.8210 -1.2837
 5575TIP3   OH238215   5.145   3.049   5.685  0.0171  0.1294  0.2708
 5575TIP3    H138216   5.137   3.058   5.780 -1.6400 -0.1239  0.1904
 5575TIP3    H238217   5.191   3.129   5.657 -0.5714  0.8028  1.1620
 5576TIP3   OH238218   0.834   2.845  15.150  0.0100  0.0593  0.2201
 5576TIP3    H138219   0.764   2.901  15.116  0.5270 -0.2929 -1.5366
 5576TIP3    H238220   0.790   2.785  15.210 -0.8189  1.2500  0.8463
 5577TIP3   OH238221   1.568   6.542   2.793  0.4902  0.1375  0.8858
 5577TIP3    H138222   1.564   6.510   2.703  0.4424  0.8836  0.6157
 5577TIP3    H238223   1.483   6.518   2.830  1.7963 -3.4688  1.9188
 5578TIP3   OH238224   2.741   6.310   3.121  0.4180  0.8271 -0.4565
 5578TIP3    H138225   2.705   6.295   3.208  0.4815  0.7158 -0.4483
 5578TIP3    H238226   2.797   6.234   3.105  1.1115  1.2753 -0.2234
 5579TIP3   OH238227   0.237   5.065   5.513 -0.8367 -0.1815  0.4304
 5579TIP3    H138228   0.188   5.018   5.446 -2.6987  0.9482  0.9413
 5579TIP3    H238229   0.314   5.098   5.468 -2.1447  0.7342 -1.2249
 5580TIP3   OH238230   2.814   4.562   1.219  0.3946 -0.0403  0.5365
 5580TIP3    H138231   2.871   4.546   1.144  0.9737 -1.1491  1.1787
 5580TIP3    H238232   2.726   4.541   1.187  0.5673  0.0095  0.0241
 5581TIP3   OH238233   0.035   0.326   0.015 -0.6669 -0.5411 -0.1854
 5581TIP3    H138234   0.044   0.395   0.081  2.0698  0.0713 -1.0471
 5581TIP3    H238235  -0.054   0.335  -0.018 -0.7307  1.9249  0.4703
 5582TIP3   OH238236   2.274   6.532   3.128  0.1682  0.1219 -0.0802
 5582TIP3    H138237   2.309   6.602   3.183 -2.0621 -1.4469  3.7048
 5582TIP3    H238238   2.199   6.571   3.084  1.0381  0.9810 -0.8473
 5583TIP3   OH238239   6.164   5.214   4.493  0.1004  0.4578  0.1547
 5583TIP3    H138240   6.178   5.133   4.541 -1.0327 -0.7352 -1.4185
 5583TIP3    H238241   6.070   5.230   4.499 -0.0970  0.2349 -1.6200
 5584TIP3   OH238242   1.334   0.573   3.061 -0.2639 -0.3827 -0.2372
 5584TIP3    H138243   1.276   0.589   3.135 -0.0465  1.1330 -0.3462
 5584TIP3    H238244   1.422   0.579   3.099 -0.1513 -2.1816 -0.1605
 5585TIP3   OH238245   5.863   2.379   5.395 -0.0247  0.0133 -0.1749
 5585TIP3    H138246   5.851   2.416   5.482 -2.3516  1.0231 -0.8454
 5585TIP3    H238247   5.924   2.438   5.351  3.1810 -1.8517  1.4366
 5586TIP3   OH238248   6.628   2.322  13.109 -0.4929 -0.5570  0.0890
 5586TIP3    H138249   6.705   2.298  13.057  0.4730  0.5584  0.9275
 5586TIP3    H238250   6.555   2.278  13.066  0.3975 -0.4693 -1.6222
 5587TIP3   OH238251   5.279   6.757   4.029  0.3124 -0.1985  0.3520
 5587TIP3    H138252   5.336   6.788   3.959 -0.8778 -0.8780 -0.9533
 5587TIP3    H238253   5.267   6.833   4.086 -0.6123  1.0569 -1.4609
 5588TIP3   OH238254   0.387   6.441  11.525  0.2204  0.1066  0.4528
 5588TIP3    H138255   0.413   6.358  11.485 -0.5805 -0.9857  2.0677
 5588TIP3    H238256   0.462   6.498  11.514  1.7593 -1.6288  1.3912
 5589TIP3   OH238257   1.464   2.108   3.505  0.6505 -0.2101  0.1580
 5589TIP3    H138258   1.552   2.136   3.529  0.6405 -0.2971  0.2992
 5589TIP3    H238259   1.406   2.167   3.553  0.6207 -1.0141  1.1443
 5590TIP3   OH238260   2.567   1.398  12.587 -0.4252 -0.2550 -0.0223
 5590TIP3    H138261   2.597   1.370  12.500 -1.0281 -0.6696 -0.1052
 5590TIP3    H238262   2.584   1.492  12.589 -1.0809 -0.1008 -0.8809
 5591TIP3   OH238263   5.474   0.506   0.082 -0.4341  0.2791  0.3063
 5591TIP3    H138264   5.480   0.425   0.133 -3.0234  0.2873  0.7750
 5591TIP3    H238265   5.454   0.477  -0.007  2.3549  0.3452 -0.4542
 5592TIP3   OH238266   6.767   1.456  14.902  0.1405 -0.4645  0.3007
 5592TIP3    H138267   6.710   1.487  14.972 -0.3164  1.3607 -0.8108
 5592TIP3    H238268   6.746   1.363  14.893 -1.5385 -0.1763  0.9433
 5593TIP3   OH238269   4.680   3.958  12.593 -0.1548 -0.0970  0.1738
 5593TIP3    H138270   4.596   3.979  12.551 -1.2576 -0.3176  2.1434
 5593TIP3    H238271   4.712   4.042  12.625  1.6227  0.3967 -2.5376
 5594TIP3   OH238272   2.188   4.579   2.451  0.2676  0.2274  0.5702
 5594TIP3    H138273   2.192   4.661   2.401 -0.6267  1.1479  1.9294
 5594TIP3    H238274   2.279   4.553   2.462  0.5547  0.9037 -0.0952
 5595TIP3   OH238275   0.287   2.540   4.815 -0.2013 -0.3560 -0.2156
 5595TIP3    H138276   0.271   2.631   4.792 -1.7376 -0.3883  0.6107
 5595TIP3    H238277   0.200   2.502   4.827  0.2476 -2.6118 -2.9269
 5596TIP3   OH238278   0.922   1.305   5.784 -0.0428  0.0259 -0.5386
 5596TIP3    H138279   0.857   1.234   5.788  0.8182 -0.9038 -2.0399
 5596TIP3    H238280   0.938   1.328   5.875 -1.0228 -1.0987 -0.0548
 5597TIP3   OH238281   6.097   6.381   0.087  0.8919  0.1192 -0.0306
 5597TIP3    H138282   6.182   6.403   0.124  1.2678  1.9445 -1.8231
 5597TIP3    H238283   6.053   6.465   0.076 -0.2708 -0.5988 -1.1356
 5598TIP3   OH238284   4.815   3.720  12.531  0.0541  0.1396 -0.0566
 5598TIP3    H138285   4.746   3.784  12.550 -0.3624 -0.0055 -0.9940
 5598TIP3    H238286   4.775   3.661  12.468 -0.6135 -2.8425  2.8764
 5599TIP3   OH238287   2.628   0.969   1.299 -0.6491  0.8066  0.4995
 5599TIP3    H138288   2.615   0.957   1.205  1.2458  1.3004  0.1146
 5599TIP3    H238289   2.555   0.923   1.340  0.5395 -2.9320 -1.1241
 5600TIP3   OH238290   6.590   5.790   0.757 -0.1260 -0.6280 -0.0991
 5600TIP3    H138291   6.624   5.731   0.824  0.0175  0.5377  0.8674
 5600TIP3    H238292   6.555   5.731   0.690  0.8946 -1.8184  0.3739
 5601TIP3   OH238293   0.534   0.206  14.536  0.0423  0.0737  0.5730
 5601TIP3    H138294   0.439   0.212  14.533  0.1876  3.1483 -1.2632
 5601TIP3    H238295   0.560   0.186  14.446  1.1752  1.0058  0.6662
 5602TIP3   OH238296   3.304   6.725  14.123  0.2563  0.6677 -0.0843
 5602TIP3    H138297   3.241   6.654  14.128  0.2770  0.6952  0.8138
 5602TIP3    H238298   3.385   6.684  14.093 -0.5645  0.9139 -2.8662
 5603TIP3   OH238299   3.768   2.178   4.535 -0.2610  0.6732 -0.1989
 5603TIP3    H138300   3.846   2.211   4.580 -0.8785  2.3307 -0.3000
 5603TIP3    H238301   3.714   2.141   4.605  0.0296  0.6822  0.0352
 5604TIP3   OH238302   4.942   3.971  12.846  0.6853 -0.5002 -0.7085
 5604TIP3    H138303   4.920   4.051  12.797 -0.3637  0.0541  0.5889
 5604TIP3    H238304   4.892   3.979  12.928  1.2438 -2.0828 -0.1784
 5605TIP3   OH238305   3.240   6.493   0.103 -0.3742  0.2298  0.5538
 5605TIP3    H138306   3.148   6.518   0.111 -0.8834 -1.1578 -0.5861
 5605TIP3    H238307   3.265   6.518   0.014 -0.0672 -0.6574  0.3797
 5606TIP3   OH238308   0.846   2.444  11.457  0.0334  0.2989 -0.3932
 5606TIP3    H138309   0.808   2.530  11.472  1.1518  0.5610  1.3195
 5606TIP3    H238310   0.937   2.463  11.433 -0.5423 -0.3320 -3.5491
 5607TIP3   OH238311   4.353   1.884   3.900  0.0313 -0.1121  0.2437
 5607TIP3    H138312   4.311   1.810   3.944 -0.6794  0.7157  1.0031
 5607TIP3    H238313   4.440   1.852   3.877 -0.0531 -0.9926  1.0751
 5608TIP3   OH238314   0.594   6.096  13.868  0.3183  0.1449 -0.2992
 5608TIP3    H138315   0.677   6.129  13.834  0.7716  1.5727  1.9638
 5608TIP3    H238316   0.618   6.033  13.936 -0.5099 -0.8338 -0.8779
 5609TIP3   OH238317   4.175   5.786   0.994 -0.0824 -0.2001  0.1599
 5609TIP3    H138318   4.165   5.762   1.086  1.5166 -1.6297  0.0015
 5609TIP3    H238319   4.247   5.732   0.962 -2.5100 -2.0528 -2.7185
 5610TIP3   OH238320   6.271   3.162   0.536  0.6347 -0.3362  0.3209
 5610TIP3    H138321   6.275   3.093   0.603 -0.8392 -1.1940 -0.4165
 5610TIP3    H238322   6.180   3.160   0.506  0.4734  2.1319  0.4439
 5611TIP3   OH238323   6.344   0.001   3.813  0.1073 -0.3204 -0.3117
 5611TIP3    H138324   6.280   0.035   3.750  0.7386  0.3759 -0.5891
 5611TIP3    H238325   6.304  -0.079   3.845 -0.6550 -0.1994 -0.9021
 5612TIP3   OH238326   6.218   0.365  16.755  0.1792  0.5030  0.4086
 5612TIP3    H138327   6.287   0.300  16.768  0.0927  0.4398  0.5487
 5612TIP3    H238328   6.137   0.319  16.777  0.1712  0.8273  1.0664
 5613TIP3   OH238329   0.407   2.484  16.015  0.1942  0.3220 -0.0754
 5613TIP3    H138330   0.474   2.480  15.946  0.5923 -0.3422  0.3345
 5613TIP3    H238331   0.408   2.396  16.053 -1.6550 -0.0195 -0.7538
 5614TIP3   OH238332   2.127   0.304   5.158  0.4087 -0.5036  0.3607
 5614TIP3    H138333   2.169   0.245   5.220  0.1544  0.3567  1.3669
 5614TIP3    H238334   2.058   0.251   5.117 -1.0461 -0.4334  2.5685
 5615TIP3   OH238335   2.716   4.748  11.029 -0.3518  0.0033  0.1534
 5615TIP3    H138336   2.696   4.671  11.082 -2.2039  0.9638  0.9520
 5615TIP3    H238337   2.775   4.716  10.961 -0.4186 -1.9322  0.9449
 5616TIP3   OH238338   3.804   2.981   3.769  0.5564  0.4750  0.7226
 5616TIP3    H138339   3.810   3.053   3.707 -0.2615 -1.2392 -1.5130
 5616TIP3    H238340   3.796   2.903   3.714 -1.2246 -1.0952  2.9887
 5617TIP3   OH238341   4.820   6.513   3.945 -0.3253  0.3266  0.2277
 5617TIP3    H138342   4.900   6.533   3.897 -0.1500  2.4532  1.2759
 5617TIP3    H238343   4.842   6.436   3.998 -0.1063 -1.2155 -1.9886
 5618TIP3   OH238344   6.744   3.594  16.041 -0.0968 -0.0117  0.0052
 5618TIP3    H138345   6.704   3.656  15.980  1.8684  1.2705 -0.0417
 5618TIP3    H238346   6.709   3.619  16.127  1.3949  1.8595  0.1300
 5619TIP3   OH238347   6.467   0.983   5.586  0.8079 -0.2611 -0.9649
 5619TIP3    H138348   6.426   1.043   5.649  1.7438  0.9211 -1.4368
 5619TIP3    H238349   6.517   0.922   5.640  2.6361  1.5181 -0.5388
 5620TIP3   OH238350   5.316   5.310   1.506 -0.5264 -0.6390 -0.6132
 5620TIP3    H138351   5.375   5.334   1.578  0.9480 -1.1260 -1.6352
 5620TIP3    H238352   5.300   5.217   1.519  0.1366 -0.8379 -1.1815
 5621TIP3   OH238353   6.380   2.331  13.265 -0.0145  0.2812  0.6135
 5621TIP3    H138354   6.346   2.401  13.209 -1.8622 -0.9174  0.1324
 5621TIP3    H238355   6.402   2.260  13.205  2.5282  0.6374  1.0224
 5622TIP3   OH238356   5.686   3.757   4.469 -0.2117 -0.1321 -0.1583
 5622TIP3    H138357   5.637   3.683   4.433  0.7394 -1.8005  1.7495
 5622TIP3    H238358   5.772   3.752   4.426 -0.3475  0.2751 -0.4863
 5623TIP3   OH238359   3.147   6.777   0.470  0.0513  0.5020  0.1026
 5623TIP3    H138360   3.186   6.817   0.547 -0.8538 -0.7674  1.2894
 5623TIP3    H238361   3.207   6.706   0.447  0.2337  0.7731 -0.2576
 5624TIP3   OH238362   2.234   2.732   3.226  0.4024  0.0940  0.1752
 5624TIP3    H138363   2.321   2.701   3.202  0.3711  1.3425 -1.8069
 5624TIP3    H238364   2.250   2.808   3.281  0.5908  0.6168 -0.5898
 5625TIP3   OH238365   2.593   4.085   3.616  0.0628  0.1259 -0.0046
 5625TIP3    H138366   2.535   4.073   3.540 -0.0760 -0.6119  0.2160
 5625TIP3    H238367   2.581   4.178   3.639  0.9869  0.6740 -1.5817
 5626TIP3   OH238368   5.258   0.685  12.546  0.4449 -0.3375  0.4699
 5626TIP3    H138369   5.172   0.722  12.563  0.2361  0.4494 -1.9546
 5626TIP3    H238370   5.246   0.629  12.470  2.0577 -0.2926  0.1467
 5627TIP3   OH238371   5.842   2.743  16.762 -0.1208  0.1775 -0.3669
 5627TIP3    H138372   5.913   2.794  16.722  0.3657 -0.9935 -1.0409
 5627TIP3    H238373   5.777   2.734  16.692 -0.1673 -0.1868 -0.2777
 5628TIP3   OH238374   0.747   6.806  13.058 -0.5373  1.0050  0.1286
 5628TIP3    H138375   0.774   6.842  13.143 -0.1317  0.2672  0.3306
 5628TIP3    H238376   0.658   6.774  13.073 -0.8302  1.7515 -0.0024
 5629TIP3   OH238377   3.766   2.344   2.662 -0.0438 -0.4781 -0.0693
 5629TIP3    H138378   3.714   2.263   2.659 -0.6238 -0.1021 -0.2046
 5629TIP3    H238379   3.743   2.384   2.745 -0.0116 -0.2814 -0.1559
 5630TIP3   OH238380   5.061   5.753  15.092  0.0670 -0.0988  0.3157
 5630TIP3    H138381   5.009   5.832  15.074 -0.6467 -0.1649  1.9096
 5630TIP3    H238382   5.148   5.773  15.058 -0.2502  1.1630  0.1936
 5631TIP3   OH238383   5.044   2.521   2.698  0.0972 -0.9052 -0.1383
 5631TIP3    H138384   4.977   2.488   2.758 -1.2156  2.3436  0.3692
 5631TIP3    H238385   5.116   2.548   2.755 -0.0172 -0.3115 -0.2730
 5632TIP3   OH238386   4.596   4.490  14.987 -0.0115  0.7604  0.1621
 5632TIP3    H138387   4.587   4.469  15.079  0.6289 -1.3326 -0.2183
 5632TIP3    H238388   4.507   4.515  14.959 -1.1622 -2.5388  0.4547
 5633TIP3   OH238389   0.284   1.721   4.967  0.0043  0.0980 -0.0341
 5633TIP3    H138390   0.222   1.674   4.911  1.4382 -1.4699 -0.4271
 5633TIP3    H238391   0.358   1.740   4.909  0.0483  1.6222  0.4909
 5634TIP3   OH238392   3.076   2.646  12.274  0.4217 -0.2794 -0.0311
 5634TIP3    H138393   3.122   2.688  12.346 -2.6503 -0.0768  2.0047
 5634TIP3    H238394   3.024   2.577  12.315 -0.0153 -1.4508 -2.3429
 5635TIP3   OH238395   3.737   1.093   1.029 -0.1355  0.5177  0.1675
 5635TIP3    H138396   3.751   1.128   0.941 -0.0930 -0.7667 -0.3594
 5635TIP3    H238397   3.817   1.113   1.076  0.6697 -0.5196 -0.7040
 5636TIP3   OH238398   2.856   4.570   3.256  0.0824 -1.0989 -0.2296
 5636TIP3    H138399   2.891   4.492   3.215 -1.5354 -1.2713 -1.3843
 5636TIP3    H238400   2.788   4.538   3.315 -1.8659 -0.5442 -2.0528
 5637TIP3   OH238401   5.531   0.653   0.311  0.2502 -0.0827  0.7302
 5637TIP3    H138402   5.499   0.611   0.231  1.2746  0.8074 -0.1712
 5637TIP3    H238403   5.570   0.582   0.361 -0.3895 -0.6489  0.4449
 5638TIP3   OH238404   6.032   4.378  13.969 -0.0038 -1.0192 -0.1026
 5638TIP3    H138405   6.069   4.456  14.010 -1.6277  1.1644 -2.5609
 5638TIP3    H238406   6.096   4.309  13.989  2.0173  1.1030  1.3080
 5639TIP3   OH238407   2.390   1.941   0.330 -0.1584  0.5990  0.2205
 5639TIP3    H138408   2.393   1.929   0.235 -1.4350  1.3632  0.0582
 5639TIP3    H238409   2.440   1.867   0.366 -0.8335 -0.4721 -0.9909
 5640TIP3   OH238410   3.020   4.917  13.916  0.1281  0.8881  0.4348
 5640TIP3    H138411   2.929   4.890  13.909 -0.4871  2.9104  0.1142
 5640TIP3    H238412   3.030   4.945  14.007  0.4453  0.6734  0.4690
 5641TIP3   OH238413   1.209   4.071  10.586 -0.2341 -0.1959 -0.3638
 5641TIP3    H138414   1.142   4.003  10.574  0.3456 -0.4132 -2.9283
 5641TIP3    H238415   1.163   4.142  10.630 -0.8870 -2.1310  2.3106
 5642TIP3   OH238416   0.960   3.877   4.941 -0.2828 -0.5001 -0.0575
 5642TIP3    H138417   0.877   3.864   4.897 -1.7675 -0.7468  2.6050
 5642TIP3    H238418   0.999   3.790   4.947  1.2356 -0.1411 -3.0528
 5643TIP3   OH238419   2.417   1.158   0.159 -0.0828 -0.6109  0.1836
 5643TIP3    H138420   2.435   1.251   0.143  1.3442 -0.9615 -0.4605
 5643TIP3    H238421   2.476   1.112   0.098 -0.4578 -1.9358  0.7964
 5644TIP3   OH238422   3.899   2.846  16.533  0.2447 -0.2621 -0.1173
 5644TIP3    H138423   3.879   2.824  16.442  0.1181 -0.1033 -0.1285
 5644TIP3    H238424   3.993   2.861  16.534  0.1253  0.5444 -0.3956
 5645TIP3   OH238425   4.956   3.252   4.158 -0.1779 -0.4433 -0.2316
 5645TIP3    H138426   4.934   3.288   4.072  0.1465  1.4296  0.4144
 5645TIP3    H238427   4.888   3.285   4.216  0.3744 -0.5321  0.4807
 5646TIP3   OH238428   0.427   1.828  15.096 -0.1926  0.1064  0.0204
 5646TIP3    H138429   0.391   1.864  15.177 -0.0143 -2.6021  1.4173
 5646TIP3    H238430   0.358   1.839  15.031 -1.2176  0.3535  1.1222
 5647TIP3   OH238431   0.382   3.758   4.458  0.4678  0.3076 -0.8310
 5647TIP3    H138432   0.329   3.789   4.531  0.8178  0.0167 -0.4465
 5647TIP3    H238433   0.391   3.664   4.473 -2.5112 -0.5145 -3.2202
 5648TIP3   OH238434   0.129   0.987   6.559  0.1599  0.3636  0.0761
 5648TIP3    H138435   0.044   1.001   6.518  0.6263  2.8483 -0.2026
 5648TIP3    H238436   0.144   1.066   6.612  2.7782  0.5601 -0.7967
 5649TIP3   OH238437   0.248   3.533  11.603  0.5603  0.1082 -0.5757
 5649TIP3    H138438   0.249   3.514  11.509 -0.0386  0.0007 -0.5626
 5649TIP3    H238439   0.187   3.606  11.612  1.4236  0.8235 -0.3934
 5650TIP3   OH238440   3.281   3.363   1.667  0.0323  0.5208  0.2153
 5650TIP3    H138441   3.295   3.411   1.586  0.2259  1.8020  0.9712
 5650TIP3    H238442   3.186   3.355   1.675 -0.0237 -3.0958 -2.0435
 5651TIP3   OH238443   5.084   2.543   4.328 -0.1084  0.0934 -0.1583
 5651TIP3    H138444   5.097   2.476   4.261 -1.8144  0.2773 -0.7070
 5651TIP3    H238445   5.152   2.525   4.393  1.0179 -0.6337 -1.4902
 5652TIP3   OH238446   5.896   3.674  12.519 -0.4155 -0.0223  0.1244
 5652TIP3    H138447   5.819   3.726  12.498 -1.5548 -1.5146  0.4541
 5652TIP3    H238448   5.969   3.720  12.477 -1.5683  1.0447 -0.7611
 5653TIP3   OH238449   0.304   5.761  10.954  0.1171 -0.0493 -0.6040
 5653TIP3    H138450   0.282   5.685  11.007 -1.8802  0.3230 -0.8150
 5653TIP3    H238451   0.286   5.733  10.864 -0.5073  0.5896 -0.6944
 5654TIP3   OH238452   2.543   5.370  15.550 -0.0172 -0.4178 -0.4560
 5654TIP3    H138453   2.487   5.323  15.612  1.1210 -1.7686 -0.4070
 5654TIP3    H238454   2.522   5.462  15.565 -0.3406 -0.7405  1.4055
 5655TIP3   OH238455   5.365   1.932   2.729 -0.5078  0.0870 -0.0444
 5655TIP3    H138456   5.272   1.914   2.742 -0.4416 -0.6293 -0.4581
 5655TIP3    H238457   5.390   1.873   2.658  0.4004 -0.1539  0.4663
 5656TIP3   OH238458   3.508   1.379   2.541  0.3282 -0.1073 -0.5495
 5656TIP3    H138459   3.514   1.468   2.507  0.5666 -0.6050 -1.8393
 5656TIP3    H238460   3.598   1.355   2.562  0.1297  0.4041  1.0683
 5657TIP3   OH238461   6.256   4.311  13.250  0.1950 -0.0104 -0.3204
 5657TIP3    H138462   6.202   4.247  13.203  0.9221 -0.9037  0.0131
 5657TIP3    H238463   6.325   4.258  13.290 -0.1591  0.7646  1.4118
 5658TIP3   OH238464   4.390   4.512   0.673  0.0817  0.6591  0.3024
 5658TIP3    H138465   4.458   4.520   0.606 -0.6356  1.8724 -0.3173
 5658TIP3    H238466   4.347   4.429   0.654  1.0142  0.1443  0.3638
 5659TIP3   OH238467   3.638   4.935  14.988  0.0460 -0.2292  0.0571
 5659TIP3    H138468   3.732   4.944  14.971 -0.0001 -1.2664 -0.7872
 5659TIP3    H238469   3.596   4.975  14.912 -0.1809 -1.2111 -0.3431
 5660TIP3   OH238470   3.675   3.813   5.717  0.1640 -0.0136  0.3458
 5660TIP3    H138471   3.669   3.739   5.657 -1.8523  0.1092  0.3397
 5660TIP3    H238472   3.768   3.838   5.715  0.6698 -1.8010 -0.5072
 5661TIP3   OH238473   4.496   3.590   4.110  0.4333  0.1874 -0.9331
 5661TIP3    H138474   4.445   3.515   4.080  1.5661 -0.5353 -1.1245
 5661TIP3    H238475   4.544   3.619   4.032 -1.6160  2.5213 -1.4259
 5662TIP3   OH238476   0.827   5.089   6.455  0.3720  0.0533 -0.7666
 5662TIP3    H138477   0.901   5.129   6.408  0.6034  0.5784  0.0199
 5662TIP3    H238478   0.864   5.011   6.496  0.4884  0.2904 -0.4120
 5663TIP3   OH238479   2.179   1.762   4.094  0.0016 -0.5115  0.0110
 5663TIP3    H138480   2.172   1.793   4.184 -3.2242 -3.1353  0.8601
 5663TIP3    H238481   2.116   1.813   4.045 -1.5150 -1.9908  0.3109
 5664TIP3   OH238482   1.661   3.016  13.141 -0.3579  0.3320  0.5924
 5664TIP3    H138483   1.610   2.961  13.081  2.0479  1.3661 -2.7081
 5664TIP3    H238484   1.623   3.103  13.132 -0.3247  0.3999  1.0640
 5665TIP3   OH238485   6.778   3.089  16.289  0.2189 -0.2013 -0.1227
 5665TIP3    H138486   6.819   3.085  16.203  0.5412  0.7800 -0.0314
 5665TIP3    H238487   6.847   3.123  16.347 -0.3117  0.1903  0.2963
 5666TIP3   OH238488   5.181   3.666   4.932  0.3373  0.0684 -0.3613
 5666TIP3    H138489   5.175   3.746   4.984  2.4077  0.0720 -0.0390
 5666TIP3    H238490   5.256   3.681   4.875 -0.3215 -0.9791 -1.5420
 5667TIP3   OH238491   0.770   2.140  17.174  0.0164 -0.2813  0.0319
 5667TIP3    H138492   0.827   2.079  17.126 -0.9997 -2.4412  1.3750
 5667TIP3    H238493   0.760   2.098  17.260 -3.2069  0.2346  0.0060
 5668TIP3   OH238494   2.566   4.231  14.730  0.3117  0.8676  0.0381
 5668TIP3    H138495   2.601   4.313  14.694  2.3389 -0.4348 -1.1698
 5668TIP3    H238496   2.473   4.234  14.709  0.7687  1.8273 -2.1302
 5669TIP3   OH238497   6.263   2.687  12.044  0.3011 -0.0706  0.6443
 5669TIP3    H138498   6.310   2.621  12.094  0.7345  0.0052  0.3436
 5669TIP3    H238499   6.323   2.762  12.041 -0.1051  0.2672  0.8168
 5670TIP3   OH238500   1.693   1.881   2.809 -0.4304  0.0233  0.5433
 5670TIP3    H138501   1.680   1.822   2.883  0.1954  1.1341  1.5679
 5670TIP3    H238502   1.785   1.907   2.815  0.0657 -1.0180 -1.5200
 5671TIP3   OH238503   4.345   3.388   3.987 -0.5448 -0.1209 -0.2772
 5671TIP3    H138504   4.258   3.365   4.022 -0.4379 -0.0391  0.0446
 5671TIP3    H238505   4.328   3.412   3.896 -0.7775 -0.6658 -0.3802
 5672TIP3   OH238506   5.945   5.237  12.893 -0.3448 -0.1087  0.3638
 5672TIP3    H138507   5.953   5.142  12.879 -1.0436 -0.0512 -0.5331
 5672TIP3    H238508   5.997   5.254  12.972  2.2614 -0.7782 -1.0887
 5673TIP3   OH238509   3.796   3.418   4.063  0.0581 -0.3047 -0.0830
 5673TIP3    H138510   3.712   3.440   4.104  0.8557 -2.0806  2.8275
 5673TIP3    H238511   3.776   3.411   3.970 -2.2353  2.5795  0.0480
 5674TIP3   OH238512   1.852   4.167   6.007 -0.0085  0.5547  0.0823
 5674TIP3    H138513   1.776   4.189   5.954  0.7732  2.4154 -0.3415
 5674TIP3    H238514   1.823   4.094   6.061 -2.6923  2.2572  1.1838
 5675TIP3   OH238515   3.199   0.866   3.244 -0.2284  0.1550  0.2312
 5675TIP3    H138516   3.121   0.825   3.281  0.5717 -1.9923 -0.3269
 5675TIP3    H238517   3.180   0.873   3.150  0.2356 -0.4142  0.0869
 5676TIP3   OH238518   6.801   2.155  15.789 -0.0918 -0.3276 -0.1290
 5676TIP3    H138519   6.713   2.141  15.755 -0.0971 -0.8037  0.0666
 5676TIP3    H238520   6.856   2.093  15.741  0.6241  1.6914 -2.1079
 5677TIP3   OH238521   3.492   2.457   0.091  0.5368  0.4784 -0.0370
 5677TIP3    H138522   3.526   2.460   0.002 -1.3602  1.4548 -0.7778
 5677TIP3    H238523   3.479   2.363   0.108 -0.8891  0.3733 -1.5274
 5678TIP3   OH238524   6.054   5.152  12.290 -0.3336 -0.1659  0.0401
 5678TIP3    H138525   6.091   5.077  12.243  0.5514 -0.9101  1.8296
 5678TIP3    H238526   6.130   5.199  12.323 -0.8917 -0.3138  1.6512
 5679TIP3   OH238527   5.028   4.865  14.059 -0.5806  0.1889  0.1348
 5679TIP3    H138528   5.087   4.855  13.984 -0.3881  0.5499  0.2362
 5679TIP3    H238529   5.035   4.958  14.083 -0.4724  0.0291  0.7361
 5680TIP3   OH238530   5.386   3.328  11.337 -0.0622 -0.2450 -0.4594
 5680TIP3    H138531   5.352   3.411  11.372  0.8846  0.2800 -0.7592
 5680TIP3    H238532   5.439   3.354  11.262  1.7542 -0.9557  0.5317
 5681TIP3   OH238533   1.035   6.348   2.901  0.1295 -0.0248  0.1522
 5681TIP3    H138534   0.976   6.399   2.845  0.8354 -0.6735 -1.2399
 5681TIP3    H238535   0.980   6.320   2.974 -0.8389  0.8465 -0.2094
 5682TIP3   OH238536   5.457   3.342  13.405  0.9506  0.2126 -0.1746
 5682TIP3    H138537   5.395   3.286  13.358 -0.2590  0.9685  0.4579
 5682TIP3    H238538   5.458   3.424  13.356 -1.0573  1.3596  1.5154
 5683TIP3   OH238539   2.817   5.766   3.658 -0.0871 -0.3882 -0.8257
 5683TIP3    H138540   2.909   5.794   3.653  0.1984 -0.7152  1.5026
 5683TIP3    H238541   2.790   5.789   3.747 -2.2987 -0.2628 -1.4888
 5684TIP3   OH238542   2.718   0.171   5.996  0.3813  0.0133 -0.1313
 5684TIP3    H138543   2.663   0.249   5.998 -0.9439 -0.6110 -3.5779
 5684TIP3    H238544   2.799   0.200   5.955 -0.4949 -0.4289 -2.3940
 5685TIP3   OH238545   0.910   5.089  14.596 -0.2985 -0.1251  0.6702
 5685TIP3    H138546   0.955   5.132  14.523 -0.0414 -0.6796  0.4911
 5685TIP3    H238547   0.969   5.099  14.670  0.0821 -0.7502  0.4637
 5686TIP3   OH238548   6.394   5.851  11.663  0.2070  0.2293 -0.1278
 5686TIP3    H138549   6.387   5.854  11.758  1.1139  0.8870 -0.0608
 5686TIP3    H238550   6.417   5.941  11.638 -0.8855  0.2719 -1.0514
 5687TIP3   OH238551   4.530   6.450   1.008 -0.1517 -0.4341  0.0836
 5687TIP3    H138552   4.553   6.470   0.917  0.3312 -0.4854  0.1964
 5687TIP3    H238553   4.475   6.371   1.001 -1.5316  0.5208 -0.3023
 5688TIP3   OH238554   3.210   1.784  11.881  0.0723 -0.6016 -0.1494
 5688TIP3    H138555   3.138   1.841  11.853  0.7482  0.7095  0.6557
 5688TIP3    H238556   3.169   1.722  11.941 -0.5412 -0.4179 -0.3735
 5689TIP3   OH238557   3.954   1.184  12.951 -0.6187  0.2520 -0.1027
 5689TIP3    H138558   4.031   1.238  12.967  0.4221 -1.1556 -0.0820
 5689TIP3    H238559   3.973   1.102  12.997 -1.9952 -0.2486 -0.3718
 5690TIP3   OH238560   6.231   5.372  14.146  0.6309  0.3138 -0.7396
 5690TIP3    H138561   6.297   5.398  14.081  0.6945  3.7678  0.4928
 5690TIP3    H238562   6.280   5.360  14.227  0.2897 -1.9489 -0.8202
 5691TIP3   OH238563   5.739   2.182  13.355  0.3935  0.1479  0.2404
 5691TIP3    H138564   5.708   2.097  13.384  2.0251 -0.6835 -0.3350
 5691TIP3    H238565   5.823   2.194  13.399  0.8674  0.8061 -0.7936
 5692TIP3   OH238566   4.845   3.907   1.762  0.1382 -0.0226  0.0814
 5692TIP3    H138567   4.923   3.925   1.814  0.0492  0.9186 -0.0914
 5692TIP3    H238568   4.780   3.971   1.793  1.3938  3.8568 -4.1131
 5693TIP3   OH238569   1.133   3.686   3.996 -0.4322  0.0128  0.3047
 5693TIP3    H138570   1.139   3.601   4.040  1.4249 -0.5934 -1.0125
 5693TIP3    H238571   1.184   3.745   4.052  3.0653 -1.0483 -1.5173
 5694TIP3   OH238572   5.689   0.669  15.945 -0.0473  0.4439 -0.3779
 5694TIP3    H138573   5.664   0.631  16.030  2.3110 -2.3680 -0.7782
 5694TIP3    H238574   5.756   0.734  15.966  1.0891 -0.7879 -0.0760
 5695TIP3   OH238575   1.927   5.682   1.080  0.0128  0.6482 -0.7789
 5695TIP3    H138576   1.876   5.605   1.054  1.9222 -0.7682 -0.4835
 5695TIP3    H238577   1.986   5.698   1.007  0.0742  1.4746 -0.5609
 5696TIP3   OH238578   2.168   4.473   3.279  0.3702 -0.1912 -0.6146
 5696TIP3    H138579   2.094   4.418   3.255 -0.3924  1.1478 -1.4337
 5696TIP3    H238580   2.137   4.562   3.266  1.1927  0.5218  1.7063
 5697TIP3   OH238581   0.607   3.426   0.216  0.3366  0.2101 -0.6227
 5697TIP3    H138582   0.523   3.452   0.254  0.4790 -1.1985  0.7137
 5697TIP3    H238583   0.663   3.407   0.291  1.0700 -1.2898 -1.4976
 5698TIP3   OH238584   1.087   1.392   4.231 -0.2467 -0.8500 -0.1923
 5698TIP3    H138585   1.152   1.337   4.275  2.6706  0.9894 -1.8558
 5698TIP3    H238586   1.125   1.410   4.145 -1.9914  2.0453 -0.4883
 5699TIP3   OH238587   4.660   5.719  10.985 -0.2978 -0.1009  0.2697
 5699TIP3    H138588   4.598   5.785  10.953 -1.2458 -0.8163  0.6067
 5699TIP3    H238589   4.657   5.649  10.920 -2.1087 -1.4869  1.7462
 5700TIP3   OH238590   2.211   4.722   4.189  0.0313  0.0037 -0.6648
 5700TIP3    H138591   2.292   4.674   4.205  0.2123  0.6049  0.3079
 5700TIP3    H238592   2.236   4.814   4.198 -0.9368  0.1707  0.5702
 5701TIP3   OH238593   5.630   1.568  13.354  0.5656 -0.3878  0.4398
 5701TIP3    H138594   5.698   1.588  13.419  1.4742 -1.2817 -0.1925
 5701TIP3    H238595   5.552   1.611  13.387  1.6031  1.3165  0.8263
 5702TIP3   OH238596   5.011   0.120   1.964  0.2746 -0.2626  0.2507
 5702TIP3    H138597   5.039   0.029   1.963  0.6962 -0.1302 -0.6726
 5702TIP3    H238598   4.915   0.115   1.959  0.2765 -0.6532  0.5241
 5703TIP3   OH238599   6.323   5.537  13.629 -0.1581 -0.2086 -0.8816
 5703TIP3    H138600   6.286   5.502  13.548 -0.6154 -1.7574 -0.0451
 5703TIP3    H238601   6.333   5.460  13.686 -1.8238  1.0634  1.3036
 5704TIP3   OH238602   4.631   3.144   1.739 -0.1277  0.5756  0.3369
 5704TIP3    H138603   4.595   3.224   1.777 -3.4862 -0.2620 -0.7260
 5704TIP3    H238604   4.634   3.082   1.812 -0.2179  0.8499  0.5759
 5705TIP3   OH238605   0.768   2.726  15.896 -0.3828 -0.0700 -0.1655
 5705TIP3    H138606   0.719   2.807  15.907 -0.8781 -0.4068  0.1255
 5705TIP3    H238607   0.704   2.663  15.863  0.2566 -0.0377 -1.5651
 5706TIP3   OH238608   3.969   5.854   5.712  0.0448  0.4589  0.0123
 5706TIP3    H138609   3.897   5.917   5.712 -0.5707 -0.2329 -0.5515
 5706TIP3    H238610   3.962   5.809   5.629  1.0873  0.3139 -0.0181
 5707TIP3   OH238611   3.671   0.802   2.411 -0.2145 -0.1721  0.1338
 5707TIP3    H138612   3.583   0.771   2.433 -0.5493 -0.0163 -0.9015
 5707TIP3    H238613   3.656   0.875   2.351  0.5905 -2.3681 -3.0114
 5708TIP3   OH238614   1.884   1.468  14.633  0.2479  0.1478 -0.3435
 5708TIP3    H138615   1.970   1.496  14.603  0.6005  0.2757  0.7590
 5708TIP3    H238616   1.899   1.383  14.674 -0.0705  0.3887  0.2771
 5709TIP3   OH238617   3.542   4.731  11.676  0.1015 -0.1771 -0.8533
 5709TIP3    H138618   3.545   4.752  11.582 -0.8401  0.7435 -0.6892
 5709TIP3    H238619   3.449   4.716  11.694  0.4160 -1.7193 -0.3336
 5710TIP3   OH238620   3.996   5.319   2.752 -0.2405 -0.3686 -0.1891
 5710TIP3    H138621   3.961   5.232   2.769 -0.6458 -0.1095  0.3293
 5710TIP3    H238622   3.921   5.370   2.720  0.1022 -0.3419 -0.9650
 5711TIP3   OH238623   1.577   1.427  12.993  0.6337  0.5264 -0.3102
 5711TIP3    H138624   1.503   1.375  13.023  0.5506  0.8472  0.0599
 5711TIP3    H238625   1.589   1.493  13.062  0.8289  0.9016 -0.6956
 5712TIP3   OH238626   0.337   6.485   5.977 -0.2995 -0.3420 -0.2543
 5712TIP3    H138627   0.391   6.460   6.052  0.0560  3.5433  1.0545
 5712TIP3    H238628   0.401   6.507   5.909 -0.4997 -1.2212 -0.7270
 5713TIP3   OH238629   3.710   1.617   3.644  0.8831 -0.1389  0.0060
 5713TIP3    H138630   3.770   1.656   3.707  0.5627  0.5496 -0.1082
 5713TIP3    H238631   3.686   1.689   3.585  1.1453 -0.7520 -0.8844
 5714TIP3   OH238632   1.522   4.058  14.741  0.2914  0.2029  0.6345
 5714TIP3    H138633   1.457   4.119  14.706 -0.4168  0.1219  1.7841
 5714TIP3    H238634   1.560   4.017  14.663 -1.5580 -0.3112 -0.0441
 5715TIP3   OH238635   5.717   4.295  12.178 -0.4987  1.2258  0.0243
 5715TIP3    H138636   5.732   4.212  12.133  2.6175  1.1221  1.0461
 5715TIP3    H238637   5.622   4.310  12.170 -1.4398 -3.0542  0.8953
 5716TIP3   OH238638   1.459   5.860   0.061 -0.1805 -0.6344 -0.2771
 5716TIP3    H138639   1.498   5.943   0.089 -0.3940 -0.3414 -0.8264
 5716TIP3    H238640   1.533   5.804   0.039  0.0140 -1.0562  1.3457
 5717TIP3   OH238641   0.202   5.067   1.381  0.2628  0.3839 -0.3154
 5717TIP3    H138642   0.281   5.108   1.345 -0.0744  0.4339 -1.0154
 5717TIP3    H238643   0.131   5.099   1.325 -0.4628  1.4325  1.1320
 5718TIP3   OH238644   0.960   6.225  12.302  0.5441  0.4915  0.0612
 5718TIP3    H138645   1.037   6.239  12.356 -0.2146  1.0258  1.0428
 5718TIP3    H238646   0.949   6.307  12.253  1.1679  0.0478 -0.8355
 5719TIP3   OH238647   2.657   5.022   2.678  0.5720 -0.4333  0.6998
 5719TIP3    H138648   2.635   5.006   2.770 -0.7200 -0.0398  0.4822
 5719TIP3    H238649   2.749   4.997   2.671  1.6906  2.5893  2.8417
 5720TIP3   OH238650   3.825   2.671   3.443  0.2730  0.2108  0.0557
 5720TIP3    H138651   3.741   2.695   3.406 -1.2087 -0.7538  2.5689
 5720TIP3    H238652   3.845   2.586   3.403  0.4751  0.8046 -1.1367
 5721TIP3   OH238653   5.073   4.948   4.875  0.2787  0.3356 -0.3322
 5721TIP3    H138654   5.117   5.032   4.864 -0.3879  0.9025  1.0763
 5721TIP3    H238655   5.144   4.884   4.883  0.9275  1.2598  2.1520
 5722TIP3   OH238656   2.846   0.196  16.123 -0.4121 -0.2978 -0.5227
 5722TIP3    H138657   2.872   0.272  16.176 -0.2207 -0.5357 -0.2715
 5722TIP3    H238658   2.922   0.178  16.067 -0.4215 -0.3624 -0.5152
 5723TIP3   OH238659   1.400   1.976  17.215 -0.4697  0.5466  0.1904
 5723TIP3    H138660   1.425   1.885  17.231  0.6372  1.0473  1.5551
 5723TIP3    H238661   1.305   1.976  17.222 -0.3849  0.2802  5.7459
 5724TIP3   OH238662   6.672   1.525  14.191  0.4113  0.0578  0.2306
 5724TIP3    H138663   6.664   1.590  14.121  0.1573 -0.7371 -0.5009
 5724TIP3    H238664   6.603   1.549  14.253  0.4612  0.6195  0.0724
 5725TIP3   OH238665   6.024   4.682   3.129  0.0903 -0.3779  0.2672
 5725TIP3    H138666   6.109   4.721   3.110 -1.2253  1.6543 -2.1733
 5725TIP3    H238667   5.994   4.726   3.208  0.5956  0.2244  0.1334
 5726TIP3   OH238668   2.653   0.670   3.173  0.7048  0.2784 -0.8279
 5726TIP3    H138669   2.722   0.624   3.126  1.0240 -0.5996  0.4538
 5726TIP3    H238670   2.572   0.629   3.143  0.9649 -0.8870  0.0354
 5727TIP3   OH238671   4.378   2.917  13.384  0.2316  0.5567 -0.1513
 5727TIP3    H138672   4.457   2.954  13.345 -0.2368 -0.0723 -1.7341
 5727TIP3    H238673   4.310   2.928  13.318 -0.5635 -0.6661  0.4185
 5728TIP3   OH238674   4.705   5.118  11.218  0.3261 -0.4653  0.4250
 5728TIP3    H138675   4.725   5.059  11.292  0.2508  0.1861  0.9766
 5728TIP3    H238676   4.790   5.141  11.182  0.4442  0.1730  1.0819
 5729TIP3   OH238677   4.074   3.368  14.723 -0.2336 -0.4398 -0.1685
 5729TIP3    H138678   4.020   3.406  14.792 -0.4337 -0.6451 -0.2126
 5729TIP3    H238679   4.150   3.427  14.717 -0.5238 -0.0666 -0.2145
 5730TIP3   OH238680   5.681   1.960   4.111 -0.2429  0.3527  0.5510
 5730TIP3    H138681   5.721   1.930   4.193  0.9398 -1.9575 -0.7757
 5730TIP3    H238682   5.755   1.990   4.058 -0.5284 -1.3497 -0.8909
 5731TIP3   OH238683   0.160   6.019  16.763  0.4320  0.3327 -0.4154
 5731TIP3    H138684   0.172   5.998  16.671  0.9194  0.6334 -0.4255
 5731TIP3    H238685   0.097   6.091  16.763  0.4088  0.3129 -0.5112
 5732TIP3   OH238686   5.427   0.146   1.772  0.3599 -0.3372 -0.1933
 5732TIP3    H138687   5.495   0.122   1.836 -1.3138 -1.8885  1.0807
 5732TIP3    H238688   5.425   0.073   1.710 -2.2849 -1.9825  1.6462
 5733TIP3   OH238689   2.586   1.807   5.658  0.5355  0.3183  0.3943
 5733TIP3    H138690   2.667   1.789   5.609  2.1094  1.1959  2.5308
 5733TIP3    H238691   2.587   1.746   5.731 -1.8327 -1.0344 -0.5895
 5734TIP3   OH238692   2.910   4.915  13.556  0.1430 -0.0780  0.2571
 5734TIP3    H138693   2.849   4.909  13.630  0.7441  1.9983  0.9727
 5734TIP3    H238694   2.995   4.930  13.596  0.6966 -0.2415 -0.8223
 5735TIP3   OH238695   0.827   2.715   1.002  0.5352  0.3575 -0.0603
 5735TIP3    H138696   0.867   2.691   1.085  0.1909  0.8511  0.2513
 5735TIP3    H238697   0.738   2.741   1.025  0.1709 -0.2881 -0.6847
 5736TIP3   OH238698   4.199   3.755  16.331 -0.2217  0.2720 -0.4949
 5736TIP3    H138699   4.229   3.670  16.365  2.6907  0.4593 -2.2170
 5736TIP3    H238700   4.256   3.819  16.373 -2.1702  1.4366  0.5276
 5737TIP3   OH238701   5.586   4.848  16.876 -0.3757  0.3671 -0.1234
 5737TIP3    H138702   5.613   4.763  16.841  0.2601  0.1734  0.8147
 5737TIP3    H238703   5.551   4.895  16.800 -0.4575 -0.6155 -0.7073
 5738TIP3   OH238704   2.652   1.990  16.042  0.3266 -0.0580 -0.2563
 5738TIP3    H138705   2.728   1.952  16.087 -0.0813 -1.2105 -0.4951
 5738TIP3    H238706   2.670   1.976  15.949  0.8361  1.6751 -0.4519
 5739TIP3   OH238707   3.802   6.733  13.087 -0.3306  0.4227  0.6661
 5739TIP3    H138708   3.783   6.652  13.133 -2.2478  1.3312  1.5700
 5739TIP3    H238709   3.898   6.738  13.086 -0.1988 -1.2433  1.6240
 5740TIP3   OH238710   5.531   5.099  14.919  0.3914 -0.0504  0.1099
 5740TIP3    H138711   5.608   5.138  14.959  0.3421 -1.8500  2.1328
 5740TIP3    H238712   5.565   5.041  14.851  0.9674 -1.5325  1.5909
 5741TIP3   OH238713   0.120   0.889  11.045 -0.6540  0.0727  0.0170
 5741TIP3    H138714   0.085   0.978  11.043  0.6828  0.5957 -0.5979
 5741TIP3    H238715   0.084   0.847  10.967  0.3240  0.7222 -0.8137
 5742TIP3   OH238716   4.717   2.695   3.167 -0.9118 -0.5913  0.5027
 5742TIP3    H138717   4.735   2.635   3.239 -1.6391  0.3824  1.5393
 5742TIP3    H238718   4.683   2.774   3.209  0.3487  0.7073 -0.7754
 5743TIP3   OH238719   5.920   3.767   1.739 -0.0286  0.0735 -0.1888
 5743TIP3    H138720   5.933   3.806   1.825 -0.0601  0.6106 -0.4280
 5743TIP3    H238721   5.908   3.841   1.679 -1.7734 -0.3254 -0.3914
 5744TIP3   OH238722   0.934   3.385   1.722  0.2306 -0.6654  0.1059
 5744TIP3    H138723   0.859   3.414   1.774 -0.2723  1.3546 -1.5950
 5744TIP3    H238724   0.909   3.297   1.692 -1.0655 -0.3859  0.3040
 5745TIP3   OH238725   1.193   0.059   5.868  0.4799 -0.0161 -0.1513
 5745TIP3    H138726   1.210   0.151   5.888 -0.2220  0.0459  0.1760
 5745TIP3    H238727   1.173   0.019   5.953 -0.1798 -0.2572 -0.4106
 5746TIP3   OH238728   2.392   5.018   5.806  0.4142 -0.2966 -0.1857
 5746TIP3    H138729   2.406   5.027   5.901  2.1794  0.3147 -0.4562
 5746TIP3    H238730   2.449   4.945   5.781  2.4707  1.5404 -1.2118
 5747TIP3   OH238731   4.816   3.905  12.280 -0.4448  0.1526  0.3012
 5747TIP3    H138732   4.729   3.942  12.295 -0.6517  0.3308 -1.1857
 5747TIP3    H238733   4.840   3.867  12.365 -0.4969  3.0504  1.7342
 5748TIP3   OH238734   0.719   3.879   5.599  0.2233 -0.0589  0.0783
 5748TIP3    H138735   0.686   3.950   5.653 -3.3463 -0.6952 -1.0322
 5748TIP3    H238736   0.755   3.922   5.522  0.4800  0.6120  0.5619
 5749TIP3   OH238737   0.554   2.069  12.956 -0.6768 -0.0168  0.2988
 5749TIP3    H138738   0.559   2.103  13.045 -1.4192  2.8099 -0.6399
 5749TIP3    H238739   0.469   2.100  12.923  0.1261  0.1145 -1.7843
 5750TIP3   OH238740   2.967   3.968  12.449  0.9308  0.8145 -0.0269
 5750TIP3    H138741   2.889   4.008  12.487  0.9380 -0.6746  1.6672
 5750TIP3    H238742   3.040   4.017  12.487  0.8940  0.3641  0.6243
 5751TIP3   OH238743   0.558   3.704   3.136 -0.2130 -0.3145  0.5807
 5751TIP3    H138744   0.471   3.739   3.117 -0.9472 -1.7038  1.2477
 5751TIP3    H238745   0.599   3.771   3.191 -0.9942  0.1757  0.5882
 5752TIP3   OH238746   5.087   0.448   5.824  0.3903  0.6762 -0.3358
 5752TIP3    H138747   5.175   0.443   5.786  0.6282 -0.8431  0.3240
 5752TIP3    H238748   5.102   0.464   5.917  0.1054 -1.3054  0.1152
 5753TIP3   OH238749   5.830   3.202   4.058 -0.3565  0.3328 -0.5897
 5753TIP3    H138750   5.860   3.279   4.008  1.1809 -0.2507 -0.6390
 5753TIP3    H238751   5.910   3.169   4.100 -1.2673 -0.3541  0.6687
 5754TIP3   OH238752   6.152   0.466   6.048  0.4417 -0.1238  0.0121
 5754TIP3    H138753   6.144   0.561   6.036  0.0459 -0.2551 -0.8246
 5754TIP3    H238754   6.212   0.456   6.122  0.9215  0.7739 -0.2492
 5755TIP3   OH238755   0.014   6.725   1.421 -0.9418  0.1936 -0.2242
 5755TIP3    H138756   0.017   6.747   1.514  0.4266 -0.0765 -0.1945
 5755TIP3    H238757   0.048   6.636   1.416 -0.6252  0.3552 -1.0332
 5756TIP3   OH238758   5.064   1.592   0.377  1.0685  0.6026  0.4336
 5756TIP3    H138759   5.031   1.563   0.292  1.6888  0.2643  0.3011
 5756TIP3    H238760   5.019   1.537   0.440  3.5066 -1.9818  0.1049
 5757TIP3   OH238761   6.093   1.164  16.239  0.1970 -0.4890  0.5347
 5757TIP3    H138762   6.003   1.185  16.212 -0.0911  0.4627  2.1242
 5757TIP3    H238763   6.110   1.221  16.314  2.0637 -0.8229  0.4133
 5758TIP3   OH238764   3.522   3.711   4.346 -0.1909 -0.5496  0.4653
 5758TIP3    H138765   3.462   3.751   4.409  0.4773 -0.0145  0.7706
 5758TIP3    H238766   3.609   3.742   4.373  0.0859 -0.1730 -0.8139
 5759TIP3   OH238767   3.500   2.203  16.869 -0.4925  0.6147  0.5985
 5759TIP3    H138768   3.588   2.238  16.853 -1.3804  2.0090 -1.5165
 5759TIP3    H238769   3.498   2.188  16.964  1.7895  1.1826  0.7941
 5760TIP3   OH238770   5.154   2.933  15.128 -0.2749  0.1804 -0.0743
 5760TIP3    H138771   5.111   2.854  15.161  0.3379 -1.0677 -2.0764
 5760TIP3    H238772   5.238   2.934  15.173 -1.3555  1.3072  2.0587
 5761TIP3   OH238773   0.912   5.740  10.839 -0.2682  0.3461 -0.5333
 5761TIP3    H138774   0.937   5.826  10.874 -1.5216  0.3784  0.3462
 5761TIP3    H238775   0.921   5.749  10.745  3.8686  0.0676 -0.3459
 5762TIP3   OH238776   5.137   5.127  15.319  0.3404  0.0540 -0.6571
 5762TIP3    H138777   5.163   5.060  15.256  0.7657  0.8577 -1.3372
 5762TIP3    H238778   5.068   5.176  15.275 -0.9599 -0.7668  0.3572
 5763TIP3   OH238779   4.322   0.944  14.263  0.3599  0.1927  0.0189
 5763TIP3    H138780   4.311   0.968  14.171 -0.9964 -0.6603 -0.0732
 5763TIP3    H238781   4.289   1.018  14.313 -0.6094 -0.0590 -0.2235
 5764TIP3   OH238782   5.319   2.564  16.360  0.1396 -0.5919  0.3743
 5764TIP3    H138783   5.410   2.535  16.370 -0.1966 -2.0095 -0.3920
 5764TIP3    H238784   5.326   2.656  16.333  1.2693 -0.0933  2.1787
 5765TIP3   OH238785   5.938   6.411  14.262  0.2603  0.7252 -0.2929
 5765TIP3    H138786   5.927   6.503  14.238 -1.0045  0.5734 -0.3659
 5765TIP3    H238787   5.863   6.367  14.222  1.8797 -0.6885 -1.9616
 5766TIP3   OH238788   0.012   3.765  16.489  0.0758 -0.4010  0.5862
 5766TIP3    H138789  -0.061   3.819  16.518  0.6800  0.2838  0.8743
 5766TIP3    H238790  -0.026   3.679  16.472 -0.6186 -0.3161  1.6609
 5767TIP3   OH238791   2.303   1.612   0.519  0.7272 -0.0415 -0.1254
 5767TIP3    H138792   2.341   1.631   0.434 -0.5915  2.8385 -0.1841
 5767TIP3    H238793   2.213   1.586   0.500 -0.0487  2.1101  0.4047
 5768TIP3   OH238794   3.089   3.775   3.027  0.5768  0.0469 -0.0223
 5768TIP3    H138795   3.096   3.842   3.095 -0.1266 -0.5009  0.6007
 5768TIP3    H238796   3.140   3.701   3.060 -0.1227 -0.3838  0.1254
 5769TIP3   OH238797   3.390   1.938  15.909 -0.4381  0.3564  0.1141
 5769TIP3    H138798   3.373   1.846  15.892  0.1316  0.4527 -1.0349
 5769TIP3    H238799   3.320   1.964  15.969 -2.2424 -0.1653 -1.6477
 5770TIP3   OH238800   2.968   4.405   4.196  0.3698 -0.3470 -0.0762
 5770TIP3    H138801   2.987   4.431   4.286 -1.1260  0.8534 -0.0760
 5770TIP3    H238802   2.873   4.396   4.193  0.4866 -1.4679 -1.2626
 5771TIP3   OH238803   1.336   0.482   1.144  0.0245  0.1149  0.5702
 5771TIP3    H138804   1.274   0.509   1.076 -1.6954  1.3309  2.4912
 5771TIP3    H238805   1.348   0.388   1.128 -2.8732 -0.3426  0.4519
 5772TIP3   OH238806   5.306   4.008   2.978 -0.5124 -0.0190  0.6386
 5772TIP3    H138807   5.234   4.041   2.924  0.9475  2.3808  0.0321
 5772TIP3    H238808   5.285   4.035   3.067 -1.3167 -1.1423  0.8196
 5773TIP3   OH238809   3.555   0.206  16.059  0.0114 -0.4700  1.0622
 5773TIP3    H138810   3.537   0.175  15.971 -0.1800  0.1774  0.8720
 5773TIP3    H238811   3.538   0.300  16.056  0.3642 -0.3779  1.6907
 5774TIP3   OH238812   0.364   6.547   5.185  0.1609  0.0516  0.3057
 5774TIP3    H138813   0.453   6.524   5.210 -0.2037 -0.7777  0.8953
 5774TIP3    H238814   0.366   6.556   5.090  0.8964  0.1642  0.3321
 5775TIP3   OH238815   4.668   4.438   5.342 -0.3261  0.3687  0.2572
 5775TIP3    H138816   4.667   4.384   5.263  0.1174  0.0715  0.4509
 5775TIP3    H238817   4.691   4.377   5.413 -0.5735  0.6601  0.5935
 5776TIP3   OH238818   4.960   5.124  16.403 -0.5222  0.0770  0.4706
 5776TIP3    H138819   4.881   5.097  16.355 -0.9295 -0.3489  1.3649
 5776TIP3    H238820   4.927   5.181  16.472 -0.0855 -0.4397  1.1080
 5777TIP3   OH238821   2.065   0.772  14.612 -0.2938  0.2369 -0.4092
 5777TIP3    H138822   2.129   0.818  14.557  1.0763 -1.6330 -0.4492
 5777TIP3    H238823   2.106   0.768  14.698  0.5009 -2.4279 -0.8152
 5778TIP3   OH238824   0.122   1.940   6.443  0.6598 -0.0045  0.0311
 5778TIP3    H138825   0.176   1.891   6.505  0.1853  2.5246  2.6508
 5778TIP3    H238826   0.161   2.028   6.442 -1.1671  0.8377 -0.9258
 5779TIP3   OH238827   1.443   0.001  16.162  1.1024  0.3971  0.5608
 5779TIP3    H138828   1.364   0.026  16.114  0.2758 -1.2984  0.9655
 5779TIP3    H238829   1.426   0.030  16.252 -0.1289 -1.9596  1.1726
 5780TIP3   OH238830   2.103   1.945  13.871  0.0236  0.6922 -0.2974
 5780TIP3    H138831   2.187   1.990  13.877 -0.4439  1.4097  2.9508
 5780TIP3    H238832   2.044   2.009  13.832  0.7791  0.4387 -1.9181
 5781TIP3   OH238833   1.127   0.918   0.227 -0.0711 -0.2867 -0.1545
 5781TIP3    H138834   1.037   0.947   0.216  0.7103  3.0080  1.0198
 5781TIP3    H238835   1.170   0.944   0.145 -0.0644 -1.4022 -0.5138
 5782TIP3   OH238836   4.927   0.417  13.611 -0.1008  0.6524  0.6660
 5782TIP3    H138837   4.981   0.477  13.664  0.3636  0.1537  0.7617
 5782TIP3    H238838   4.910   0.343  13.669  0.6967 -0.0524  0.0016
 5783TIP3   OH238839   3.584   3.063  15.266 -0.7370 -0.2472 -0.3955
 5783TIP3    H138840   3.521   3.132  15.289  1.6123  1.6277  0.7758
 5783TIP3    H238841   3.578   3.056  15.171  1.2935  4.1030 -1.0603
 5784TIP3   OH238842   4.694   1.497   1.389  0.0693 -0.3360 -0.3404
 5784TIP3    H138843   4.696   1.486   1.484  0.1520  0.7555 -0.2022
 5784TIP3    H238844   4.611   1.540   1.371  0.8421  1.1507 -0.5371
 5785TIP3   OH238845   3.506   5.774   2.901  0.0933 -0.3504  0.1200
 5785TIP3    H138846   3.456   5.781   2.819  0.6331  0.1922 -0.1716
 5785TIP3    H238847   3.590   5.736   2.874  1.1840  1.9489 -0.0028
 5786TIP3   OH238848   2.088   2.975  12.702 -0.2940  0.3740 -0.2803
 5786TIP3    H138849   2.153   2.946  12.765 -0.7088  1.7365  0.8315
 5786TIP3    H238850   2.077   2.901  12.643  1.1685 -0.4115  0.3815
 5787TIP3   OH238851   1.964   1.885   0.532  0.3246  0.3542 -0.2230
 5787TIP3    H138852   2.032   1.861   0.596  0.0788 -0.4998 -0.2689
 5787TIP3    H238853   1.953   1.979   0.543 -1.7110 -0.0888  3.0375
 5788TIP3   OH238854   2.359   6.684  15.284 -0.1301  0.1356 -0.5273
 5788TIP3    H138855   2.264   6.688  15.301 -0.2203  0.4397 -1.0749
 5788TIP3    H238856   2.395   6.757  15.333 -0.1048 -0.3028  0.1241
 5789TIP3   OH238857   6.034   5.339   3.874 -0.0764 -0.0815 -0.6384
 5789TIP3    H138858   6.004   5.251   3.853 -0.0485  0.0175 -1.1117
 5789TIP3    H238859   6.072   5.371   3.792  2.2182 -0.5587  0.1787
 5790TIP3   OH238860   4.707   0.835  15.532 -0.0290 -0.3026 -0.6422
 5790TIP3    H138861   4.768   0.764  15.553  0.1188  0.7955  3.8077
 5790TIP3    H238862   4.727   0.858  15.442  2.2197 -3.6484 -1.1930
 5791TIP3   OH238863   2.222   4.992  14.730  0.1408 -0.4016  0.4899
 5791TIP3    H138864   2.240   4.941  14.651  0.2389  0.2505  0.0846
 5791TIP3    H238865   2.304   4.990  14.779 -0.0310 -1.1130  0.7541
 5792TIP3   OH238866   4.541   0.625  17.191  0.0910  0.2245 -0.2625
 5792TIP3    H138867   4.628   0.614  17.152  0.0878 -0.1509 -0.1690
 5792TIP3    H238868   4.509   0.536  17.204 -0.3958  0.3600 -0.4894
 5793TIP3   OH238869   4.299   3.846  15.248  0.5623  0.0627  0.2446
 5793TIP3    H138870   4.268   3.912  15.310  1.7552 -1.0318  2.1066
 5793TIP3    H238871   4.384   3.819  15.282  1.3729 -0.4670 -2.0249
 5794TIP3   OH238872   5.507   3.230  15.956 -0.2148 -0.0058  0.3843
 5794TIP3    H138873   5.602   3.239  15.948 -0.4615  1.3204 -2.3110
 5794TIP3    H238874   5.491   3.136  15.950  0.9353 -0.2846  1.3953
 5795TIP3   OH238875   1.064   2.679  11.585  0.9361  0.7791 -0.3144
 5795TIP3    H138876   1.158   2.700  11.589  0.7261  1.9890 -1.1617
 5795TIP3    H238877   1.054   2.630  11.504  0.7934  0.8745 -0.3550
 5796TIP3   OH238878   5.511   1.441  16.108  0.3545 -0.0751 -0.3047
 5796TIP3    H138879   5.429   1.439  16.157  1.2591  0.0477  1.3033
 5796TIP3    H238880   5.512   1.359  16.058  0.2630 -1.1734  1.4261
 5797TIP3   OH238881   1.153   4.118   4.353 -0.2592 -0.0033  0.6930
 5797TIP3    H138882   1.072   4.065   4.348 -2.1717  2.8213 -1.0058
 5797TIP3    H238883   1.222   4.056   4.330 -2.4498 -1.6472 -2.2737
 5798TIP3   OH238884   5.515   2.672  12.957  0.3366 -0.4765 -0.5360
 5798TIP3    H138885   5.543   2.640  13.043 -0.4306 -2.6559 -1.0313
 5798TIP3    H238886   5.515   2.767  12.965 -0.0331 -0.6313  1.9809
 5799TIP3   OH238887   6.098   5.570   2.739 -0.1065 -0.1744 -0.2604
 5799TIP3    H138888   6.034   5.530   2.679 -0.4435 -1.1917  0.7332
 5799TIP3    H238889   6.065   5.549   2.826  1.9497 -1.3837  0.3013
 5800TIP3   OH238890   0.456   4.907   4.940 -0.1439  0.1353  0.0348
 5800TIP3    H138891   0.458   4.994   4.900 -0.7100  0.1577  0.0522
 5800TIP3    H238892   0.455   4.846   4.866  0.4326  0.1354  0.0224
 5801TIP3   OH238893   1.500   3.039   6.157  0.4772 -0.1268 -0.2653
 5801TIP3    H138894   1.436   2.990   6.208 -0.3557 -0.3966 -1.5261
 5801TIP3    H238895   1.578   3.042   6.212 -0.1956 -0.9325  0.7515
 5802TIP3   OH238896   5.163   0.175   6.161 -0.4862  0.0564 -0.8738
 5802TIP3    H138897   5.251   0.158   6.192 -0.5163  0.3380 -0.6310
 5802TIP3    H238898   5.107   0.161   6.237 -0.6504 -0.1087 -1.0239
 5803TIP3   OH238899   5.028   6.666  13.813 -0.0615  0.4401 -0.0100
 5803TIP3    H138900   5.081   6.592  13.782  0.0220  0.4002  0.2299
 5803TIP3    H238901   4.938   6.643  13.789 -0.1573 -0.1779  0.9107
 5804TIP3   OH238902   5.745   1.331  11.963  0.1851 -0.0769  0.1588
 5804TIP3    H138903   5.702   1.413  11.941 -0.5138 -0.7329 -1.0473
 5804TIP3    H238904   5.751   1.284  11.879 -0.2509 -1.6136  0.9459
 5805TIP3   OH238905   2.255   1.252  11.623 -0.0859 -0.4269 -0.1944
 5805TIP3    H138906   2.338   1.225  11.584  0.1984  1.7687 -1.2832
 5805TIP3    H238907   2.189   1.204  11.573  0.4585 -0.7047 -0.6600
 5806TIP3   OH238908   6.154   1.388  16.381 -0.8236 -0.7592 -0.2268
 5806TIP3    H138909   6.226   1.393  16.444  0.0221  1.6834 -1.2820
 5806TIP3    H238910   6.076   1.410  16.433 -0.6338 -1.9825  0.6132
 5807TIP3   OH238911   1.429   4.211   4.254  0.1361  0.0308  0.8276
 5807TIP3    H138912   1.432   4.252   4.168  1.5933 -2.2932 -0.3116
 5807TIP3    H238913   1.367   4.265   4.304 -2.2972  0.3199 -2.2485
 5808TIP3   OH238914   3.488   6.482  11.086  0.5072  0.1990  0.7405
 5808TIP3    H138915   3.559   6.523  11.036 -0.0046  0.3430  0.1268
 5808TIP3    H238916   3.409   6.503  11.038 -0.0150  0.4238  1.6667
 5809TIP3   OH238917   1.392   3.088  10.871  0.1683 -0.2137 -0.1732
 5809TIP3    H138918   1.441   3.110  10.792  0.5723  1.4354  0.5062
 5809TIP3    H238919   1.450   3.111  10.943 -0.7262 -0.3866  0.6287
 5810TIP3   OH238920   2.859   1.811  11.418  0.1418 -0.5568 -0.1490
 5810TIP3    H138921   2.768   1.810  11.448 -0.0188 -0.4170 -0.6244
 5810TIP3    H238922   2.894   1.895  11.450  1.0144 -1.8791  2.6579
 5811TIP3   OH238923   6.088   2.653  11.728  0.6771  0.3919  0.7474
 5811TIP3    H138924   6.171   2.628  11.686  1.1523  0.2628  1.7297
 5811TIP3    H238925   6.113   2.717  11.794  0.0384  0.0781  1.3065
 5812TIP3   OH238926   1.571   3.011  12.603  0.3986 -0.1784 -0.4137
 5812TIP3    H138927   1.487   3.002  12.650  0.4137  0.6469 -0.2102
 5812TIP3    H238928   1.629   2.949  12.646  0.0526 -0.3335 -0.1633
 5813TIP3   OH238929   3.372   1.788   4.156 -0.3089 -0.4857  0.1032
 5813TIP3    H138930   3.368   1.767   4.063 -0.1355 -1.3002  0.2662
 5813TIP3    H238931   3.290   1.752   4.192 -1.4938  1.8612 -0.0951
 5814TIP3   OH238932   1.035   6.230   3.183  1.3610 -0.3286 -0.7323
 5814TIP3    H138933   0.960   6.229   3.124  1.7777  0.8879 -1.3311
 5814TIP3    H238934   1.078   6.146   3.170 -0.7302 -1.7077  0.7793
 5815TIP3   OH238935   1.315   5.822   5.324  0.1184 -0.3204  0.0650
 5815TIP3    H138936   1.396   5.788   5.362 -0.4091  1.2000  2.7236
 5815TIP3    H238937   1.278   5.879   5.391 -3.3982 -1.2481 -0.8614
 5816TIP3   OH238938   4.430   0.291  15.928  0.3393  0.4976 -0.1794
 5816TIP3    H138939   4.407   0.199  15.918  2.4879 -0.5339  2.8901
 5816TIP3    H238940   4.517   0.298  15.890  0.7472  0.9047  0.7975
 5817TIP3   OH238941   2.535   4.715  13.597 -0.8062  0.5864  0.7977
 5817TIP3    H138942   2.455   4.742  13.642 -0.9722 -1.1373  1.5854
 5817TIP3    H238943   2.582   4.661  13.660 -1.5794 -2.8597 -1.3508
 5818TIP3   OH238944   2.888   2.552   3.479 -0.2456  0.2158  0.5850
 5818TIP3    H138945   2.879   2.541   3.385 -0.2161  0.3636  0.5633
 5818TIP3    H238946   2.973   2.513   3.500  0.2428  1.1206  0.3797
 5819TIP3   OH238947   0.743   1.071   0.516 -0.9373 -0.4437 -0.2742
 5819TIP3    H138948   0.833   1.042   0.502 -1.3088 -1.1267 -1.3855
 5819TIP3    H238949   0.711   1.094   0.429 -0.9876  2.4743  0.4364
 5820TIP3   OH238950   0.384   1.539   2.683 -0.1834  0.4278 -0.0549
 5820TIP3    H138951   0.407   1.574   2.770 -0.9642 -0.5634  0.5791
 5820TIP3    H238952   0.292   1.563   2.672 -0.2120  0.1513 -0.4124
 5821TIP3   OH238953   6.322   1.493  11.592  0.0502 -0.2089  0.6820
 5821TIP3    H138954   6.404   1.534  11.617  0.7651 -0.8706 -0.5063
 5821TIP3    H238955   6.268   1.565  11.559  0.9350 -0.0564 -0.4960
 5822TIP3   OH238956   3.135   1.419   3.141  0.5166 -0.0105  0.0997
 5822TIP3    H138957   3.143   1.324   3.132  0.9844 -0.2012  2.1760
 5822TIP3    H238958   3.218   1.452   3.107  0.2744 -0.3038 -0.8159
 5823TIP3   OH238959   4.801   3.990   3.540 -0.4383 -0.0862 -0.6140
 5823TIP3    H138960   4.865   3.940   3.489  0.9293  0.4397  0.5074
 5823TIP3    H238961   4.759   3.925   3.596  0.5838 -0.1690  0.0885
 5824TIP3   OH238962   6.023   0.496   1.616  0.4052  0.4514 -0.0990
 5824TIP3    H138963   6.031   0.446   1.697 -0.0865  0.7742  0.1532
 5824TIP3    H238964   6.033   0.431   1.547 -0.4385 -0.0435  0.2250
 5825TIP3   OH238965   3.797   5.798  13.926  0.6149  0.8665  0.3074
 5825TIP3    H138966   3.860   5.830  13.862  0.8460 -1.2571 -0.5971
 5825TIP3    H238967   3.715   5.792  13.878  0.1939  1.5540  0.9044
 5826TIP3   OH238968   6.371   6.636  12.447 -0.0741  0.3882  0.5594
 5826TIP3    H138969   6.305   6.698  12.479 -0.4778 -0.5349  1.5670
 5826TIP3    H238970   6.421   6.611  12.525 -0.3758 -1.0763  0.3141
 5827TIP3   OH238971   2.834   4.760   3.024  0.0402  0.3962 -0.4204
 5827TIP3    H138972   2.821   4.714   3.107 -2.4863  2.6792  0.6097
 5827TIP3    H238973   2.924   4.740   2.999  1.0526 -0.0762  3.1113
 5828TIP3   OH238974   5.575   1.220   2.164 -0.9228  0.2467  0.3603
 5828TIP3    H138975   5.514   1.211   2.238 -2.8526  0.8291 -1.0814
 5828TIP3    H238976   5.566   1.311   2.137  0.2316  0.2003 -0.2315
 5829TIP3   OH238977   1.529   0.641  12.504 -0.3761  0.4055  0.8074
 5829TIP3    H138978   1.478   0.722  12.510 -1.9138 -0.3392 -1.2028
 5829TIP3    H238979   1.583   0.653  12.426 -1.5435 -0.9490 -0.2543
 5830TIP3   OH238980   3.728   2.903   6.467 -0.1445  0.2646 -0.3156
 5830TIP3    H138981   3.744   2.972   6.403  1.3785  1.6749  1.4772
 5830TIP3    H238982   3.646   2.929   6.510 -0.1345  0.3692 -0.3601
 5831TIP3   OH238983   6.437   0.305   5.947  0.2204 -0.1019  0.4986
 5831TIP3    H138984   6.492   0.333   5.874  1.8485  1.3643  2.2068
 5831TIP3    H238985   6.401   0.386   5.983 -1.2124 -0.8635  0.8820
 5832TIP3   OH238986   1.890   5.072   6.167  0.8975  0.2934 -0.0918
 5832TIP3    H138987   1.872   5.037   6.255  0.2166  0.5456 -0.1231
 5832TIP3    H238988   1.938   5.154   6.183 -1.2494  1.5800  0.1698
 5833TIP3   OH238989   5.292   6.064   3.315  0.0397  0.0940 -0.0011
 5833TIP3    H138990   5.340   6.126   3.259  2.5870 -2.8359 -1.3852
 5833TIP3    H238991   5.257   5.999   3.254  0.7478 -1.8642  1.5553
 5834TIP3   OH238992   4.798   4.903  12.807 -0.1045 -0.0178 -0.5999
 5834TIP3    H138993   4.787   4.855  12.725 -0.1481 -0.4919 -0.3202
 5834TIP3    H238994   4.753   4.849  12.873 -1.0468  0.9146 -0.4574
 5835TIP3   OH238995   2.299   0.197   4.460  0.2967  0.0710 -0.1072
 5835TIP3    H138996   2.381   0.171   4.503  0.5476  0.1180 -0.5449
 5835TIP3    H238997   2.263   0.116   4.426  0.2017  0.0608  0.0190
 5836TIP3   OH238998   5.144   2.180  13.529 -1.1474 -0.2652 -0.4000
 5836TIP3    H138999   5.114   2.140  13.611  1.6640 -0.9708  0.3692
 5836TIP3    H239000   5.114   2.271  13.534 -0.1105  0.0097  1.9638
 5837TIP3   OH239001   2.143   1.443  12.669 -0.2503  0.2167  0.5633
 5837TIP3    H139002   2.201   1.370  12.645 -0.9396 -0.4734  0.9249
 5837TIP3    H239003   2.186   1.521  12.634 -0.1936 -0.5181 -1.0943
 5838TIP3   OH239004   1.757   2.958  15.750 -0.0946  0.0821 -0.2592
 5838TIP3    H139005   1.792   2.894  15.688  1.1974 -0.2997  0.8048
 5838TIP3    H239006   1.662   2.942  15.749  0.1364 -1.4824 -0.4389
 5839TIP3   OH239007   2.541   1.546   2.268 -0.2522 -0.0572  0.4725
 5839TIP3    H139008   2.622   1.544   2.217 -0.1478 -0.4888  0.6533
 5839TIP3    H239009   2.562   1.601   2.344  0.3778 -1.4413  1.3451
 5840TIP3   OH239010   3.087   1.604  16.578 -0.8374  0.8794  0.3665
 5840TIP3    H139011   3.032   1.615  16.500 -0.1207  0.0265 -0.2783
 5840TIP3    H239012   3.172   1.640  16.553 -0.5427  0.4109  0.6837
 5841TIP3   OH239013   6.061   4.256  16.957  0.5337  0.0185 -0.0374
 5841TIP3    H139014   6.116   4.236  17.033 -1.0866  1.0053  1.4798
 5841TIP3    H239015   6.076   4.183  16.897  1.6957 -0.9304  1.3273
 5842TIP3   OH239016   1.243   6.612   5.992  0.2487  0.4856  0.0431
 5842TIP3    H139017   1.319   6.657   6.029  1.0575 -0.4971 -0.3931
 5842TIP3    H239018   1.168   6.653   6.036  0.9336  2.2895 -0.3677
 5843TIP3   OH239019   0.376   0.222  15.951 -0.0632 -0.1884 -0.2568
 5843TIP3    H139020   0.311   0.274  15.998 -0.0289 -1.1195  0.8834
 5843TIP3    H239021   0.359   0.132  15.979  1.4960 -0.4939 -0.1767
 5844TIP3   OH239022   6.319   0.670  11.529 -0.1908 -0.0485  0.2872
 5844TIP3    H139023   6.314   0.720  11.448 -1.3534  0.4583  0.6565
 5844TIP3    H239024   6.303   0.734  11.598  1.0037 -0.4310  0.9462
 5845TIP3   OH239025   2.763   6.444   2.170  0.3586 -0.1432  0.2170
 5845TIP3    H139026   2.817   6.366   2.183  0.5151  0.3737  3.2833
 5845TIP3    H239027   2.677   6.420   2.205  0.3506  0.9872  1.0053
 5846TIP3   OH239028   2.147   6.139   1.732 -0.3761 -0.1147  0.1199
 5846TIP3    H139029   2.233   6.114   1.767 -1.0887  0.3202  2.3368
 5846TIP3    H239030   2.156   6.232   1.711 -0.5161  0.1314  1.1148
 5847TIP3   OH239031   4.633   4.053   2.571 -0.0745 -0.4093 -0.2840
 5847TIP3    H139032   4.695   3.992   2.612 -1.5815 -0.4936  2.0136
 5847TIP3    H239033   4.687   4.129   2.549  1.3392 -1.5072 -0.8338
 5848TIP3   OH239034   3.831   5.566   4.186  0.0792  0.4898  0.5183
 5848TIP3    H139035   3.793   5.494   4.237 -0.7737  0.7198  0.2358
 5848TIP3    H239036   3.879   5.618   4.250  0.0837  0.0718  0.8557
 5849TIP3   OH239037   6.766   3.682  12.387 -0.6438 -0.0775  0.0045
 5849TIP3    H139038   6.729   3.734  12.316 -0.2598 -0.2947 -0.3593
 5849TIP3    H239039   6.760   3.592  12.357 -0.8874 -0.2073  0.4389
 5850TIP3   OH239040   5.576   6.801  14.138  0.4487  0.0583 -0.5832
 5850TIP3    H139041   5.519   6.828  14.066 -0.2250 -0.8949 -0.4283
 5850TIP3    H239042   5.620   6.882  14.166 -0.8155  0.8134 -0.7105
 5851TIP3   OH239043   4.778   3.975   0.712  0.4735 -0.0854 -0.3118
 5851TIP3    H139044   4.850   4.035   0.693 -0.3057  1.0251  0.1311
 5851TIP3    H239045   4.814   3.888   0.694  2.1745  0.3772  0.6464
 5852TIP3   OH239046   2.277   0.094   1.021  0.5927 -0.0190  0.1267
 5852TIP3    H139047   2.347   0.034   0.995  0.2091 -0.3041 -0.2680
 5852TIP3    H239048   2.309   0.135   1.101  1.9422  1.0662 -0.9010
 5853TIP3   OH239049   5.337   6.627   0.953  0.6740  0.0768 -0.2002
 5853TIP3    H139050   5.300   6.542   0.980  0.5321 -0.1578 -1.0836
 5853TIP3    H239051   5.356   6.672   1.035 -1.1502  0.0156  0.3078
 5854TIP3   OH239052   0.616   0.626   5.130  0.4362 -0.1182  0.4318
 5854TIP3    H139053   0.567   0.685   5.188 -0.5759 -0.1359 -0.3845
 5854TIP3    H239054   0.557   0.609   5.057  1.4528 -0.6132 -0.3013
 5855TIP3   OH239055   3.390   2.378  10.533  0.4987  0.1834  0.0374
 5855TIP3    H139056   3.315   2.320  10.543 -0.4210  1.6349  2.0780
 5855TIP3    H239057   3.452   2.350  10.600  0.2458  1.2352  0.7296
 5856TIP3   OH239058   3.339   5.500  16.224  0.0765  0.4417 -1.0352
 5856TIP3    H139059   3.417   5.547  16.195  0.3686 -0.5869 -1.9859
 5856TIP3    H239060   3.366   5.408  16.226 -1.0408  0.0969 -1.1442
 5857TIP3   OH239061   1.855   2.019  15.518  0.4604 -0.2547  0.2915
 5857TIP3    H139062   1.827   1.983  15.434 -1.1882  0.8568  0.3104
 5857TIP3    H239063   1.774   2.025  15.569  0.7857  2.4379  0.6463
 5858TIP3   OH239064   6.441   6.475  13.509  0.5602  0.0516 -0.3613
 5858TIP3    H139065   6.450   6.403  13.572 -1.2866 -0.6332 -0.8437
 5858TIP3    H239066   6.347   6.490  13.503  0.8309  1.4597 -1.4765
 5859TIP3   OH239067   2.734   5.697   5.461 -0.0807 -0.0407  0.0679
 5859TIP3    H139068   2.640   5.684   5.476 -0.1663  0.3720 -0.0771
 5859TIP3    H239069   2.765   5.613   5.427 -0.4143 -0.1550  0.0382
 5860TIP3   OH239070   0.269   6.420   2.796  0.1341 -0.7491  0.0567
 5860TIP3    H139071   0.353   6.423   2.750  0.5787  0.1858  0.8947
 5860TIP3    H239072   0.251   6.512   2.818 -1.1134 -0.9415 -0.1164
 5861TIP3   OH239073   1.348   0.404   1.849  0.1949  0.4166  0.3888
 5861TIP3    H139074   1.334   0.310   1.836  1.6106  0.2465 -0.0676
 5861TIP3    H239075   1.269   0.445   1.815  0.1191 -0.5460 -0.6487
 5862TIP3   OH239076   5.357   2.981  13.064 -0.6832  0.6539 -0.1989
 5862TIP3    H139077   5.272   2.980  13.021 -0.8232 -0.9576  0.0435
 5862TIP3    H239078   5.421   2.974  12.993 -0.6981  2.4145 -0.4231
 5863TIP3   OH239079   5.296   2.020   5.755 -0.3227 -0.4470 -0.3941
 5863TIP3    H139080   5.345   2.059   5.828 -1.8335 -0.8862  0.9205
 5863TIP3    H239081   5.338   1.936   5.740  1.4138  0.5636 -1.5996
 5864TIP3   OH239082   0.168   6.035   5.141  0.2139 -0.2026  0.4784
 5864TIP3    H139083   0.140   6.121   5.174 -0.2903 -0.1798 -0.0048
 5864TIP3    H239084   0.262   6.034   5.157  0.8226  1.6902 -2.2370
 5865TIP3   OH239085   1.257   4.250   5.722  0.4060 -0.6614  0.1849
 5865TIP3    H139086   1.282   4.288   5.637 -0.4461  0.2139  0.3114
 5865TIP3    H239087   1.340   4.222   5.761  0.9703  0.3417 -0.2659
 5866TIP3   OH239088   4.872   0.447  16.510 -0.1059  0.3406  0.4847
 5866TIP3    H139089   4.873   0.373  16.570  3.0037 -1.5052 -1.6070
 5866TIP3    H239090   4.943   0.504  16.540 -0.8181  1.2223  0.5606
 5867TIP3   OH239091   5.680   4.151  16.137 -0.1835 -0.5020  0.0943
 5867TIP3    H139092   5.724   4.166  16.221  0.9881  0.6411 -0.6813
 5867TIP3    H239093   5.719   4.069  16.104 -0.8097 -1.0747  0.7459
 5868TIP3   OH239094   6.502   2.541  11.577  0.2070 -0.2872  0.3986
 5868TIP3    H139095   6.410   2.544  11.551  0.2276 -0.9377  0.2400
 5868TIP3    H239096   6.537   2.464  11.534  1.2407  0.8256 -0.8518
 5869TIP3   OH239097   1.768   0.629  11.509  0.0677 -0.0534  0.0924
 5869TIP3    H139098   1.759   0.655  11.600  0.7562 -1.7495  0.6876
 5869TIP3    H239099   1.861   0.642  11.489 -0.2706  1.3177 -0.7290
 5870TIP3   OH239100   3.720   0.724   0.460  0.1089  0.3447  0.6731
 5870TIP3    H139101   3.759   0.745   0.375 -1.0110  0.4486  0.1691
 5870TIP3    H239102   3.727   0.629   0.466 -1.7886  0.0827 -0.5646
 5871TIP3   OH239103   6.084   2.976   3.145  0.5052 -0.1722 -0.6565
 5871TIP3    H139104   6.033   2.968   3.226 -0.5638  0.6261 -1.2320
 5871TIP3    H239105   6.019   2.976   3.075  1.1760  1.9355 -1.3584
 5872TIP3   OH239106   3.131   0.386   2.657  0.2026 -0.1113 -0.5817
 5872TIP3    H139107   3.044   0.372   2.621  0.1926 -0.4849 -0.4103
 5872TIP3    H239108   3.159   0.469   2.618  0.1282 -0.4211 -1.3206
 5873TIP3   OH239109   1.632   5.134   3.105  0.0999  0.0405  0.1438
 5873TIP3    H139110   1.650   5.162   3.195 -0.6833  1.6148 -0.1416
 5873TIP3    H239111   1.582   5.207   3.068  1.6430  0.0858 -2.0137
 5874TIP3   OH239112   2.776   2.720   6.515  0.7794 -0.1580 -0.2873
 5874TIP3    H139113   2.719   2.705   6.591  0.6396 -0.7251 -0.5037
 5874TIP3    H239114   2.812   2.808   6.530 -0.1071  0.1948 -0.1126
 5875TIP3   OH239115   5.809   2.944   1.569 -0.4428  0.1509  0.5705
 5875TIP3    H139116   5.747   2.896   1.514 -1.0033 -0.4874  1.7186
 5875TIP3    H239117   5.881   2.883   1.583 -0.3577  0.2659  0.6397
 5876TIP3   OH239118   6.615   4.925   5.878  0.1455 -0.0780 -0.5598
 5876TIP3    H139119   6.550   4.930   5.948  0.4267 -0.9065 -0.2303
 5876TIP3    H239120   6.696   4.898   5.921  0.5389  0.2510 -1.0770
 5877TIP3   OH239121   2.427   0.024  17.084 -0.0745  0.3081 -0.6087
 5877TIP3    H139122   2.416   0.010  17.179  0.1998 -1.0694 -0.7562
 5877TIP3    H239123   2.519   0.004  17.067  0.0161  1.1055 -1.0895
 5878TIP3   OH239124   3.835   0.876   4.714  0.1178 -0.2325  0.3504
 5878TIP3    H139125   3.792   0.908   4.635  0.9360  1.0691  0.3932
 5878TIP3    H239126   3.928   0.869   4.689  0.4286  0.4517  1.2498
 5879TIP3   OH239127   3.924   5.869   0.884  0.6282  0.3789 -0.2483
 5879TIP3    H139128   3.989   5.848   0.951 -1.6773 -0.8929  1.7566
 5879TIP3    H239129   3.930   5.796   0.822  1.2564  0.3853 -0.2011
 5880TIP3   OH239130   4.834   6.182   5.425  0.4174 -0.0415 -0.3611
 5880TIP3    H139131   4.898   6.177   5.354 -0.6902 -0.0624 -1.3924
 5880TIP3    H239132   4.885   6.166   5.504  1.7739  0.4698 -1.0957
 5881TIP3   OH239133   4.518   4.267  12.929  0.0805 -0.2322 -0.4795
 5881TIP3    H139134   4.561   4.344  12.892 -1.3086  0.4229 -0.7957
 5881TIP3    H239135   4.529   4.277  13.023  2.1084 -0.9961 -0.5863
 5882TIP3   OH239136   5.536   0.939   2.370  0.8580 -0.6102 -0.2996
 5882TIP3    H139137   5.629   0.956   2.352  0.9640 -0.3048  0.4852
 5882TIP3    H239138   5.537   0.869   2.436  0.6117  0.5883  1.0422
 5883TIP3   OH239139   1.199   5.636  11.321  0.2636  0.1499  0.2572
 5883TIP3    H139140   1.230   5.628  11.411  1.0859  0.7714  0.0442
 5883TIP3    H239141   1.217   5.550  11.282 -0.6893 -0.3367  0.8463
 5884TIP3   OH239142   3.914   2.425   3.352  0.2490 -0.0777  0.0211
 5884TIP3    H139143   3.910   2.441   3.258 -1.2734  0.6999  0.1793
 5884TIP3    H239144   4.006   2.436   3.375  0.5920  0.0315 -1.3221
 5885TIP3   OH239145   1.903   1.913   4.871  0.1255 -0.1672 -0.1816
 5885TIP3    H139146   1.817   1.903   4.830  0.1831  1.4824 -0.7730
 5885TIP3    H239147   1.944   1.985   4.823  1.0645  0.3686  1.3668
 5886TIP3   OH239148   5.711   6.091  10.905 -0.0471  0.5287 -0.1136
 5886TIP3    H139149   5.790   6.120  10.858  1.0416  0.5449  1.6142
 5886TIP3    H239150   5.718   6.133  10.991 -0.6857 -1.3763  0.9252
 5887TIP3   OH239151   4.044   1.129   0.699 -0.3046  0.7572  0.1197
 5887TIP3    H139152   4.009   1.047   0.665 -0.3354 -0.2960  2.5015
 5887TIP3    H239153   3.967   1.179   0.727 -0.2234  1.1235 -0.3014
 5888TIP3   OH239154   3.909   5.514  12.350 -1.0166 -0.2222 -0.1267
 5888TIP3    H139155   3.817   5.516  12.378 -0.8228 -1.2465  0.6088
 5888TIP3    H239156   3.920   5.596  12.301 -2.0716  0.3579  0.5593
 5889TIP3   OH239157   4.382   1.660  12.641 -0.3347  0.0778  1.3437
 5889TIP3    H139158   4.461   1.611  12.662  0.2744  0.1129 -0.6681
 5889TIP3    H239159   4.318   1.593  12.617 -1.0220  0.0397  3.0886
 5890TIP3   OH239160   1.356   2.173  10.877  0.5379  0.6283 -0.1028
 5890TIP3    H139161   1.324   2.142  10.792 -1.2708  2.2357 -0.0727
 5890TIP3    H239162   1.321   2.111  10.940 -0.0203  0.6794 -0.3544
 5891TIP3   OH239163   5.307   0.273  16.664 -0.5935  0.7684  0.1740
 5891TIP3    H139164   5.257   0.207  16.713 -1.5457  1.5989  0.3744
 5891TIP3    H239165   5.304   0.243  16.574  2.0813 -1.3493  0.6653
 5892TIP3   OH239166   4.069   3.893   5.391  0.6122 -0.4345  0.3016
 5892TIP3    H139167   4.069   3.831   5.463 -0.0919 -2.1248 -1.0879
 5892TIP3    H239168   4.004   3.859   5.330  1.7957  0.4439 -1.5399
 5893TIP3   OH239169   0.359   4.430  14.731  0.0568 -0.3983  0.0496
 5893TIP3    H139170   0.273   4.467  14.750  0.1706  0.6147 -1.3509
 5893TIP3    H239171   0.421   4.496  14.763  0.3907 -1.5004  1.8645
 5894TIP3   OH239172   1.923   2.310  11.923  0.2774 -0.4781  0.4579
 5894TIP3    H139173   1.861   2.284  11.855 -0.7013 -0.8559  1.4663
 5894TIP3    H239174   1.941   2.403  11.905  0.7398 -0.8008 -0.8293
 5895TIP3   OH239175   5.095   2.548  16.190 -0.0373 -0.2565  0.3560
 5895TIP3    H139176   5.147   2.521  16.265 -0.1050  0.0673  0.5210
 5895TIP3    H239177   5.159   2.557  16.119  0.1032 -0.0691  0.5043
 5896TIP3   OH239178   1.831   6.285  13.592  0.0202 -0.2339  0.2287
 5896TIP3    H139179   1.891   6.341  13.640 -0.1991 -0.3435  0.6352
 5896TIP3    H239180   1.837   6.316  13.501  1.6439 -1.0814  0.0099
 5897TIP3   OH239181   5.414   6.682  11.084  0.4714  0.2678 -0.2644
 5897TIP3    H139182   5.468   6.647  11.013 -0.3417 -2.5471  0.3599
 5897TIP3    H239183   5.370   6.758  11.046  2.4942  0.7850 -1.7079
 5898TIP3   OH239184   6.621   4.150   2.442 -0.5804 -0.1199 -0.0467
 5898TIP3    H139185   6.683   4.118   2.507 -1.0683 -1.7838 -0.3419
 5898TIP3    H239186   6.676   4.183   2.371 -0.0029  3.2500  1.7879
 5899TIP3   OH239187   4.831   4.970  15.204 -0.3309  0.2674 -0.6912
 5899TIP3    H139188   4.752   4.927  15.238 -0.1116  1.0429  0.8570
 5899TIP3    H239189   4.864   5.022  15.277  0.8784  1.0125 -1.7275
 5900TIP3   OH239190   6.386   0.033   0.817 -1.0277  0.2036  0.0170
 5900TIP3    H139191   6.363  -0.030   0.886 -2.8133  1.5135  0.6991
 5900TIP3    H239192   6.342  -0.001   0.739 -0.4695 -0.3310 -0.0793
 5901TIP3   OH239193   3.638   4.756   3.493  0.1668 -0.3951 -0.4877
 5901TIP3    H139194   3.598   4.822   3.436  0.0442  0.3121  0.4034
 5901TIP3    H239195   3.567   4.697   3.514  0.0787 -0.3321 -0.6031
 5902TIP3   OH239196   4.299   2.834  16.778 -0.2566 -0.4642  0.2125
 5902TIP3    H139197   4.247   2.852  16.855 -0.3576  0.1792  0.0013
 5902TIP3    H239198   4.265   2.894  16.711  0.7513 -0.0184  0.0765
 5903TIP3   OH239199   4.192   0.328   6.335  0.0761  0.4388 -0.0689
 5903TIP3    H139200   4.250   0.384   6.387  0.4448 -0.5007  0.5537
 5903TIP3    H239201   4.153   0.388   6.271  0.7822  1.3268  0.2987
 5904TIP3   OH239202   2.616   6.792  16.590 -0.1771  0.4140  0.0768
 5904TIP3    H139203   2.655   6.817  16.506  1.4666 -0.7608  0.4414
 5904TIP3    H239204   2.678   6.729  16.627 -2.1040 -0.9941  1.0424
 5905TIP3   OH239205   4.557   3.340  11.691 -0.4349  0.1155  0.2875
 5905TIP3    H139206   4.541   3.378  11.605  0.7213  0.3860  0.1711
 5905TIP3    H239207   4.486   3.278  11.703 -0.4816 -0.1101 -0.9755
 5906TIP3   OH239208   0.110   2.078   4.805 -0.5396  0.0417 -0.3403
 5906TIP3    H139209   0.033   2.022   4.812 -0.0972 -0.4045  1.3899
 5906TIP3    H239210   0.168   2.032   4.745 -0.8855 -0.4964 -0.2638
 5907TIP3   OH239211   4.448   1.929   6.379  0.3958 -0.0474 -0.0983
 5907TIP3    H139212   4.449   1.870   6.454  0.4411  0.7955  0.5761
 5907TIP3    H239213   4.540   1.949   6.363  0.2966  0.9957  0.6070
 5908TIP3   OH239214   4.944   0.003   4.165 -0.6853  0.1934  0.2854
 5908TIP3    H139215   4.948   0.097   4.185  0.3272  0.1247  0.4681
 5908TIP3    H239216   4.893  -0.035   4.236 -0.4588  0.5000  0.6138
 5909TIP3   OH239217   1.716   2.295   0.107 -0.2246  0.5433  0.0700
 5909TIP3    H139218   1.766   2.355   0.163  1.6290  0.2655 -1.2109
 5909TIP3    H239219   1.642   2.348   0.077  0.6792  1.8177 -0.0222
 5910TIP3   OH239220   5.552   0.273   1.353  0.2531 -0.0728  0.4831
 5910TIP3    H139221   5.566   0.264   1.447 -1.5293 -0.0094  0.8020
 5910TIP3    H239222   5.466   0.315   1.347  0.0996 -0.5894 -1.1841
 5911TIP3   OH239223   2.701   1.963  14.200  0.2444 -0.2111  0.3590
 5911TIP3    H139224   2.678   1.994  14.288 -0.7369  0.6814 -0.2003
 5911TIP3    H239225   2.797   1.962  14.200  0.2777 -1.3149  1.8008
 5912TIP3   OH239226   1.405   5.329  10.799 -0.0005 -0.3699  0.5374
 5912TIP3    H139227   1.358   5.407  10.772  2.8898  0.8061 -1.5944
 5912TIP3    H239228   1.461   5.358  10.871  0.6208 -0.6117  0.1586
 5913TIP3   OH239229   3.099   0.764   0.870 -0.8067  0.4722  0.5566
 5913TIP3    H139230   3.149   0.700   0.921 -1.1949  1.1000  1.7878
 5913TIP3    H239231   3.071   0.717   0.792  1.1854 -0.0645  0.1207
 5914TIP3   OH239232   4.507   5.395  15.121  0.1662  0.1235  0.5432
 5914TIP3    H139233   4.482   5.433  15.205 -0.0578  0.7107  0.2171
 5914TIP3    H239234   4.498   5.301  15.134 -0.5577  0.2411  0.9616
 5915TIP3   OH239235   0.791   6.125   3.032  0.0081  0.4485  0.7678
 5915TIP3    H139236   0.765   6.036   3.057  0.0448 -0.1248 -1.1203
 5915TIP3    H239237   0.720   6.181   3.063  0.2652 -0.1262  2.5183
 5916TIP3   OH239238   3.646   0.996  16.106  0.1457 -0.7265  0.1214
 5916TIP3    H139239   3.669   1.052  16.031  1.7562 -0.7152  0.5901
 5916TIP3    H239240   3.580   0.936  16.072 -0.8846  0.7963 -0.6683
 5917TIP3   OH239241   1.198   2.226  17.189 -0.4156 -0.0182  0.5111
 5917TIP3    H139242   1.195   2.138  17.225  2.2074 -1.4089 -2.2496
 5917TIP3    H239243   1.289   2.252  17.197 -0.8721  1.9077 -0.0004
 5918TIP3   OH239244   5.194   2.265  16.057 -0.0322  0.2418 -0.0246
 5918TIP3    H139245   5.123   2.326  16.033  0.3863  1.6955  2.1509
 5918TIP3    H239246   5.188   2.196  15.992 -1.4053  1.9297 -1.8375
 5919TIP3   OH239247   5.138   5.199  16.177  0.5414 -0.2227  0.2210
 5919TIP3    H139248   5.181   5.116  16.154 -1.6232 -1.0476 -1.1537
 5919TIP3    H239249   5.089   5.180  16.257  0.6270 -0.0422  0.3177
 5920TIP3   OH239250   2.320   4.588  16.956 -0.9023  0.5086 -0.1037
 5920TIP3    H139251   2.279   4.535  16.888  0.1307 -0.0799 -0.2971
 5920TIP3    H239252   2.254   4.597  17.024 -1.2656 -0.6141 -0.2957
 5921TIP3   OH239253   1.759   0.933   3.779 -0.3885 -0.2906 -0.1674
 5921TIP3    H139254   1.716   0.996   3.722 -0.3125 -0.3546 -0.2972
 5921TIP3    H239255   1.803   0.986   3.845  1.4026 -0.0712 -1.4554
 5922TIP3   OH239256   1.596   4.241  11.329 -0.1187 -0.1447  0.3898
 5922TIP3    H139257   1.594   4.283  11.415 -0.1620  0.1626  0.2377
 5922TIP3    H239258   1.597   4.313  11.266 -1.8130 -0.3472  0.0772
 5923TIP3   OH239259   0.615   3.162  16.064  0.4001  0.4313 -0.3529
 5923TIP3    H139260   0.701   3.173  16.105  0.4328 -0.6680 -0.0794
 5923TIP3    H239261   0.558   3.222  16.111  0.4321 -0.8140  1.3636
 5924TIP3   OH239262   0.145   5.775  15.352 -0.3194 -0.1502 -0.1136
 5924TIP3    H139263   0.091   5.831  15.408 -1.9468 -0.6424 -1.1077
 5924TIP3    H239264   0.210   5.738  15.410 -0.2872  1.4117  0.9048
 5925TIP3   OH239265   2.315   3.849  15.125  0.1773 -0.7597  0.2069
 5925TIP3    H139266   2.257   3.885  15.193  0.6844  1.0566 -0.2788
 5925TIP3    H239267   2.261   3.849  15.046  0.4885 -0.0885 -0.0111
 5926TIP3   OH239268   0.682   4.672   4.807  0.0631  0.8156  0.5213
 5926TIP3    H139269   0.730   4.754   4.797 -0.5814  1.2263  0.7091
 5926TIP3    H239270   0.619   4.673   4.734  0.9429 -0.1521 -0.2753
 5927TIP3   OH239271   0.457   6.532  14.333 -0.0223  0.3120  0.3473
 5927TIP3    H139272   0.524   6.541  14.401 -1.2831  2.1085  1.4259
 5927TIP3    H239273   0.383   6.491  14.377  0.5071 -2.4502 -1.0383
 5928TIP3   OH239274   1.727   5.805  10.440  0.3566 -0.2137 -0.3784
 5928TIP3    H139275   1.747   5.876  10.500 -0.4744 -0.0660 -0.2607
 5928TIP3    H239276   1.674   5.845  10.371  0.6053 -0.5449 -0.7675
 5929TIP3   OH239277   3.790   4.193   1.584  0.0247 -0.2155 -0.5368
 5929TIP3    H139278   3.869   4.231   1.623 -1.0354  1.9355 -0.3522
 5929TIP3    H239279   3.725   4.196   1.654 -1.5385  2.5449 -1.9320
 5930TIP3   OH239280   2.791   6.458   0.335 -0.3759 -0.0605  0.7752
 5930TIP3    H139281   2.797   6.408   0.416 -1.1646 -0.1547  0.7748
 5930TIP3    H239282   2.832   6.542   0.357  1.1768 -0.7613  0.7037
 5931TIP3   OH239283   0.031   1.543   1.722  0.0967 -0.2056 -0.0457
 5931TIP3    H139284   0.082   1.497   1.790 -0.6033 -0.0496  0.5957
 5931TIP3    H239285   0.080   1.623   1.706  0.3291 -0.2952  0.1978
 5932TIP3   OH239286   4.448   1.621  14.094 -0.4099 -0.2424  0.6025
 5932TIP3    H139287   4.374   1.605  14.034 -1.0674 -0.2639  1.3956
 5932TIP3    H239288   4.431   1.563  14.168  0.7628 -0.7146  0.5104
 5933TIP3   OH239289   0.820   2.561   2.462 -0.2123 -0.2644  0.1409
 5933TIP3    H139290   0.899   2.615   2.459  0.3425 -1.0767 -0.3459
 5933TIP3    H239291   0.843   2.488   2.519 -0.1204 -1.2295 -1.1019
 5934TIP3   OH239292   1.998   5.013  16.421  0.1710  0.0035  0.4852
 5934TIP3    H139293   2.015   5.015  16.515  0.6602 -2.2076  0.5117
 5934TIP3    H239294   2.058   4.947  16.387  0.5133  1.2597 -1.5233
 5935TIP3   OH239295   6.189   3.549   0.895  0.3067 -0.2057 -1.1284
 5935TIP3    H139296   6.143   3.632   0.909 -0.0629 -0.3105 -1.6625
 5935TIP3    H239297   6.132   3.500   0.836 -0.0554 -1.3434  0.1427
 5936TIP3   OH239298   5.182   1.549  12.729  0.0124 -0.2135  0.2842
 5936TIP3    H139299   5.198   1.461  12.764  2.5557 -0.0757 -0.3717
 5936TIP3    H239300   5.135   1.594  12.799  0.8484 -1.3433  1.6295
 5937TIP3   OH239301   1.098   4.750   0.320  0.4046 -0.1378  0.3197
 5937TIP3    H139302   1.188   4.781   0.319  0.4905 -0.3917 -0.1819
 5937TIP3    H239303   1.096   4.680   0.256 -0.4288  0.6824 -0.5938
 5938TIP3   OH239304   2.151   3.870  16.630 -0.0234 -0.6849 -0.4704
 5938TIP3    H139305   2.093   3.889  16.557 -0.1103  0.8075 -0.0343
 5938TIP3    H239306   2.121   3.785  16.662 -1.6579 -0.1785 -0.5592
 5939TIP3   OH239307   0.533   0.633   3.087  0.1198 -0.2333  0.0346
 5939TIP3    H139308   0.461   0.663   3.032 -0.2283 -0.5282  0.3262
 5939TIP3    H239309   0.561   0.711   3.134  0.5178  0.0517 -0.6669
 5940TIP3   OH239310   2.235   3.572  14.794 -0.2393  0.4235  0.4662
 5940TIP3    H139311   2.215   3.662  14.818 -0.0011  0.9011 -1.0015
 5940TIP3    H239312   2.241   3.525  14.877 -0.6658  1.6927  1.2368
 5941TIP3   OH239313   4.983   6.001   4.337  0.6081 -0.8354 -0.2737
 5941TIP3    H139314   5.048   5.936   4.363  0.6559 -0.4338  0.6455
 5941TIP3    H239315   4.910   5.988   4.397  0.2947 -0.5512 -0.5859
 5942TIP3   OH239316   0.209   5.151   2.683 -0.1076 -0.0868 -0.3143
 5942TIP3    H139317   0.216   5.231   2.632  1.0325  0.6199  0.8862
 5942TIP3    H239318   0.123   5.155   2.724 -0.6020 -0.1553 -1.3346
 5943TIP3   OH239319   2.826   2.888   4.549  0.1379  0.8481  0.2444
 5943TIP3    H139320   2.779   2.808   4.527 -1.8188  1.6050  1.4308
 5943TIP3    H239321   2.908   2.857   4.588 -0.0034 -0.5378 -0.4835
 5944TIP3   OH239322   0.516   3.195   3.280 -0.4542 -0.8801 -0.4496
 5944TIP3    H139323   0.597   3.171   3.325 -0.8234 -0.5058  0.4377
 5944TIP3    H239324   0.508   3.290   3.294 -2.0109 -1.1891  1.1379
 5945TIP3   OH239325   4.368   0.533  12.421 -0.0577 -0.1663  0.2238
 5945TIP3    H139326   4.345   0.474  12.348 -1.3481  1.3584 -0.6731
 5945TIP3    H239327   4.350   0.481  12.499  2.9678 -2.4648 -0.4175
 5946TIP3   OH239328   1.246   0.773  12.213 -0.2486  0.3606  0.2250
 5946TIP3    H139329   1.222   0.682  12.229 -2.0622  0.8136  0.2692
 5946TIP3    H239330   1.332   0.782  12.254  0.5326 -1.6226 -0.8230
 5947TIP3   OH239331   2.161   3.717  11.988 -0.9149 -0.2814 -0.7065
 5947TIP3    H139332   2.174   3.663  12.065 -0.1118 -1.0580 -1.3729
 5947TIP3    H239333   2.202   3.668  11.916  2.2233  2.3115 -0.9334
 5948TIP3   OH239334   5.882   0.531  11.327  0.2067  0.3445  0.4781
 5948TIP3    H139335   5.961   0.480  11.346 -0.4550 -1.5602 -1.4906
 5948TIP3    H239336   5.886   0.545  11.233 -1.5871  0.6009  0.4206
 5949TIP3   OH239337   4.155   5.569   0.017  0.3514 -0.1711  0.2148
 5949TIP3    H139338   4.116   5.582  -0.069  0.0215  0.2743  0.4302
 5949TIP3    H239339   4.125   5.482   0.044 -0.1577 -0.0008  0.2049
 5950TIP3   OH239340   6.176   6.527   6.292  0.1634  0.4766  0.4289
 5950TIP3    H139341   6.100   6.560   6.339  0.4443 -0.6318  1.7102
 5950TIP3    H239342   6.169   6.432   6.297  1.0438  0.3429 -0.4203
 5951TIP3   OH239343   2.592   5.242   3.528  0.0976 -0.3812  0.0759
 5951TIP3    H139344   2.645   5.293   3.589 -0.3440  1.0458 -0.6944
 5951TIP3    H239345   2.504   5.246   3.564 -0.1838  0.5562 -0.6806
 5952TIP3   OH239346   2.958   0.202  10.872  0.2407 -0.2128  0.4283
 5952TIP3    H139347   3.046   0.228  10.844  1.2126 -1.4223  2.1309
 5952TIP3    H239348   2.971   0.165  10.960 -2.0981  0.3076  1.0650
 5953TIP3   OH239349   2.785   2.296  11.725  0.2298  0.6565  0.2301
 5953TIP3    H139350   2.702   2.266  11.689  1.6141 -1.6057 -1.2927
 5953TIP3    H239351   2.762   2.332  11.811 -2.1735 -1.1056  0.4261
 5954TIP3   OH239352   3.099   4.172   4.354 -0.3037 -0.0324  0.2834
 5954TIP3    H139353   3.016   4.126   4.363 -1.0726  1.4802  1.4671
 5954TIP3    H239354   3.102   4.201   4.263 -1.0187 -0.2212  0.1977
 5955TIP3   OH239355   6.342   0.037   1.448  0.3674  0.1120 -0.5788
 5955TIP3    H139356   6.387  -0.047   1.445  2.1277  1.0000 -0.0510
 5955TIP3    H239357   6.385   0.090   1.381 -2.1550 -0.0153 -2.4571
 5956TIP3   OH239358   4.882   5.005   4.675  0.6067  0.0063 -0.0812
 5956TIP3    H139359   4.947   4.984   4.743  0.0747  1.6210  0.9965
 5956TIP3    H239360   4.920   4.970   4.594  1.5852 -1.3788  0.9129
 5957TIP3   OH239361   1.585   5.485   5.732 -0.4344  0.3472  0.3026
 5957TIP3    H139362   1.633   5.417   5.781 -0.0895  0.4299  0.0856
 5957TIP3    H239363   1.528   5.436   5.673  0.7427  0.2100 -0.7793
 5958TIP3   OH239364   0.535   1.884   0.827  0.0598  0.4653 -0.1089
 5958TIP3    H139365   0.503   1.925   0.746  0.6262  2.6788  0.7364
 5958TIP3    H239366   0.630   1.886   0.819  0.1430 -1.8920 -0.5591
 5959TIP3   OH239367   4.392   2.375   4.991 -0.4232  0.3732 -0.2598
 5959TIP3    H139368   4.315   2.327   4.958 -0.7414  0.7419 -0.0595
 5959TIP3    H239369   4.373   2.467   4.973  0.4156  0.3951 -1.1016
 5960TIP3   OH239370   6.076   0.238  14.113 -0.7668  0.0543 -0.1459
 5960TIP3    H139371   5.984   0.214  14.125 -0.8131  0.3480  0.1000
 5960TIP3    H239372   6.122   0.192  14.183 -0.3908 -2.0185 -1.7019
 5961TIP3   OH239373   5.141   5.257  15.763 -0.1333  0.0012  0.8806
 5961TIP3    H139374   5.086   5.290  15.834  1.2388 -2.3062  3.1935
 5961TIP3    H239375   5.098   5.176  15.736  0.4325 -0.1646  0.4785
 5962TIP3   OH239376   5.075   3.192  14.385  0.0247 -0.4713  0.5310
 5962TIP3    H139377   5.110   3.277  14.358 -1.0641 -0.9041 -2.6885
 5962TIP3    H239378   5.150   3.134  14.383  0.1719 -0.2864 -0.9802
 5963TIP3   OH239379   3.597   6.249  14.201  0.9185  1.0491  0.0325
 5963TIP3    H139380   3.667   6.184  14.213  0.9852  1.4110  1.7991
 5963TIP3    H239381   3.522   6.213  14.249 -0.9118 -0.3490 -3.4565
 5964TIP3   OH239382   0.317   5.228   0.598  0.2004 -0.2345 -0.4797
 5964TIP3    H139383   0.333   5.315   0.636  0.8875  0.1099 -1.5204
 5964TIP3    H239384   0.244   5.193   0.649 -0.5246  1.2241 -0.4546
 5965TIP3   OH239385   4.999   5.211   3.982 -0.1505 -0.5613  0.1059
 5965TIP3    H139386   5.076   5.198   4.036 -1.4154 -0.3971  2.0380
 5965TIP3    H239387   4.983   5.305   3.986 -1.2472 -0.7605  0.9312
 5966TIP3   OH239388   5.179   0.309   3.480 -0.2315 -0.6023  0.2258
 5966TIP3    H139389   5.138   0.391   3.452  0.7082 -1.0008 -2.7082
 5966TIP3    H239390   5.105   0.254   3.508 -1.6148 -0.5482 -2.8458
 5967TIP3   OH239391   6.374   5.625   3.618  0.3405 -0.5775 -0.0504
 5967TIP3    H139392   6.466   5.611   3.638  0.6573 -0.6072 -1.4095
 5967TIP3    H239393   6.354   5.561   3.549 -0.1240  0.7550 -1.2169
 5968TIP3   OH239394   4.275   1.988  14.124 -0.4499  0.6953  0.2604
 5968TIP3    H139395   4.277   2.078  14.093 -0.4539 -0.0605 -2.1217
 5968TIP3    H239396   4.206   1.946  14.072 -0.8842 -0.5460  1.7582
 5969TIP3   OH239397   2.673   4.509  13.495  0.3002 -0.1165 -0.2280
 5969TIP3    H139398   2.741   4.495  13.561 -0.2788 -0.2274  0.3462
 5969TIP3    H239399   2.635   4.594  13.517  0.4065  0.0565 -0.6930
 5970TIP3   OH239400   0.411   1.669   2.929 -0.5490  0.7189 -0.8566
 5970TIP3    H139401   0.363   1.602   2.978 -1.4089 -0.3934 -3.0594
 5970TIP3    H239402   0.388   1.752   2.971 -0.0235 -0.2818  1.5067
 5971TIP3   OH239403   5.407   2.057  11.388  0.0827  0.1555 -0.1010
 5971TIP3    H139404   5.329   2.032  11.337 -0.7647  0.0190  1.2167
 5971TIP3    H239405   5.467   1.984  11.378  0.5705  0.7739 -2.1120
 5972TIP3   OH239406   3.613   0.007  16.820 -0.3624  0.1836  0.4502
 5972TIP3    H139407   3.533  -0.023  16.864 -0.6607  1.0950  0.5322
 5972TIP3    H239408   3.584   0.030  16.732 -0.1333  0.2381  0.3891
 5973TIP3   OH239409   3.989   5.568  13.766 -0.5116  0.4129 -0.3695
 5973TIP3    H139410   4.067   5.620  13.747  0.1395 -0.9426 -1.5784
 5973TIP3    H239411   3.944   5.561  13.681 -1.6980  0.7398  0.2061
 5974TIP3   OH239412   6.190   4.329   6.282 -0.2635 -0.8095  0.2385
 5974TIP3    H139413   6.248   4.256   6.304  0.5133 -0.0513  0.7675
 5974TIP3    H239414   6.125   4.331   6.352 -0.0089 -0.6997  0.4700
 5975TIP3   OH239415   2.245   3.658   5.471  0.6040 -0.0751 -0.2987
 5975TIP3    H139416   2.190   3.666   5.393  0.5957 -1.2406 -0.4334
 5975TIP3    H239417   2.182   3.652   5.543  0.5820  3.4731  0.1759
 5976TIP3   OH239418   3.491   3.164   3.645 -0.2060  0.4263 -0.4702
 5976TIP3    H139419   3.496   3.070   3.624 -0.9809  0.0427  0.9006
 5976TIP3    H239420   3.452   3.204   3.568  0.5904 -0.2968 -1.2744
 5977TIP3   OH239421   6.741   6.305  15.317  0.4640  0.2691  0.6219
 5977TIP3    H139422   6.778   6.385  15.355  0.0906  0.9584 -0.4065
 5977TIP3    H239423   6.688   6.268  15.387  1.0001  0.6706  1.2627
 5978TIP3   OH239424   0.277   0.601   4.127  0.0266 -0.1269  0.6567
 5978TIP3    H139425   0.283   0.575   4.035 -0.3907 -0.8893  0.8340
 5978TIP3    H239426   0.188   0.578   4.153 -0.1136  0.8018  1.0500
 5979TIP3   OH239427   1.478   2.536  15.620 -0.0668  0.1619 -0.2249
 5979TIP3    H139428   1.447   2.626  15.627 -1.0363  0.1129 -2.6842
 5979TIP3    H239429   1.406   2.483  15.656 -1.7185  0.2158 -3.1293
 5980TIP3   OH239430   5.728   4.950  13.406 -0.1311 -0.5405 -0.4608
 5980TIP3    H139431   5.811   4.982  13.369  1.4591 -3.1970  0.5232
 5980TIP3    H239432   5.750   4.926  13.496 -3.3919  3.8367  1.8481
 5981TIP3   OH239433   6.213   0.913  17.169 -0.2866  0.1971 -0.5542
 5981TIP3    H139434   6.257   0.942  17.090  0.3564 -0.2871 -0.3800
 5981TIP3    H239435   6.251   0.966  17.239 -1.8567  1.6342 -0.7222
 5982TIP3   OH239436   5.416   4.010  11.704 -0.4456 -0.8067  0.2233
 5982TIP3    H139437   5.407   4.089  11.757  0.1866 -1.6051  1.5562
 5982TIP3    H239438   5.457   4.040  11.623 -2.3174  0.6030 -0.2774
 5983TIP3   OH239439   0.002   1.209  16.525 -0.2029 -0.5451 -0.1540
 5983TIP3    H139440  -0.070   1.157  16.490 -1.2041 -0.4483  1.6505
 5983TIP3    H239441   0.031   1.162  16.603 -0.5753  1.0966  1.0429
 5984TIP3   OH239442   2.723   3.713  14.054  0.2927 -0.3444  0.0393
 5984TIP3    H139443   2.641   3.758  14.077  0.4124 -0.0999 -0.0044
 5984TIP3    H239444   2.767   3.774  13.995  0.4472 -0.5330 -0.0401
 5985TIP3   OH239445   3.974   5.174   1.929  0.3551 -0.4143 -0.0427
 5985TIP3    H139446   3.881   5.196   1.936  0.3822 -0.5950  1.1940
 5985TIP3    H239447   3.999   5.200   1.841 -0.3899  1.5203  0.2783
 5986TIP3   OH239448   6.114   1.967   2.378 -0.2481 -0.0587 -0.1781
 5986TIP3    H139449   6.024   1.999   2.380 -1.4115 -3.0047 -0.6888
 5986TIP3    H239450   6.130   1.947   2.286  1.6259  1.9955 -0.3909
 5987TIP3   OH239451   3.630   1.394  14.138 -0.2547 -0.1223  0.2462
 5987TIP3    H139452   3.615   1.485  14.114 -0.8842 -0.4953 -0.8256
 5987TIP3    H239453   3.723   1.380  14.123 -0.1282  0.3755  0.5378
 5988TIP3   OH239454   6.601   1.269  14.254 -0.4613 -0.1437 -0.0155
 5988TIP3    H139455   6.622   1.363  14.251  1.0048 -0.4619 -0.6599
 5988TIP3    H239456   6.511   1.266  14.284  0.0994  1.3964  2.0500
 5989TIP3   OH239457   5.088   5.301  14.568  0.0873 -0.1151 -0.1514
 5989TIP3    H139458   5.153   5.356  14.612  1.2461  2.1520 -4.2066
 5989TIP3    H239459   5.007   5.314  14.618  1.5734  0.9222  2.1625
 5990TIP3   OH239460   2.933   5.658   4.054  0.1163  0.4395 -0.0895
 5990TIP3    H139461   2.927   5.581   3.998  0.2383 -0.6928  1.3899
 5990TIP3    H239462   2.997   5.714   4.010  1.8049 -1.3554 -0.0466
 5991TIP3   OH239463   2.987   0.280  13.449 -0.1375 -0.2353  0.3222
 5991TIP3    H139464   3.062   0.236  13.489  0.4209  1.0678  0.7595
 5991TIP3    H239465   3.025   0.340  13.386 -0.8777 -0.3130 -0.2066
 5992TIP3   OH239466   2.806   1.829  11.864 -0.1173 -0.3263 -0.2547
 5992TIP3    H139467   2.833   1.786  11.783  2.1153 -0.1280  0.3043
 5992TIP3    H239468   2.780   1.758  11.922 -0.1599 -0.6072 -0.6165
 5993TIP3   OH239469   1.153   1.505  11.853  0.0452 -0.1579 -0.5650
 5993TIP3    H139470   1.112   1.434  11.804  0.9992  0.2147 -1.9943
 5993TIP3    H239471   1.240   1.471  11.875  0.0142  0.0816 -0.0571
 5994TIP3   OH239472   2.363   0.805   0.413  0.2009 -0.3766 -0.0183
 5994TIP3    H139473   2.299   0.873   0.393 -0.0286 -1.3148 -2.9270
 5994TIP3    H239474   2.323   0.753   0.482 -0.2527  1.5150  1.2046
 5995TIP3   OH239475   4.444   3.123  17.069 -0.0174  0.0462  0.0094
 5995TIP3    H139476   4.509   3.177  17.023  1.5796 -0.9088  1.0609
 5995TIP3    H239477   4.362   3.143  17.025  0.8083  2.0271 -0.7584
 5996TIP3   OH239478   2.676   5.031  14.968  0.2234 -0.4681 -0.8946
 5996TIP3    H139479   2.759   5.053  14.926  1.1249 -2.9467 -0.6080
 5996TIP3    H239480   2.690   5.048  15.061  0.0229  0.1492 -0.9764
 5997TIP3   OH239481   4.835   3.646  17.020  0.4804 -0.2270 -0.1757
 5997TIP3    H139482   4.838   3.634  17.115  0.1633  0.7459 -0.0324
 5997TIP3    H239483   4.927   3.645  16.994  0.5696 -0.5334  0.1336
 5998TIP3   OH239484   2.416   0.188   5.449 -0.6778  0.3968  0.2528
 5998TIP3    H139485   2.321   0.196   5.451 -0.7239  0.8518 -1.7160
 5998TIP3    H239486   2.441   0.224   5.364  1.1202 -1.1474  0.0655
 5999TIP3   OH239487   0.723   4.542  15.811 -0.4346  0.1520 -0.2530
 5999TIP3    H139488   0.690   4.472  15.755 -0.5205 -0.0325  0.0216
 5999TIP3    H239489   0.672   4.534  15.892  0.6993 -0.5382  0.4275
 6000TIP3   OH239490   2.322   5.817   6.060  0.1743 -0.3234 -0.7579
 6000TIP3    H139491   2.398   5.826   6.003  1.6179  1.7142  1.3010
 6000TIP3    H239492   2.351   5.757   6.129 -0.2181  0.1169 -0.2001
 6001TIP3   OH239493   2.124   3.770   3.259 -0.6604 -0.2084  0.0007
 6001TIP3    H139494   2.119   3.748   3.352 -0.2518  0.4136  0.1758
 6001TIP3    H239495   2.033   3.784   3.233 -0.6576  1.2124  0.7069
 6002TIP3   OH239496   0.851   3.480  15.875  0.0563  0.1842 -0.1091
 6002TIP3    H139497   0.889   3.397  15.902  1.8549  0.9966 -0.0037
 6002TIP3    H239498   0.926   3.535  15.853 -1.1046  1.6528 -0.5758
 6003TIP3   OH239499   2.173   1.697  13.782 -0.5560  0.2309  0.0457
 6003TIP3    H139500   2.176   1.785  13.819 -0.1673  0.1774  0.1397
 6003TIP3    H239501   2.108   1.651  13.835 -1.1821  0.6222 -0.3590
 6004TIP3   OH239502   0.293   6.610  15.771  0.0813  0.3846 -0.2884
 6004TIP3    H139503   0.217   6.638  15.720 -1.4530 -1.8421  0.6294
 6004TIP3    H239504   0.259   6.599  15.860  1.4308 -0.8243  0.1126
 6005TIP3   OH239505   5.345   5.275   0.022 -0.2007 -0.2312  0.0161
 6005TIP3    H139506   5.330   5.186  -0.009  0.3349 -0.4821  0.4710
 6005TIP3    H239507   5.392   5.265   0.105 -0.3612  0.4669  0.2036
 6006TIP3   OH239508   6.707   0.323   1.261 -0.6384 -0.0505 -0.2275
 6006TIP3    H139509   6.794   0.286   1.276  0.0445  1.3580 -0.4906
 6006TIP3    H239510   6.716   0.375   1.181 -1.6611  0.2989 -0.1348
 6007TIP3   OH239511   0.766   0.442   4.589 -0.0653  0.1028 -0.3034
 6007TIP3    H139512   0.828   0.461   4.659 -1.9301  0.2115  1.3975
 6007TIP3    H239513   0.739   0.352   4.604 -0.3925  0.0838 -0.9543
 6008TIP3   OH239514   4.315   5.835  11.271  0.5694 -0.2631 -0.3008
 6008TIP3    H139515   4.244   5.774  11.289  0.9681 -0.2980  1.3245
 6008TIP3    H239516   4.271   5.918  11.254  0.0907 -0.6116 -0.7834
 6009TIP3   OH239517   4.461   3.335  12.295  0.1464  0.2864 -0.2032
 6009TIP3    H139518   4.485   3.351  12.204 -1.7860 -0.3780 -0.8938
 6009TIP3    H239519   4.497   3.248  12.315 -1.8218 -0.8743 -1.3441
 6010TIP3   OH239520   5.699   0.366   4.907 -0.4920 -0.3604 -0.3398
 6010TIP3    H139521   5.675   0.333   4.993 -0.8978  0.1935 -0.2323
 6010TIP3    H239522   5.723   0.288   4.857  2.3312 -0.5035  1.0378
 6011TIP3   OH239523   1.958   4.553  14.912  0.0960 -0.1177 -0.3789
 6011TIP3    H139524   2.009   4.591  14.840 -0.2158 -0.5422 -0.8308
 6011TIP3    H239525   1.922   4.628  14.959  0.8996  0.1837 -0.2282
 6012TIP3   OH239526   6.432   3.519  14.532 -0.3979 -0.7176 -0.0798
 6012TIP3    H139527   6.337   3.527  14.545 -0.5406 -2.0663 -0.0743
 6012TIP3    H239528   6.464   3.484  14.615 -0.1731 -1.9868 -0.6802
 6013TIP3   OH239529   0.427   3.140   6.275  0.4152  0.4476  0.0945
 6013TIP3    H139530   0.389   3.109   6.357  0.8627  1.1412  0.5732
 6013TIP3    H239531   0.439   3.061   6.223 -5.0317  0.3744 -1.6374
 6014TIP3   OH239532   4.151   6.214  14.706 -0.4923 -0.3203  0.4324
 6014TIP3    H139533   4.166   6.123  14.734  1.7804 -0.0848  0.1391
 6014TIP3    H239534   4.186   6.217  14.617  0.4296  1.0932  0.8153
 6015TIP3   OH239535   1.549   3.917  12.161 -0.9184 -0.1672  0.7839
 6015TIP3    H139536   1.550   3.962  12.077 -0.0767 -0.5235  0.5916
 6015TIP3    H239537   1.494   3.971  12.217 -0.3883  0.7956  0.3950
 6016TIP3   OH239538   3.120   4.724  16.108  0.1010 -0.3025  0.0303
 6016TIP3    H139539   3.081   4.802  16.148 -1.0799 -0.5890 -0.5003
 6016TIP3    H239540   3.205   4.716  16.150 -0.8210 -0.2463  2.0525
 6017TIP3   OH239541   2.914   4.266   4.838 -0.0411 -0.6526  0.0055
 6017TIP3    H139542   2.822   4.239   4.832 -0.9800  2.2287 -0.4326
 6017TIP3    H239543   2.958   4.219   4.767 -1.6999 -0.4603 -1.2153
 6018TIP3   OH239544   6.366   2.263   3.189  0.3851  0.7282 -0.3764
 6018TIP3    H139545   6.334   2.339   3.142  1.3475  1.7559  0.5689
 6018TIP3    H239546   6.426   2.298   3.255 -0.3165 -0.6979  1.1208
 6019TIP3   OH239547   3.219   4.376   3.272 -0.1727  0.1198  0.4173
 6019TIP3    H139548   3.197   4.385   3.364 -2.9082 -1.6656  0.0606
 6019TIP3    H239549   3.264   4.292   3.266  1.9763  1.2147  0.3465
 6020TIP3   OH239550   1.554   6.608   4.737  0.1625  0.6175 -0.6658
 6020TIP3    H139551   1.637   6.652   4.720  1.6046 -2.1029 -1.3816
 6020TIP3    H239552   1.557   6.585   4.830  1.0930 -0.9979 -1.0574
 6021TIP3   OH239553   5.028   4.744  10.940  0.0400 -0.4374 -0.5007
 6021TIP3    H139554   4.978   4.792  11.007 -1.2357  0.1146 -1.7845
 6021TIP3    H239555   5.102   4.801  10.921  0.4059 -0.5902  0.4094
 6022TIP3   OH239556   4.774   1.507  14.328 -0.4890 -0.2855 -0.1541
 6022TIP3    H139557   4.733   1.422  14.313  0.1665 -0.8422  1.0918
 6022TIP3    H239558   4.866   1.487  14.345  0.5549  0.9704 -3.4604
 6023TIP3   OH239559   6.667   0.490   5.444 -0.2105  0.0020  0.2754
 6023TIP3    H139560   6.717   0.544   5.383 -0.6270 -0.6812 -0.7150
 6023TIP3    H239561   6.711   0.404   5.440 -1.6631 -0.7385 -0.9542
 6024TIP3   OH239562   3.365   0.830  12.894  0.1560  0.4958 -0.3921
 6024TIP3    H139563   3.387   0.740  12.872 -0.0860  0.2075  0.4984
 6024TIP3    H239564   3.288   0.850  12.841 -1.7439 -0.9112  1.6866
 6025TIP3   OH239565   6.006   2.698   6.147  0.1921 -0.5596  0.3825
 6025TIP3    H139566   5.988   2.781   6.191  2.5851 -0.7879  1.9492
 6025TIP3    H239567   5.953   2.634   6.194  0.5157 -0.3396  1.0651
 6026TIP3   OH239568   4.525   6.783  11.403 -0.1409  0.1445 -0.1109
 6026TIP3    H139569   4.600   6.808  11.349 -1.6767  2.6320 -1.2340
 6026TIP3    H239570   4.523   6.848  11.473 -0.2813 -0.9295  0.9109
 6027TIP3   OH239571   0.098   3.369   5.448  0.5325 -0.0610 -0.3221
 6027TIP3    H139572   0.064   3.395   5.363 -0.9823 -0.3033  0.1892
 6027TIP3    H239573   0.116   3.276   5.440 -1.1348 -0.4482  0.0680
 6028TIP3   OH239574   5.230   3.336   4.208 -0.3298 -0.6187 -0.2489
 6028TIP3    H139575   5.152   3.299   4.166 -0.2141  0.8365 -1.8403
 6028TIP3    H239576   5.303   3.286   4.172 -0.3294 -0.2024 -0.8332
 6029TIP3   OH239577   5.634   5.846  12.526 -0.2662 -0.6848 -0.2726
 6029TIP3    H139578   5.587   5.892  12.595  2.5669 -1.1103  2.1140
 6029TIP3    H239579   5.590   5.762  12.518 -2.2983  0.3832 -1.0209
 6030TIP3   OH239580   1.533   4.325  16.889  0.6318 -0.1211 -0.3955
 6030TIP3    H139581   1.448   4.357  16.916  0.5577  1.9391 -2.7218
 6030TIP3    H239582   1.514   4.267  16.815  1.2066 -0.1746 -0.5061
 6031TIP3   OH239583   0.834   0.845  14.990  0.2179 -0.0304 -0.2830
 6031TIP3    H139584   0.905   0.791  14.956  0.6070  1.9040 -2.8587
 6031TIP3    H239585   0.774   0.856  14.916  0.0103  2.7200  0.1801
 6032TIP3   OH239586   0.832   3.893   2.942 -0.2560 -0.5056 -0.1657
 6032TIP3    H139587   0.771   3.820   2.955 -0.1799 -0.2741  1.8238
 6032TIP3    H239588   0.910   3.867   2.991 -0.1147  0.7558  0.3075
 6033TIP3   OH239589   2.851   3.990   0.246 -0.4070 -0.3098  0.0352
 6033TIP3    H139590   2.945   3.995   0.263 -0.3235 -1.0419 -0.1442
 6033TIP3    H239591   2.829   3.899   0.267 -1.4033  0.2703  1.7007
 6034TIP3   OH239592   0.609   0.608   5.922  0.1512 -0.1998  0.1154
 6034TIP3    H139593   0.537   0.643   5.869 -0.1620  0.3149  0.8613
 6034TIP3    H239594   0.674   0.678   5.923 -0.4723  0.4012  1.6089
 6035TIP3   OH239595   1.630   1.413   5.506 -0.8207  0.4192  0.1976
 6035TIP3    H139596   1.617   1.319   5.517 -0.9650  0.5199  0.9138
 6035TIP3    H239597   1.687   1.439   5.578  0.9106  0.5353 -1.1664
 6036TIP3   OH239598   0.128   0.073   2.697 -0.5944  0.2380  0.1932
 6036TIP3    H139599   0.042   0.095   2.661 -0.3495  1.3978  0.2655
 6036TIP3    H239600   0.190   0.110   2.634 -0.1467 -0.3177  0.3025
 6037TIP3   OH239601   4.449   4.235  15.546 -0.5575 -0.1115  0.4247
 6037TIP3    H139602   4.515   4.282  15.496 -0.8249 -1.2253 -1.0308
 6037TIP3    H239603   4.392   4.304  15.581  0.3446  0.7523  0.2365
 6038TIP3   OH239604   4.670   1.404  15.032 -0.4830 -0.5798 -0.1554
 6038TIP3    H139605   4.638   1.314  15.039  0.5684 -0.9088  0.7216
 6038TIP3    H239606   4.764   1.397  15.048 -0.4899  0.7651  0.6473
 6039TIP3   OH239607   0.459   5.987   3.153 -0.1972  0.1066 -0.3651
 6039TIP3    H139608   0.390   5.923   3.132 -0.5682 -0.5931  2.5727
 6039TIP3    H239609   0.536   5.954   3.106 -1.5190  0.3041 -2.8440
 6040TIP3   OH239610   3.736   1.886   4.704 -0.2086 -0.0846  0.2269
 6040TIP3    H139611   3.674   1.959   4.698 -0.5853 -0.5122 -2.4474
 6040TIP3    H239612   3.819   1.927   4.728 -0.7536  1.0144  0.2876
 6041TIP3   OH239613   6.283   0.608  16.171 -0.2902  0.1310  0.7613
 6041TIP3    H139614   6.317   0.687  16.214 -0.7842  0.0658  1.2753
 6041TIP3    H239615   6.189   0.610  16.188 -0.6859  0.6443 -1.1683
 6042TIP3   OH239616   6.732   2.593  14.620  0.2962  0.2568  0.2762
 6042TIP3    H139617   6.779   2.513  14.644  0.9024  0.4985 -0.0956
 6042TIP3    H239618   6.800   2.656  14.599 -0.1860  0.7528  0.1774
 6043TIP3   OH239619   4.019   5.338  12.061 -0.0395  0.3638 -0.0489
 6043TIP3    H139620   3.981   5.332  12.149  1.1593  0.3322  0.4814
 6043TIP3    H239621   3.983   5.262  12.015 -0.8828  0.5207  0.3197
 6044TIP3   OH239622   4.693   2.354  13.802 -0.0150 -0.6211 -0.4189
 6044TIP3    H139623   4.626   2.341  13.735 -0.3906  1.3695 -0.4922
 6044TIP3    H239624   4.727   2.267  13.819 -2.5487 -1.6965 -0.4538
 6045TIP3   OH239625   1.001   0.857  12.643 -0.5170 -0.1769  0.3933
 6045TIP3    H139626   1.048   0.927  12.689 -1.4776 -0.1057  1.2951
 6045TIP3    H239627   0.914   0.893  12.625 -0.2204 -0.2402 -1.4255
 6046TIP3   OH239628   2.077   3.124   6.254  0.6223 -0.3094  0.3289
 6046TIP3    H139629   2.058   3.217   6.265 -0.8429 -0.5179 -0.2355
 6046TIP3    H239630   2.098   3.093   6.342 -1.2541  0.0772  0.9646
 6047TIP3   OH239631   2.562   1.710  13.214  0.1191 -0.4101 -0.0263
 6047TIP3    H139632   2.480   1.744  13.178 -0.3060 -0.6900  0.6670
 6047TIP3    H239633   2.630   1.755  13.164 -0.4248  1.6558  0.9762
 6048TIP3   OH239634   6.598   3.845  13.472 -0.3947  0.6009  0.0036
 6048TIP3    H139635   6.601   3.824  13.379  3.7585  1.5498 -0.2632
 6048TIP3    H239636   6.593   3.760  13.515  1.3469 -0.1299 -1.1325
 6049TIP3   OH239637   2.410   1.496  10.856  0.3566 -0.3600  0.6778
 6049TIP3    H139638   2.422   1.402  10.863  0.1551 -0.2852  2.9332
 6049TIP3    H239639   2.403   1.513  10.762 -1.6344 -2.8320  0.2794
 6050TIP3   OH239640   5.596   6.137   4.657  0.4343 -0.2484  0.0423
 6050TIP3    H139641   5.663   6.073   4.682 -1.1578 -2.3753 -0.8126
 6050TIP3    H239642   5.594   6.132   4.561 -0.7900 -0.0655  0.0474
 6051TIP3   OH239643   2.928   2.647   0.230  0.0398  0.2681  0.6623
 6051TIP3    H139644   3.002   2.624   0.175 -1.0245  1.2156 -1.2557
 6051TIP3    H239645   2.877   2.566   0.236  0.0688  0.2034  0.0848
 6052TIP3   OH239646   0.797   2.078  11.813 -0.2488  0.3054 -0.2651
 6052TIP3    H139647   0.875   2.032  11.843 -1.2661 -0.1443  1.9306
 6052TIP3    H239648   0.822   2.116  11.729  1.8630 -0.9776 -0.2975
 6053TIP3   OH239649   4.798   1.789  12.595 -0.1169  0.0481 -0.3412
 6053TIP3    H139650   4.712   1.748  12.589  0.4413 -1.4654  1.1982
 6053TIP3    H239651   4.847   1.753  12.521  0.2659 -1.9600  0.8126
 6054TIP3   OH239652   1.555   1.414   2.197  0.1900  0.1834  0.1469
 6054TIP3    H139653   1.542   1.504   2.229 -1.8980 -0.3501  0.9454
 6054TIP3    H239654   1.592   1.425   2.109  0.8447  1.7826  0.5779
 6055TIP3   OH239655   1.727   2.293  14.997 -0.4291  0.1330  0.5500
 6055TIP3    H139656   1.647   2.300  15.048 -0.7684 -1.3070  0.2508
 6055TIP3    H239657   1.797   2.283  15.062 -0.8236 -1.3923  0.7553
 6056TIP3   OH239658   0.102   2.160   1.548 -0.5900 -0.0122 -0.8521
 6056TIP3    H139659   0.185   2.185   1.589 -0.4046  1.5145 -2.0958
 6056TIP3    H239660   0.128   2.102   1.476 -0.6107  0.3450 -1.1480
 6057TIP3   OH239661   4.135   6.709  14.267  0.0172  0.9555 -0.1877
 6057TIP3    H139662   4.047   6.695  14.303 -0.4405  0.7850 -1.3234
 6057TIP3    H239663   4.178   6.624  14.275  0.1121  1.0624  0.4514
 6058TIP3   OH239664   2.728   0.214  13.426  0.1723 -0.1519 -0.1030
 6058TIP3    H139665   2.818   0.247  13.432 -0.6354  2.0522  1.8987
 6058TIP3    H239666   2.706   0.219  13.333  1.9292 -0.2294 -0.5527
 6059TIP3   OH239667   5.869   5.505   6.375  0.2237 -0.1836  0.3823
 6059TIP3    H139668   5.852   5.413   6.353  0.7694 -0.1208 -0.3307
 6059TIP3    H239669   5.958   5.506   6.409 -0.1858 -0.0863  1.4757
 6060TIP3   OH239670   0.281   0.013  16.108  0.8172  0.0271 -0.6180
 6060TIP3    H139671   0.254   0.066  16.183  0.6001 -0.6054 -0.2411
 6060TIP3    H239672   0.319  -0.065  16.146  0.9495 -0.1850 -1.1717
 6061TIP3   OH239673   2.979   6.087   2.557 -0.0554 -1.1386  0.3047
 6061TIP3    H139674   2.990   6.158   2.620 -1.0372 -1.3831  0.7690
 6061TIP3    H239675   3.057   6.091   2.502  1.5472 -1.8036  2.4065
 6062TIP3   OH239676   3.894   1.506  14.082  0.1212  0.0223 -0.2393
 6062TIP3    H139677   3.844   1.578  14.120  2.5845  1.2709  0.9006
 6062TIP3    H239678   3.944   1.471  14.155  0.4938 -1.5234 -1.2041
 6063TIP3   OH239679   5.427   0.367   0.468  0.5074 -0.1958 -0.2546
 6063TIP3    H139680   5.519   0.391   0.456 -0.2602  1.8562 -3.1812
 6063TIP3    H239681   5.405   0.319   0.388 -1.0630 -0.3400  0.2400
 6064TIP3   OH239682   3.473   0.007  12.048 -0.2670  0.0657 -0.4189
 6064TIP3    H139683   3.505   0.096  12.029  1.8321 -0.3978  0.6322
 6064TIP3    H239684   3.550  -0.048  12.040 -0.9432 -1.2773  1.5305
 6065TIP3   OH239685   1.257   2.855  14.106 -0.8453  0.0979 -0.0515
 6065TIP3    H139686   1.252   2.794  14.032  2.9359  1.2205 -1.4683
 6065TIP3    H239687   1.217   2.936  14.074 -2.7425 -0.5178  0.6209
 6066TIP3   OH239688   4.472   6.411   0.238 -0.0969 -0.0452 -0.2176
 6066TIP3    H139689   4.424   6.345   0.288 -1.1411 -0.7404 -2.0341
 6066TIP3    H239690   4.405   6.457   0.188  0.3829  3.5996  2.1697
 6067TIP3   OH239691   4.656   1.322  16.527  0.1800 -0.1953  0.0815
 6067TIP3    H139692   4.751   1.319  16.536  0.1345 -0.7062  0.4041
 6067TIP3    H239693   4.639   1.278  16.443  0.4168  2.3639 -1.4334
 6068TIP3   OH239694   3.520   3.183  13.166  0.6636 -0.6889 -0.3072
 6068TIP3    H139695   3.509   3.215  13.076  0.8499 -0.2783 -0.1864
 6068TIP3    H239696   3.468   3.103  13.170 -0.4236 -0.0024 -0.4061
 6069TIP3   OH239697   5.070   5.658   3.632 -0.1245  0.2715 -0.4440
 6069TIP3    H139698   5.013   5.734   3.629 -0.1700  0.2913  0.5816
 6069TIP3    H239699   5.012   5.586   3.658  0.3168  0.3048  0.6660
 6070TIP3   OH239700   2.314   3.576   4.335 -0.0221  0.3579 -0.5724
 6070TIP3    H139701   2.327   3.552   4.243 -1.3547  0.6992 -0.8664
 6070TIP3    H239702   2.368   3.654   4.347  1.4453 -0.6046 -0.5991
 6071TIP3   OH239703   1.973   3.275  14.482 -0.2204 -0.5697  0.2237
 6071TIP3    H139704   2.061   3.247  14.504 -0.0779 -1.6340 -1.4739
 6071TIP3    H239705   1.923   3.267  14.563  1.0352 -0.7726  0.9906
 6072TIP3   OH239706   1.588   2.784  15.436  0.3327  0.1030  0.0631
 6072TIP3    H139707   1.552   2.839  15.506 -1.2718  0.5564 -1.0592
 6072TIP3    H239708   1.621   2.846  15.371 -2.1339 -0.1201 -1.5428
 6073TIP3   OH239709   1.266   4.302   2.562  0.5890 -0.4037 -0.2093
 6073TIP3    H139710   1.192   4.280   2.620 -0.9170  1.9202 -1.1067
 6073TIP3    H239711   1.298   4.217   2.531 -1.2659 -1.5247  0.7626
 6074TIP3   OH239712   5.036   4.649  14.522  1.2098 -0.4043  0.0384
 6074TIP3    H139713   4.988   4.726  14.551  0.5244 -0.9207  0.2758
 6074TIP3    H239714   5.045   4.595  14.600  1.1840 -0.8349 -0.2562
 6075TIP3   OH239715   1.842   2.932   4.902  0.3234 -0.1428 -0.3502
 6075TIP3    H139716   1.846   2.837   4.911  1.0468  0.0200  1.3658
 6075TIP3    H239717   1.930   2.958   4.875  0.4411  0.1206  0.2649
 6076TIP3   OH239718   1.194   4.989   4.738 -0.0298 -0.4444 -0.0706
 6076TIP3    H139719   1.270   5.037   4.703  0.5360  0.3863  2.0992
 6076TIP3    H239720   1.182   4.916   4.678  1.5716  0.2244 -1.2907
 6077TIP3   OH239721   4.309   0.031  10.841  0.1979 -0.2082 -0.7426
 6077TIP3    H139722   4.256  -0.048  10.847  0.0673 -0.0459  0.4349
 6077TIP3    H239723   4.264   0.085  10.776 -1.4873  0.2170  0.7052
 6078TIP3   OH239724   1.074   0.369   0.447  0.5794  0.2819 -0.6407
 6078TIP3    H139725   1.089   0.402   0.358 -1.2027 -0.0409 -1.0947
 6078TIP3    H239726   0.982   0.388   0.465  0.3189 -1.5985  0.2721
 6079TIP3   OH239727   0.914   2.312  10.157  0.6467  0.2396  0.1844
 6079TIP3    H139728   0.957   2.289  10.239  1.2426 -0.9594 -0.4404
 6079TIP3    H239729   0.977   2.289  10.089 -0.6732 -0.8874 -0.7209
 6080TIP3   OH239730   6.615   6.161  13.986  0.0765  0.0727 -0.0314
 6080TIP3    H139731   6.666   6.113  13.921  1.0307  1.6736 -0.5240
 6080TIP3    H239732   6.680   6.192  14.049 -0.6571 -0.1658  0.8618
 6081TIP3   OH239733   4.174   1.367   4.595 -0.2889 -0.7843 -0.3308
 6081TIP3    H139734   4.265   1.347   4.617  0.2679 -1.6519 -2.9516
 6081TIP3    H239735   4.180   1.411   4.510 -2.2853 -0.2186 -0.2206
 6082TIP3   OH239736   0.209   2.716  15.740 -0.0970  0.0580 -0.2004
 6082TIP3    H139737   0.191   2.721  15.646 -0.7766 -0.0489 -0.0840
 6082TIP3    H239738   0.225   2.623  15.756  2.3248  0.3448 -0.5945
 6083TIP3   OH239739   4.745   5.866   3.852 -0.5637  0.5570  0.0062
 6083TIP3    H139740   4.763   5.831   3.939  0.5005 -0.7957 -0.7173
 6083TIP3    H239741   4.816   5.929   3.837  0.4935 -0.7537 -0.6809
 6084TIP3   OH239742   3.321   0.995   0.243 -0.3281  0.4252 -0.1496
 6084TIP3    H139743   3.297   1.013   0.152 -0.1406  0.4296 -0.1989
 6084TIP3    H239744   3.413   0.969   0.239 -0.7997 -1.3589 -0.1776
 6085TIP3   OH239745   4.453   1.247   1.106  0.0429 -0.0632  0.2200
 6085TIP3    H139746   4.510   1.242   1.182 -1.0070 -0.3068  1.0048
 6085TIP3    H239747   4.463   1.162   1.063  0.6222  0.0691  0.0822
 6086TIP3   OH239748   4.952   1.821  16.856  0.2614 -0.0054 -0.4232
 6086TIP3    H139749   4.858   1.837  16.858  0.1546 -0.6001 -0.5169
 6086TIP3    H239750   4.978   1.816  16.948  0.3992  1.2106 -0.3739
 6087TIP3   OH239751   0.806   4.380   4.516 -0.0473  1.0168 -0.8970
 6087TIP3    H139752   0.756   4.313   4.469 -1.3239  1.3822 -0.0951
 6087TIP3    H239753   0.756   4.396   4.595  2.6243 -0.4029  1.2401
 6088TIP3   OH239754   1.419   0.590   4.586  0.1340  0.4157 -0.0091
 6088TIP3    H139755   1.440   0.683   4.580  1.0126  0.2705  0.6005
 6088TIP3    H239756   1.359   0.584   4.660  0.7385  0.4014  0.4873
 6089TIP3   OH239757   3.219   2.094  12.976  0.2851  0.1821 -0.2448
 6089TIP3    H139758   3.217   2.123  13.067  1.5805 -1.0578  0.2135
 6089TIP3    H239759   3.291   2.144  12.937  0.6584 -0.3286 -0.2108
 6090TIP3   OH239760   5.923   3.246  14.702 -0.1439 -0.0431  0.5238
 6090TIP3    H139761   5.907   3.162  14.746  2.0438  0.0027  1.5261
 6090TIP3    H239762   6.018   3.251  14.693 -0.0237  3.0986  2.1147
 6091TIP3   OH239763   3.107   5.334  15.913 -0.3222  0.1295  0.6091
 6091TIP3    H139764   3.156   5.252  15.910 -1.0438 -0.2803 -0.9731
 6091TIP3    H239765   3.017   5.307  15.931 -0.5873  0.5525 -0.0532
 6092TIP3   OH239766   5.336   4.857   0.553 -0.1319  0.0291  0.1104
 6092TIP3    H139767   5.424   4.820   0.552 -1.4613 -3.5961 -1.9367
 6092TIP3    H239768   5.323   4.892   0.465 -1.0984 -0.5959 -0.0199
 6093TIP3   OH239769   2.157   3.097  13.742  0.1225  0.4474 -0.3956
 6093TIP3    H139770   2.138   3.187  13.767 -0.7411  0.0998  0.2295
 6093TIP3    H239771   2.159   3.098  13.646  1.2863  1.3547 -0.3804
 6094TIP3   OH239772   0.488   0.501   1.202 -0.3553 -0.2924 -0.3879
 6094TIP3    H139773   0.413   0.477   1.256 -0.5001 -1.5974 -1.1256
 6094TIP3    H239774   0.513   0.588   1.232 -0.5220 -0.9127  1.6825
 6095TIP3   OH239775   4.270   3.617  15.680 -0.0649  0.2935  0.2589
 6095TIP3    H139776   4.295   3.574  15.762  0.7111  0.5672  0.1638
 6095TIP3    H239777   4.315   3.567  15.612 -1.0312 -0.1908 -0.0517
 6096TIP3   OH239778   2.037   1.010  11.968 -0.0410  0.6897 -0.2564
 6096TIP3    H139779   2.131   1.008  11.988 -0.3777  0.1326  1.4927
 6096TIP3    H239780   2.018   1.102  11.950  0.6720  0.9573  0.3160
 6097TIP3   OH239781   1.313   0.861  11.481 -0.4338 -0.0971  0.2608
 6097TIP3    H139782   1.396   0.829  11.446  0.8502  2.0170  1.2104
 6097TIP3    H239783   1.246   0.814  11.431  1.3011  0.2325 -2.5573
 6098TIP3   OH239784   4.234   0.705   2.477 -0.1937 -0.5252  0.1457
 6098TIP3    H139785   4.223   0.695   2.382  1.3105 -0.5427 -0.0492
 6098TIP3    H239786   4.222   0.798   2.493 -1.3893 -0.6604  0.0835
 6099TIP3   OH239787   1.868   1.017   2.435  0.4335 -0.1365  0.4611
 6099TIP3    H139788   1.824   1.096   2.403  1.8043 -0.2958 -2.1373
 6099TIP3    H239789   1.959   1.029   2.409  1.0925 -1.6732  1.9036
 6100TIP3   OH239790   2.949   0.826  12.103 -0.1618 -0.0588 -0.3847
 6100TIP3    H139791   2.959   0.736  12.132 -1.7348 -0.3973 -0.8052
 6100TIP3    H239792   3.018   0.874  12.149  1.1277 -1.5710 -0.6683
 6101TIP3   OH239793   5.120   6.592   4.189  0.2962 -0.7213 -0.0937
 6101TIP3    H139794   5.181   6.638   4.132  0.1504 -0.4476 -0.0322
 6101TIP3    H239795   5.048   6.654   4.202  0.1546 -0.9220  0.0848
 6102TIP3   OH239796   1.443   4.548   3.839 -0.1864  0.6205 -0.7515
 6102TIP3    H139797   1.355   4.577   3.815 -0.9029 -1.1019 -0.3805
 6102TIP3    H239798   1.496   4.561   3.760 -0.5853  2.2574 -0.7880
 6103TIP3   OH239799   6.700   5.987   5.352 -0.5231 -0.0474 -0.2418
 6103TIP3    H139800   6.661   5.909   5.391  0.5506 -0.6023 -0.2276
 6103TIP3    H239801   6.728   6.040   5.427 -0.3751 -0.1138 -0.2488
 6104TIP3   OH239802   5.219   0.916   6.748 -0.2449 -0.2561 -0.0958
 6104TIP3    H139803   5.278   0.944   6.819 -0.9539 -0.5488  0.6200
 6104TIP3    H239804   5.278   0.879   6.682  0.6696  2.1584 -0.7496
 6105TIP3   OH239805   0.209   0.508   3.869 -0.2776  0.1411  0.5296
 6105TIP3    H139806   0.122   0.517   3.908 -0.4873 -1.8241  0.6177
 6105TIP3    H239807   0.192   0.471   3.782  0.4728 -0.2822  0.5608
 6106TIP3   OH239808   0.550   0.179  15.207 -0.3139 -0.4451  0.0855
 6106TIP3    H139809   0.458   0.199  15.191 -0.1829 -0.4911 -0.8042
 6106TIP3    H239810   0.553   0.146  15.296 -1.1333 -0.2754  0.1814
 6107TIP3   OH239811   6.706   4.603   6.960 -0.1945  0.3697  0.2133
 6107TIP3    H139812   6.655   4.623   6.881  1.6652  0.4858 -1.0139
 6107TIP3    H239813   6.693   4.509   6.974  1.5420 -0.2526 -1.8588
 6108TIP3   OH239814   1.087   0.077   0.054  0.0763  0.1585  0.6757
 6108TIP3    H139815   1.049   0.079   0.142  1.7395 -0.7511  1.4620
 6108TIP3    H239816   1.162   0.136   0.059  0.9605 -0.8977  0.2774
 6109TIP3   OH239817   2.142   5.332   4.582  0.5699  0.3361 -0.5410
 6109TIP3    H139818   2.089   5.253   4.568 -0.8891  1.2428 -0.2698
 6109TIP3    H239819   2.143   5.343   4.677  1.2007  0.3716 -0.5479
 6110TIP3   OH239820   3.581   6.259  11.925 -0.5087 -0.4532  0.0011
 6110TIP3    H139821   3.573   6.355  11.926 -0.3141 -0.4281 -0.4819
 6110TIP3    H239822   3.548   6.232  12.010  3.6960  0.3806  2.1351
 6111TIP3   OH239823   2.734   2.255  12.778 -0.1788  0.2470  0.5459
 6111TIP3    H139824   2.755   2.212  12.860 -0.8617 -1.1434  0.0326
 6111TIP3    H239825   2.641   2.237  12.765 -0.1122  0.5544 -0.4501
 6112TIP3   OH239826   5.293   1.514   0.593 -0.1487 -0.5297  0.5534
 6112TIP3    H139827   5.329   1.526   0.505  1.3766  1.3669  1.3623
 6112TIP3    H239828   5.249   1.429   0.589 -0.7596 -0.1990 -2.2274
 6113TIP3   OH239829   5.998   6.090   2.662 -0.8338 -0.3953 -0.2738
 6113TIP3    H139830   6.040   6.023   2.715 -0.6641 -0.0368  0.0479
 6113TIP3    H239831   6.015   6.172   2.708 -0.5994 -0.0640 -0.9203
 6114TIP3   OH239832   1.889   3.569  11.021  0.5432  0.1582 -0.2964
 6114TIP3    H139833   1.958   3.505  11.034  0.2255 -0.3478 -1.0495
 6114TIP3    H239834   1.863   3.595  11.109 -0.1607 -1.6501  0.0652
 6115TIP3   OH239835   5.290   0.274  11.152  0.4091  0.1527  0.8344
 6115TIP3    H139836   5.343   0.257  11.230  1.6218  2.3309  0.5503
 6115TIP3    H239837   5.309   0.365  11.129 -0.6065 -0.1543 -1.4976
 6116TIP3   OH239838   3.289   6.093   0.197 -0.1189 -0.3961 -0.3703
 6116TIP3    H139839   3.371   6.125   0.159  0.3425 -1.0184  0.0846
 6116TIP3    H239840   3.256   6.168   0.247  0.9785 -0.6111  0.7283
 6117TIP3   OH239841   5.010   0.530  10.852  0.4337  0.5078  0.2278
 6117TIP3    H139842   5.043   0.580  10.777 -0.2263  1.3162  0.4561
 6117TIP3    H239843   5.072   0.549  10.922 -0.2830  1.7637  0.5648
 6118TIP3   OH239844   6.100   6.615   4.818  0.3675  0.3200  0.0323
 6118TIP3    H139845   6.043   6.543   4.792 -2.0349  1.3395  2.0827
 6118TIP3    H239846   6.123   6.597   4.909  1.0594  1.3250  0.0759
 6119TIP3   OH239847   2.724   3.993  15.078 -1.1179 -0.4487  0.2125
 6119TIP3    H139848   2.780   3.960  15.007 -0.2258  1.6836 -0.1420
 6119TIP3    H239849   2.697   3.914  15.125  0.3735 -1.7321 -0.9521
 6120TIP3   OH239850   4.770   1.447   5.692 -0.1653  0.1981 -0.4861
 6120TIP3    H139851   4.855   1.455   5.648  2.0813 -2.4035  2.8234
 6120TIP3    H239852   4.766   1.355   5.718 -3.2258  0.6554  1.0741
 6121TIP3   OH239853   6.248   3.139   0.955 -0.4908  0.0231 -0.0497
 6121TIP3    H139854   6.319   3.087   0.992 -0.4646 -0.3867 -0.6476
 6121TIP3    H239855   6.282   3.228   0.951  0.1392 -0.2343 -0.6770
 6122TIP3   OH239856   3.393   3.846  16.985 -0.0077  0.1281  1.1105
 6122TIP3    H139857   3.302   3.854  16.958 -0.3159 -0.1664  2.0321
 6122TIP3    H239858   3.431   3.932  16.966 -0.7115  0.5480  1.5637
 6123TIP3   OH239859   1.768   2.678  10.449 -0.0146  0.0150  0.3669
 6123TIP3    H139860   1.714   2.741  10.400 -2.1647 -0.3324  2.1148
 6123TIP3    H239861   1.738   2.592  10.419  0.9696 -0.2086 -0.0209
 6124TIP3   OH239862   6.133   5.148  12.004 -0.5483  0.2163 -0.3517
 6124TIP3    H139863   6.052   5.133  11.956  0.1192 -1.0530 -1.1468
 6124TIP3    H239864   6.202   5.126  11.941  0.4094  1.1929  0.3347
 6125TIP3   OH239865   3.881   2.447   3.060  0.3189  0.1945  0.4470
 6125TIP3    H139866   3.804   2.470   3.008 -0.4696  0.0807  1.5234
 6125TIP3    H239867   3.953   2.444   2.997 -0.2238  1.9757 -0.3298
 6126TIP3   OH239868   3.767   4.826   4.166  0.3851  0.7330  0.2232
 6126TIP3    H139869   3.839   4.887   4.182 -0.1275  1.1777  0.8918
 6126TIP3    H239870   3.701   4.848   4.232 -0.6285  0.7403 -0.7485
 6127TIP3   OH239871   4.466   5.140   3.455  0.0827  0.1809  0.4314
 6127TIP3    H139872   4.526   5.192   3.509  0.6831  0.1274 -0.1740
 6127TIP3    H239873   4.391   5.198   3.440 -0.5028 -0.1179  2.0576
 6128TIP3   OH239874   0.114   0.911   5.406 -0.3880 -0.1734 -0.6095
 6128TIP3    H139875   0.183   0.915   5.340 -0.7765 -0.9703 -1.0756
 6128TIP3    H239876   0.112   0.819   5.433 -0.9809 -0.0742 -0.3022
 6129TIP3   OH239877   3.804   3.957   2.536  0.7369  0.2418 -0.5782
 6129TIP3    H139878   3.850   3.878   2.505  0.7256 -0.0654  0.1541
 6129TIP3    H239879   3.759   3.928   2.615  1.5203  1.2101  0.2575
 6130TIP3   OH239880   5.494   3.730  11.463 -0.0325 -0.4470 -0.1279
 6130TIP3    H139881   5.507   3.715  11.369  0.6819  2.0839 -0.5230
 6130TIP3    H239882   5.552   3.803  11.484  0.3128 -1.3617  2.4730
 6131TIP3   OH239883   3.964   1.997   2.578 -0.2580  0.4182  0.3416
 6131TIP3    H139884   4.042   1.943   2.586  0.7472  1.7946  0.2253
 6131TIP3    H239885   3.981   2.073   2.634 -1.6020  0.6505  0.4768
 6132TIP3   OH239886   5.511   4.168   5.050 -0.2285 -0.2916  0.2828
 6132TIP3    H139887   5.592   4.118   5.040  0.7669  1.6279 -2.8517
 6132TIP3    H239888   5.445   4.116   5.004  0.3627  0.2227 -1.2349
 6133TIP3   OH239889   2.875   6.203  13.950  0.1227  0.0496 -0.0426
 6133TIP3    H139890   2.880   6.157  14.034  1.2235 -0.3945 -0.3397
 6133TIP3    H239891   2.945   6.268  13.954 -0.6247  0.8729 -0.1283
 6134TIP3   OH239892   6.458   1.399  16.232 -0.2785  0.0951  0.0853
 6134TIP3    H139893   6.532   1.414  16.291  0.1124  0.6277 -0.5250
 6134TIP3    H239894   6.432   1.308  16.249  0.3392 -0.0117  0.5014
 6135TIP3   OH239895   3.500   6.084  11.723 -0.2145  0.4851 -0.5365
 6135TIP3    H139896   3.467   6.128  11.645 -0.7370  0.0057 -0.5939
 6135TIP3    H239897   3.538   6.154  11.777  2.4710  0.5444 -2.3104
 6136TIP3   OH239898   0.338   2.211  15.987  0.0148 -0.4394  0.0035
 6136TIP3    H139899   0.378   2.127  16.007 -0.0192 -0.9878 -2.0270
 6136TIP3    H239900   0.263   2.217  16.047  1.2818 -0.7889  1.7176
 6137TIP3   OH239901   5.041   6.536   5.523 -0.6672  1.3633  0.0217
 6137TIP3    H139902   5.092   6.605   5.565  1.7547 -0.1821 -0.1418
 6137TIP3    H239903   5.070   6.537   5.432 -0.2450 -0.0786  0.1109
 6138TIP3   OH239904   0.045   6.684   0.311 -0.8400 -0.3095 -0.0516
 6138TIP3    H139905   0.037   6.769   0.268 -1.9107  0.9528  2.4358
 6138TIP3    H239906   0.114   6.639   0.262  0.5444  2.4084 -0.8316
 6139TIP3   OH239907   0.332   1.608  15.324 -0.2805 -0.2808  0.2691
 6139TIP3    H139908   0.368   1.602  15.236  0.6518 -0.8090  0.6735
 6139TIP3    H239909   0.329   1.702  15.343 -2.1005 -0.0480 -0.9477
 6140TIP3   OH239910   4.968   2.742  16.439  0.7177 -0.2897  0.1443
 6140TIP3    H139911   5.009   2.680  16.380 -0.8804 -2.5816  1.2954
 6140TIP3    H239912   4.967   2.699  16.524 -0.4590  1.3039  1.0147
 6141TIP3   OH239913   5.234   5.918   0.966 -0.0139  0.3433 -0.4524
 6141TIP3    H139914   5.293   5.941   0.894  0.5795 -0.7790 -0.3499
 6141TIP3    H239915   5.242   5.823   0.973 -1.4921  0.2289 -0.1255
 6142TIP3   OH239916   1.358   6.696  16.493 -0.0724  0.0492  0.2557
 6142TIP3    H139917   1.386   6.754  16.564 -0.4725 -0.2550  0.6729
 6142TIP3    H239918   1.274   6.732  16.465  1.0881  1.5260 -1.6308
 6143TIP3   OH239919   6.558   4.314  14.184 -0.0239  0.2613  0.3855
 6143TIP3    H139920   6.539   4.321  14.090 -0.3200 -0.0958  0.4125
 6143TIP3    H239921   6.540   4.401  14.219 -2.1410 -0.1633  0.4872
 6144TIP3   OH239922   4.670   1.146   2.842  0.2071  0.2433  1.1049
 6144TIP3    H139923   4.709   1.112   2.922  0.3080  0.9730  1.3658
 6144TIP3    H239924   4.590   1.093   2.830  0.6312 -0.4303  1.2199
 6145TIP3   OH239925   2.300   2.068   3.574  0.4230  0.1809 -0.1451
 6145TIP3    H139926   2.232   2.025   3.625  1.6051  0.6814  1.9713
 6145TIP3    H239927   2.307   2.155   3.613  1.5785  0.4898 -0.9965
 6146TIP3   OH239928   1.643   2.087  14.841 -0.2643  0.2996 -0.3530
 6146TIP3    H139929   1.713   2.138  14.882  0.5395  0.2452 -1.6045
 6146TIP3    H239930   1.685   2.005  14.816 -1.0443 -0.1491 -0.2077
 6147TIP3   OH239931   3.409   2.327   2.766 -0.0996 -0.0384  0.0594
 6147TIP3    H139932   3.324   2.327   2.721  1.2116 -2.7824 -2.8856
 6147TIP3    H239933   3.472   2.351   2.698  1.6689  0.1657  1.6876
 6148TIP3   OH239934   1.351   4.285  14.969 -0.3599  0.2918 -0.4673
 6148TIP3    H139935   1.319   4.195  14.960  0.4804 -0.0280 -0.3352
 6148TIP3    H239936   1.435   4.276  15.013 -0.9086  1.2532  0.8517
 6149TIP3   OH239937   0.289   4.655   1.387  0.3118  0.1223  0.6617
 6149TIP3    H139938   0.256   4.660   1.298 -0.1075  1.1532  0.8615
 6149TIP3    H239939   0.325   4.566   1.395 -1.8155 -0.8293  0.2339
 6150TIP3   OH239940   0.141   3.041   5.135  0.3872  0.2408 -0.2032
 6150TIP3    H139941   0.180   3.086   5.210 -2.3173 -0.9589  2.1093
 6150TIP3    H239942   0.163   2.949   5.148 -0.2315  0.0008 -0.7992
 6151TIP3   OH239943   4.041   0.267  12.142 -0.7004  0.0490 -0.3845
 6151TIP3    H139944   4.094   0.252  12.064  1.0657 -0.9629  0.9319
 6151TIP3    H239945   4.029   0.362  12.145 -1.4786  0.0378 -2.2819
 6152TIP3   OH239946   5.681   3.661   2.685  0.4543 -0.1025  0.2091
 6152TIP3    H139947   5.605   3.614   2.721  0.4290 -2.2372 -2.3561
 6152TIP3    H239948   5.646   3.707   2.609  0.8633  2.9050  1.6846
 6153TIP3   OH239949   4.018   0.076   2.996 -0.2700  0.2424  0.2401
 6153TIP3    H139950   3.950   0.041   3.054  0.3764 -1.5433 -0.0214
 6153TIP3    H239951   4.065   0.140   3.049 -1.4480  0.7038  0.7667
 6154TIP3   OH239952   1.974   6.542   1.988  0.0831 -0.0170  0.5676
 6154TIP3    H139953   2.070   6.534   1.987  0.0375 -1.2333 -1.5997
 6154TIP3    H239954   1.947   6.508   1.903 -2.2045  1.7777  0.4914
 6155TIP3   OH239955   5.931   3.730  14.697  0.1289  0.3149  0.1894
 6155TIP3    H139956   5.906   3.642  14.722  0.7684 -0.1470 -0.7461
 6155TIP3    H239957   6.026   3.726  14.687  0.4104  1.5642  1.8721
 6156TIP3   OH239958   2.894   0.192   5.078  0.1708  0.1111  0.4198
 6156TIP3    H139959   2.846   0.233   5.006  0.4963  0.0686  0.1806
 6156TIP3    H239960   2.870   0.099   5.073  0.5603  0.0286  0.0786
 6157TIP3   OH239961   0.886   0.086   2.527  0.4225  0.3910 -0.6196
 6157TIP3    H139962   0.908   0.146   2.599  1.7052  1.3676 -1.7798
 6157TIP3    H239963   0.960   0.026   2.524 -1.7066 -2.7192  1.8466
 6158TIP3   OH239964   1.874   3.223   2.007  0.2989  0.1215  0.4767
 6158TIP3    H139965   1.888   3.158   1.937  1.2499  0.6568  0.1489
 6158TIP3    H239966   1.961   3.261   2.021  0.1872 -0.1967  2.1905
 6159TIP3   OH239967   3.122   1.225   4.110  0.4084 -0.1154  0.5618
 6159TIP3    H139968   3.113   1.318   4.087 -0.9115 -0.3014  0.2388
 6159TIP3    H239969   3.105   1.223   4.205 -1.2403 -0.2072  0.2925
 6160TIP3   OH239970   3.973   4.031  15.894 -0.1531  0.4027  0.0725
 6160TIP3    H139971   4.035   4.042  15.966 -1.3059  0.6923  1.0579
 6160TIP3    H239972   3.942   4.119  15.874 -0.8679  0.1902  0.1866
 6161TIP3   OH239973   4.050   1.617  13.726  1.2614  0.5469  0.1132
 6161TIP3    H139974   3.966   1.570  13.732  0.8944  1.0720 -0.6901
 6161TIP3    H239975   4.025   1.709  13.724  1.7897  0.6840 -1.1007
 6162TIP3   OH239976   2.948   1.716   5.187  0.0934 -0.1453  0.5608
 6162TIP3    H139977   2.898   1.761   5.118 -1.9968 -0.6494  1.6753
 6162TIP3    H239978   2.951   1.625   5.158  1.3219  0.0652 -0.0135
 6163TIP3   OH239979   5.698   4.506   2.470  0.6351  0.3267 -0.1247
 6163TIP3    H139980   5.694   4.484   2.377  1.3066  1.3591 -0.4178
 6163TIP3    H239981   5.763   4.445   2.507 -2.8136 -3.2855  0.7055
 6164TIP3   OH239982   3.988   5.373  10.795 -0.0730 -0.5923 -0.3136
 6164TIP3    H139983   3.898   5.402  10.778 -0.1177 -0.2166  0.5389
 6164TIP3    H239984   4.008   5.314  10.722 -0.9768 -0.6169 -0.5511
 6165TIP3   OH239985   5.450   3.478  15.816  0.2953  0.4157  0.0712
 6165TIP3    H139986   5.502   3.521  15.749  1.9464  0.4175  1.3065
 6165TIP3    H239987   5.455   3.385  15.794  0.4112  0.4582 -0.0792
 6166TIP3   OH239988   6.198   0.490   1.263  0.3860 -0.2583  0.0269
 6166TIP3    H139989   6.239   0.521   1.182 -2.5682  0.6241 -1.2928
 6166TIP3    H239990   6.201   0.565   1.322  0.6628 -0.2056 -0.0525
 6167TIP3   OH239991   6.697   3.707   1.455 -0.3032 -0.4487  0.0716
 6167TIP3    H139992   6.752   3.765   1.508  0.1978 -0.2428 -0.6574
 6167TIP3    H239993   6.613   3.706   1.501 -0.1776  0.4901  0.3519
 6168TIP3   OH239994   6.553   6.769   5.346 -0.5767 -0.3888  0.2157
 6168TIP3    H139995   6.474   6.776   5.399 -0.9897 -2.3345 -0.0609
 6168TIP3    H239996   6.526   6.798   5.259 -0.6870  0.0074  0.3813
 6169TIP3   OH239997   3.744   2.790   2.697 -0.3692  0.4601 -0.1707
 6169TIP3    H139998   3.813   2.839   2.740 -0.6278  0.1082  0.6758
 6169TIP3    H239999   3.702   2.853   2.639  0.8638  0.5903 -0.9493
 6170TIP3   OH240000   2.993   1.462  12.288 -0.3519  0.4454  0.2928
 6170TIP3    H140001   2.988   1.515  12.368 -0.8798  0.3251  0.3419
 6170TIP3    H240002   2.930   1.391  12.302  1.4009 -1.0711  0.8442
 6171TIP3   OH240003   3.889   5.645  13.254  0.1281 -0.2357 -0.4958
 6171TIP3    H140004   3.825   5.702  13.212 -0.7210 -0.0548  0.9846
 6171TIP3    H240005   3.948   5.619  13.183 -0.6857  0.8099 -1.5950
 6172TIP3   OH240006   4.236   0.066   6.821  0.0342  0.3322 -0.8046
 6172TIP3    H140007   4.191   0.145   6.790  0.0378  0.5854 -0.1749
 6172TIP3    H240008   4.324   0.096   6.844  0.4131 -0.0854 -1.6491
 6173TIP3   OH240009   2.324   1.512  16.052  0.8633  0.0977  0.0776
 6173TIP3    H140010   2.363   1.556  15.977  1.0277  1.0375  0.7010
 6173TIP3    H240011   2.375   1.432  16.061  0.0071 -0.6955 -1.5940
 6174TIP3   OH240012   1.104   3.116   2.773  0.3346 -0.0603 -0.2942
 6174TIP3    H140013   1.018   3.090   2.740 -0.6968 -0.9713  2.7327
 6174TIP3    H240014   1.086   3.187   2.835  1.6666 -0.5467  0.7110
 6175TIP3   OH240015   3.523   0.075   3.086 -0.4493 -0.0175 -0.1077
 6175TIP3    H140016   3.536   0.134   3.160 -1.1326  0.5943 -0.4697
 6175TIP3    H240017   3.477  -0.000   3.123  0.9434 -0.6197  0.4740
 6176TIP3   OH240018   3.584   3.651   4.663  0.0273  0.3048 -0.1688
 6176TIP3    H140019   3.585   3.626   4.756  0.4383  0.8127 -0.0270
 6176TIP3    H240020   3.542   3.737   4.663  1.1451  0.8776 -0.2864
 6177TIP3   OH240021   1.054   0.414  12.612 -0.2003 -0.0183 -0.1770
 6177TIP3    H140022   1.141   0.439  12.581  1.0378 -2.0657  1.4232
 6177TIP3    H240023   1.029   0.482  12.674 -0.3191  1.2280 -1.5567
 6178TIP3   OH240024   5.088   1.258  11.163  0.2293  0.2409 -0.3994
 6178TIP3    H140025   5.044   1.343  11.164  0.7591  0.5307  0.6564
 6178TIP3    H240026   5.084   1.229  11.072  0.5905  1.6878 -0.9001
 6179TIP3   OH240027   4.916   6.145   2.759  0.2064  0.0445  0.0805
 6179TIP3    H140028   4.841   6.133   2.816 -0.7109  0.2839 -1.0421
 6179TIP3    H240029   4.881   6.137   2.670  1.5234  0.0382 -0.4683
 6180TIP3   OH240030   1.090   0.455   2.365  0.2789  0.0630  0.2704
 6180TIP3    H140031   1.087   0.545   2.332  1.7857  0.1909  0.4154
 6180TIP3    H240032   1.102   0.464   2.460  4.2284 -0.1578 -0.0407
 6181TIP3   OH240033   2.912   1.801  15.655  0.2376  0.6597 -0.5210
 6181TIP3    H140034   2.909   1.849  15.572  2.4145  0.8125 -0.5830
 6181TIP3    H240035   2.950   1.716  15.633 -0.2204  0.2694  0.1498
 6182TIP3   OH240036   4.515   0.258  16.591  0.0458 -0.4135 -0.3886
 6182TIP3    H140037   4.537   0.339  16.638 -1.3472  0.1926 -0.7249
 6182TIP3    H240038   4.481   0.199  16.658  0.3389 -0.4406 -0.2631
 6183TIP3   OH240039   2.395   2.109  13.246 -0.0169 -0.4130  0.0209
 6183TIP3    H140040   2.464   2.098  13.181 -0.1495  2.5621 -0.7382
 6183TIP3    H240041   2.423   2.181  13.301 -0.6851 -1.7996  2.3468
 6184TIP3   OH240042   0.241   3.482  11.328  0.3938 -0.2220 -0.6199
 6184TIP3    H140043   0.280   3.404  11.290 -0.8634 -1.5285  0.6609
 6184TIP3    H240044   0.150   3.480  11.300  0.2641  0.6160 -0.3073
 6185TIP3   OH240045   5.547   5.323  14.577  0.3549  0.1189 -0.4947
 6185TIP3    H140046   5.618   5.319  14.514  0.6359  0.1789 -0.1878
 6185TIP3    H240047   5.569   5.398  14.633 -0.4126  0.7002 -0.9434
 6186TIP3   OH240048   5.126   6.062   0.310  0.6042 -0.2885 -0.5725
 6186TIP3    H140049   5.033   6.085   0.315  0.9778  1.0108  1.6913
 6186TIP3    H240050   5.163   6.126   0.250  0.5106  1.0813  0.7808
 6187TIP3   OH240051   3.534   3.444  12.963 -0.6149  0.5886 -0.5111
 6187TIP3    H140052   3.506   3.497  13.038  0.4282  1.3626 -0.6488
 6187TIP3    H240053   3.460   3.448  12.903 -1.5317 -0.1743  0.5158
 6188TIP3   OH240054   3.337   4.189   0.846  0.3106  0.1273 -0.2726
 6188TIP3    H140055   3.258   4.171   0.795 -0.0149  0.5497  0.0777
 6188TIP3    H240056   3.405   4.202   0.780 -0.1403  0.8256 -0.6097
 6189TIP3   OH240057   3.221   3.072  13.285  0.1253  0.6300  0.1903
 6189TIP3    H140058   3.267   3.052  13.204  1.0120  2.9985  0.0419
 6189TIP3    H240059   3.140   3.114  13.257 -0.6324 -0.5362  0.5343
 6190TIP3   OH240060   2.977   1.534   4.586 -0.1159  0.0270 -0.0083
 6190TIP3    H140061   2.994   1.497   4.672  2.3535  3.5803  1.2758
 6190TIP3    H240062   2.884   1.555   4.586 -1.1602 -3.8177 -0.0479
 6191TIP3   OH240063   2.494   2.282  11.647  0.1346 -0.5767  0.3427
 6191TIP3    H140064   2.421   2.236  11.605  1.2415 -1.6891 -0.4193
 6191TIP3    H240065   2.521   2.225  11.718  2.2270 -1.7491 -1.2800
 6192TIP3   OH240066   3.221   4.706  12.051  0.0001 -0.7020  0.5743
 6192TIP3    H140067   3.140   4.711  12.102  0.5096 -0.0840  1.3583
 6192TIP3    H240068   3.264   4.626  12.081 -1.0702 -1.9342 -1.0384
 6193TIP3   OH240069   4.697   0.617  14.885 -0.3199  0.2681 -0.4687
 6193TIP3    H140070   4.708   0.708  14.856 -0.3317  0.4716  0.1455
 6193TIP3    H240071   4.766   0.569  14.839 -1.2886  0.2947 -2.0241
 6194TIP3   OH240072   3.666   0.830   5.049  0.2287  0.3647  0.8465
 6194TIP3    H140073   3.681   0.922   5.072  0.3833  0.7009 -0.4944
 6194TIP3    H240074   3.573   0.815   5.069  0.1027  0.9287  0.7015
 6195TIP3   OH240075   1.062   3.342   6.841 -0.2879  0.2312  1.5146
 6195TIP3    H140076   1.038   3.433   6.856  1.9512  1.1634 -0.0452
 6195TIP3    H240077   1.000   3.311   6.775  0.6537  1.5399 -0.0393
 6196TIP3   OH240078   0.087   0.268   5.791  0.4664  0.5572  0.2420
 6196TIP3    H140079   0.153   0.202   5.812  0.3218  0.5104  0.5527
 6196TIP3    H240080   0.044   0.286   5.874 -0.7821 -0.3522 -0.1859
 6197TIP3   OH240081   5.822   2.489  12.280 -0.3939  0.1349 -0.2839
 6197TIP3    H140082   5.868   2.486  12.197  1.2425 -0.1587  0.5873
 6197TIP3    H240083   5.818   2.398  12.310 -1.5068  0.1602 -0.2970
 6198TIP3   OH240084   2.456   6.687  16.305  1.0527 -0.3384  0.1014
 6198TIP3    H140085   2.527   6.631  16.335  0.8639 -0.5249  0.2047
 6198TIP3    H240086   2.413   6.636  16.236 -0.3867 -1.2258  1.5619
 6199TIP3   OH240087   3.228   5.599  13.208  0.6073  0.2867  0.3896
 6199TIP3    H140088   3.187   5.514  13.223  1.6898 -0.5933 -1.3206
 6199TIP3    H240089   3.225   5.611  13.114 -0.6170  2.7635  0.6613
 6200TIP3   OH240090   1.258   0.628  12.690 -0.1660 -0.2338  0.4148
 6200TIP3    H140091   1.202   0.631  12.768  0.0624  3.1351  0.6083
 6200TIP3    H240092   1.335   0.579  12.719 -1.4437 -1.8493  1.2524
 6201TIP3   OH240093   1.588   2.344   6.296 -0.0593 -0.4892  0.3007
 6201TIP3    H140094   1.593   2.270   6.356  1.7099  1.6242  2.9908
 6201TIP3    H240095   1.659   2.330   6.233 -0.9256 -1.9283 -0.4053
 6202TIP3   OH240096   3.050   5.134   0.399  0.0062  0.1735  0.3347
 6202TIP3    H140097   3.103   5.055   0.401  0.4061  0.4368  2.0558
 6202TIP3    H240098   3.077   5.183   0.477 -0.9884  1.5029 -0.1113
 6203TIP3   OH240099   4.583   6.325  14.335 -0.0314  0.2394  0.3029
 6203TIP3    H140100   4.649   6.342  14.269  1.2785 -1.2456  1.1610
 6203TIP3    H240101   4.538   6.246  14.305 -0.9016  0.7736  0.1424
 6204TIP3   OH240102   5.043   5.289  13.837  0.2137 -0.7170  0.3849
 6204TIP3    H140103   5.025   5.376  13.802 -0.5099 -0.1469  2.0732
 6204TIP3    H240104   5.099   5.247  13.771 -0.8648  0.3641 -1.2814
 6205TIP3   OH240105   1.496   0.156   2.094  0.1836 -0.7194  0.1482
 6205TIP3    H140106   1.479   0.124   2.006 -0.1769 -0.1783  0.0145
 6205TIP3    H240107   1.545   0.085   2.136  0.9409 -0.7091 -0.6871
 6206TIP3   OH240108   4.447   0.894  14.839 -0.0026  0.2949 -0.9575
 6206TIP3    H140109   4.466   0.932  14.925 -0.7551  0.0141 -0.6593
 6206TIP3    H240110   4.428   0.802  14.857 -0.0811  0.2144 -1.4376
 6207TIP3   OH240111   1.578   0.284  14.864 -0.2934  0.1940  0.0731
 6207TIP3    H140112   1.483   0.274  14.866 -0.6284  2.7140  0.2350
 6207TIP3    H240113   1.597   0.310  14.774  0.1626  0.3302  0.2074
 6208TIP3   OH240114   1.989   1.487   5.826  0.0813  0.2638  0.4148
 6208TIP3    H140115   2.058   1.548   5.800  0.3120  0.0943  0.6169
 6208TIP3    H240116   1.998   1.480   5.921 -0.9355  1.1038  0.5859
 6209TIP3   OH240117   3.006   0.928  14.153  0.9980  0.2818  0.0224
 6209TIP3    H140118   2.983   0.863  14.087 -1.9236  1.5478 -0.3839
 6209TIP3    H240119   2.943   0.913  14.224  1.1786  1.7465  0.5237
 6210TIP3   OH240120   3.802   3.407  16.054 -0.3597  0.8415 -0.2720
 6210TIP3    H140121   3.716   3.402  16.010 -0.5312  0.9936  0.0452
 6210TIP3    H240122   3.864   3.379  15.987 -0.4214  2.7676 -1.2025
 6211TIP3   OH240123   2.710   4.758  13.244  0.1541 -0.2650 -0.0342
 6211TIP3    H140124   2.790   4.709  13.261 -0.3387 -1.3841 -0.8114
 6211TIP3    H240125   2.732   4.848  13.266  1.8519 -0.4202 -0.9379
 6212TIP3   OH240126   3.590   0.106  14.341  0.2997  0.0533 -0.3194
 6212TIP3    H140127   3.560   0.019  14.366  1.5706  0.3649  2.6872
 6212TIP3    H240128   3.530   0.166  14.385  0.3095  0.7160 -1.1812
 6213TIP3   OH240129   3.735   3.794   3.622  0.8290 -0.1785 -0.2542
 6213TIP3    H140130   3.743   3.857   3.694  1.2646  0.3626 -0.7704
 6213TIP3    H240131   3.696   3.844   3.550 -1.7044 -1.2483  0.2593
 6214TIP3   OH240132   4.386   0.928   1.685 -0.1681  0.3196  0.5078
 6214TIP3    H140133   4.353   0.941   1.774 -1.4277  0.9659 -0.0299
 6214TIP3    H240134   4.374   1.012   1.642 -0.1732 -0.1616 -0.4721
 6215TIP3   OH240135   2.963   2.735  17.169  0.4120  0.2529 -0.6535
 6215TIP3    H140136   2.885   2.761  17.219  1.1056 -0.8914  1.1134
 6215TIP3    H240137   3.036   2.751  17.228  1.6028  1.3926 -2.3170
 6216TIP3   OH240138   0.154   1.735   0.439 -0.4736 -0.0114 -0.1723
 6216TIP3    H140139   0.238   1.762   0.402  0.2295 -0.2388  1.2095
 6216TIP3    H240140   0.171   1.651   0.480 -0.6623  1.1493  2.4747
 6217TIP3   OH240141   3.358   1.775   0.552  0.1091  0.2070 -0.1350
 6217TIP3    H140142   3.271   1.793   0.516  0.2277  1.0533 -0.0395
 6217TIP3    H240143   3.419   1.799   0.482  0.3004  0.8809  0.2407
 6218TIP3   OH240144   2.385   5.301  16.821 -0.6380  0.5848 -0.4609
 6218TIP3    H140145   2.301   5.284  16.864 -0.9196 -0.6310 -1.4405
 6218TIP3    H240146   2.362   5.321  16.730  0.0831  1.0929 -0.5415
 6219TIP3   OH240147   2.145   2.755   5.087 -0.2252  0.1228  0.1354
 6219TIP3    H140148   2.221   2.809   5.065 -0.1922 -0.0576 -0.1934
 6219TIP3    H240149   2.091   2.811   5.143 -0.2791  0.5537 -0.3485
 6220TIP3   OH240150   4.251   4.610   4.569 -0.5298  0.3613 -0.2792
 6220TIP3    H140151   4.311   4.586   4.499  0.3183  2.2485 -0.2634
 6220TIP3    H240152   4.206   4.528   4.592  0.6853 -0.7090 -1.5610
 6221TIP3   OH240153   1.315   0.015   1.478 -0.1006 -0.3137 -0.7115
 6221TIP3    H140154   1.271   0.007   1.393  0.0944  0.9459 -0.9558
 6221TIP3    H240155   1.318   0.110   1.494  0.1269 -0.5252  0.5660
 6222TIP3   OH240156   4.757   0.116  15.811 -0.6794 -0.8814  0.3515
 6222TIP3    H140157   4.768   0.034  15.859 -0.2864 -0.3721  1.1650
 6222TIP3    H240158   4.759   0.183  15.879  1.3858 -0.0120 -0.4831
 6223TIP3   OH240159   2.580   3.934   2.444  0.7961 -0.6347  0.3537
 6223TIP3    H140160   2.664   3.907   2.407 -0.1230  0.7514 -3.2289
 6223TIP3    H240161   2.566   4.023   2.410 -1.6195 -0.3900  1.7272
 6224TIP3   OH240162   1.617   0.590   3.904  0.2895  0.1121 -0.0513
 6224TIP3    H140163   1.706   0.568   3.933  1.0140  2.2398 -0.5330
 6224TIP3    H240164   1.611   0.554   3.815  1.3622  1.5648 -0.7409
 6225TIP3   OH240165   3.154   6.306   5.228 -0.4371 -0.5605 -0.3943
 6225TIP3    H140166   3.247   6.289   5.242 -0.2507 -0.5687 -1.5763
 6225TIP3    H240167   3.112   6.221   5.241 -0.2436 -0.6344 -0.2450
 6226TIP3   OH240168   1.181   2.658   2.997 -0.1159  0.1763  0.8074
 6226TIP3    H140169   1.248   2.633   2.934 -1.4133 -0.9877 -0.2013
 6226TIP3    H240170   1.209   2.617   3.079  0.4641 -0.1822  0.4387
 6227TIP3   OH240171   3.540   4.701   0.760 -0.1612 -0.1720 -0.8155
 6227TIP3    H140172   3.615   4.644   0.748  0.4582  0.3111  0.6574
 6227TIP3    H240173   3.560   4.778   0.707  0.3856 -0.0421 -0.4208
 6228TIP3   OH240174   0.383   1.735  12.657  0.6666  0.3356  0.7591
 6228TIP3    H140175   0.407   1.649  12.693 -1.0982 -0.2067  0.7241
 6228TIP3    H240176   0.346   1.716  12.571 -1.1073  0.9374  1.3401
 6229TIP3   OH240177   2.997   2.167   1.943  0.3286  0.2741 -0.1268
 6229TIP3    H140178   2.980   2.092   1.885  2.4750 -0.4212  0.0433
 6229TIP3    H240179   3.003   2.242   1.883  1.4964 -0.2695 -0.7398
 6230TIP3   OH240180   0.470   1.921   0.577 -0.0665  0.1456  0.5118
 6230TIP3    H140181   0.513   2.006   0.567  0.0549  0.2452  1.6828
 6230TIP3    H240182   0.386   1.931   0.532  0.0837  0.7842  0.3630
 6231TIP3   OH240183   2.373   2.443  11.156  0.2450  0.1911  0.2276
 6231TIP3    H140184   2.372   2.351  11.182  0.0913  0.7296  2.2886
 6231TIP3    H240185   2.426   2.445  11.076  0.0631 -1.6940  0.0193
 6232TIP3   OH240186   0.448   4.666   5.643 -1.2211 -0.5180 -0.5385
 6232TIP3    H140187   0.400   4.748   5.651 -0.3554 -0.1017  0.5109
 6232TIP3    H240188   0.489   4.671   5.556  0.7745  1.2781  0.4080
 6233TIP3   OH240189   0.744   0.199  14.681  0.4262  0.2807 -0.2090
 6233TIP3    H140190   0.654   0.186  14.653  0.5986 -0.9033 -0.2565
 6233TIP3    H240191   0.783   0.254  14.613  0.0386 -0.1426 -0.7826
 6234TIP3   OH240192   6.323   1.501  15.724 -0.2824  0.0848  0.7484
 6234TIP3    H140193   6.282   1.447  15.792 -1.1978 -0.2592 -0.0595
 6234TIP3    H240194   6.259   1.570  15.706 -0.8110 -0.7634 -0.9019
 6235TIP3   OH240195   2.924   2.342   3.007 -0.4799  0.4190 -0.2456
 6235TIP3    H140196   2.871   2.311   2.933 -0.2125 -1.4042  0.2861
 6235TIP3    H240197   2.997   2.281   3.011 -0.6094  0.3465  1.6776
 6236TIP3   OH240198   0.418   3.073   5.498 -0.0277  0.3411  0.3034
 6236TIP3    H140199   0.496   3.094   5.447  0.3453 -0.3412  0.5746
 6236TIP3    H240200   0.409   2.978   5.489 -1.5705  0.5650 -0.7669
 6237TIP3   OH240201   3.316   2.523   1.508  0.1500 -0.1053  0.9773
 6237TIP3    H140202   3.341   2.582   1.437 -0.0613 -0.4640  0.5949
 6237TIP3    H240203   3.244   2.567   1.552 -0.5226 -0.4207  0.2122
 6238TIP3   OH240204   5.266   5.563   4.852  0.1790  0.5481  0.3593
 6238TIP3    H140205   5.292   5.653   4.876 -0.6286  1.1058 -0.8036
 6238TIP3    H240206   5.271   5.515   4.935  2.6221  1.1513  0.6514
 6239TIP3   OH240207   2.410   0.782  16.284  0.0410 -0.5519 -0.1551
 6239TIP3    H140208   2.370   0.702  16.251  0.4020 -1.4944  1.5509
 6239TIP3    H240209   2.343   0.850  16.271 -1.1335 -1.5784  0.3293
 6240TIP3   OH240210   6.297   5.047   1.164  0.5052  0.6764  0.2170
 6240TIP3    H140211   6.317   4.985   1.233 -2.0585 -0.1472  0.2918
 6240TIP3    H240212   6.298   4.995   1.084  1.5807  1.2501 -0.1717
 6241TIP3   OH240213   6.544   6.508  15.500  0.3767 -0.3016 -0.5891
 6241TIP3    H140214   6.628   6.493  15.544 -0.4891  0.1574  1.3189
 6241TIP3    H240215   6.551   6.459  15.418  2.9018  0.6048 -0.9879
 6242TIP3   OH240216   2.477   4.347  13.437  0.2008 -0.1816  0.1992
 6242TIP3    H140217   2.534   4.286  13.389  0.6047  0.0554  0.3726
 6242TIP3    H240218   2.533   4.423  13.455 -0.2596  0.1863  0.1030
 6243TIP3   OH240219   0.712   3.773   4.858  0.2969  0.1938 -0.1432
 6243TIP3    H140220   0.665   3.819   4.927 -0.9656  1.1952 -1.6016
 6243TIP3    H240221   0.676   3.684   4.859 -2.1313  1.0834 -1.5806
 6244TIP3   OH240222   1.079   1.810  10.907  0.3587  0.0525 -0.2356
 6244TIP3    H140223   1.026   1.730  10.902 -0.2922  0.5381 -1.4155
 6244TIP3    H240224   1.018   1.881  10.884  1.0599  0.8381  0.2709
 6245TIP3   OH240225   4.580   6.740  13.993  0.5970  0.3129 -0.1394
 6245TIP3    H140226   4.513   6.807  13.994  0.9905  0.7412 -1.2429
 6245TIP3    H240227   4.654   6.780  13.948  1.4548 -0.2917  0.6777
 6246TIP3   OH240228   5.930   0.701   0.294  0.3362  0.1205 -1.0907
 6246TIP3    H140229   5.964   0.614   0.313  0.7965  0.5656  0.2873
 6246TIP3    H240230   5.992   0.739   0.232  0.3739 -0.3852 -1.3595
 6247TIP3   OH240231   4.889   0.411  12.126  0.1456  0.1913 -0.5050
 6247TIP3    H140232   4.880   0.367  12.042 -1.0931  1.2434 -0.9452
 6247TIP3    H240233   4.982   0.435  12.131  0.0910  0.7560 -1.9074
 6248TIP3   OH240234   6.396   0.320   3.537  0.2684 -0.2948 -0.1300
 6248TIP3    H140235   6.307   0.326   3.570 -0.1725 -2.6108 -0.7511
 6248TIP3    H240236   6.451   0.339   3.613 -0.6871  1.8826  0.1002
 6249TIP3   OH240237   2.782   0.055  13.883  0.0064  1.0099  0.3279
 6249TIP3    H140238   2.819   0.020  13.801  2.1436  0.2699  1.5275
 6249TIP3    H240239   2.760   0.146  13.862  0.8275  0.9358 -0.9778
 6250TIP3   OH240240   6.602   6.099  10.631 -0.3172 -0.0657 -0.1491
 6250TIP3    H140241   6.576   6.025  10.577 -1.5908 -0.7384  1.3041
 6250TIP3    H240242   6.522   6.126  10.676  0.2975  1.6686  0.0024
 6251TIP3   OH240243   1.064   3.828  14.772 -0.2760  0.4550 -0.2045
 6251TIP3    H140244   1.135   3.782  14.728  0.7350  0.3148  1.4943
 6251TIP3    H240245   1.022   3.879  14.703  0.7927 -0.2907 -1.4489
 6252TIP3   OH240246   3.474   5.240  16.189  0.0907  0.2774 -0.0118
 6252TIP3    H140247   3.531   5.187  16.245 -1.2437 -1.7018 -0.4119
 6252TIP3    H240248   3.511   5.231  16.101 -0.6068 -0.7613 -0.2209
 6253TIP3   OH240249   5.865   5.614  13.900  0.3270  0.2349 -0.5254
 6253TIP3    H140250   5.945   5.583  13.943  0.4277  1.8997  0.5727
 6253TIP3    H240251   5.826   5.676  13.962 -1.3656  0.1245 -1.4114
 6254TIP3   OH240252   5.963   6.367   5.563 -0.3761  0.2080  0.2908
 6254TIP3    H140253   5.942   6.399   5.475 -1.1400  0.8867  0.7045
 6254TIP3    H240254   5.977   6.446   5.615 -0.2292 -0.1794  0.8536
 6255TIP3   OH240255   6.725   2.218   3.396  0.0823  0.1212 -0.0235
 6255TIP3    H140256   6.657   2.286   3.397  0.2227  0.2821 -1.0765
 6255TIP3    H240257   6.796   2.256   3.345  0.8819 -0.1455  0.8649
 6256TIP3   OH240258   6.547   3.531   2.049  0.1065 -0.4525 -0.1504
 6256TIP3    H140259   6.520   3.446   2.012 -1.1598 -0.2878  0.3314
 6256TIP3    H240260   6.487   3.545   2.123 -0.3533  1.3016 -0.8027
 6257TIP3   OH240261   2.854   5.666   2.386  0.2519 -0.0562 -0.3058
 6257TIP3    H140262   2.811   5.743   2.422 -1.1744 -0.7710 -0.4112
 6257TIP3    H240263   2.801   5.592   2.416  0.1728 -0.8180 -2.1737
 6258TIP3   OH240264   4.166   0.249   5.824  0.6371  0.2592  0.2235
 6258TIP3    H140265   4.079   0.281   5.847  0.2688 -0.4062 -0.2172
 6258TIP3    H240266   4.205   0.223   5.908  0.0657 -0.2716  0.3303
 6259TIP3   OH240267   1.833   3.713   1.752  0.5486 -0.3472 -0.1707
 6259TIP3    H140268   1.786   3.794   1.733  1.5582  0.9206  2.3243
 6259TIP3    H240269   1.804   3.652   1.684 -2.3971  1.2241 -0.4772
 6260TIP3   OH240270   0.780   6.481  12.568 -0.3681 -0.3863 -0.8212
 6260TIP3    H140271   0.812   6.477  12.658 -0.0559  0.7936 -0.8554
 6260TIP3    H240272   0.687   6.457  12.574  0.3540 -3.6314 -0.6881
 6261TIP3   OH240273   4.785   4.262  14.594  0.0861  0.4543  0.4917
 6261TIP3    H140274   4.745   4.325  14.655  0.8231  2.3154 -0.8435
 6261TIP3    H240275   4.823   4.317  14.526 -2.0923 -1.5333 -2.5930
 6262TIP3   OH240276   5.892   2.589   3.653 -0.1502 -0.6463  0.1610
 6262TIP3    H140277   5.866   2.658   3.592  1.2013  0.3358  0.6474
 6262TIP3    H240278   5.985   2.604   3.668 -0.0579 -1.9557  1.1013
 6263TIP3   OH240279   2.094   2.868  14.152  0.7096 -0.0810  1.0107
 6263TIP3    H140280   2.070   2.954  14.186  1.2630  0.1448  0.8425
 6263TIP3    H240281   2.085   2.876  14.057  2.4225  0.3447  0.8396
 6264TIP3   OH240282   0.301   5.150  11.677  0.5852  0.4403  0.2062
 6264TIP3    H140283   0.366   5.193  11.734  0.5546  0.3517  0.3085
 6264TIP3    H240284   0.217   5.176  11.714  0.5704  0.0388  0.4590
 6265TIP3   OH240285   3.589   5.732  10.843  0.0772 -0.0876  0.0582
 6265TIP3    H140286   3.584   5.776  10.928 -2.4593 -0.6642  0.3015
 6265TIP3    H240287   3.545   5.793  10.783 -0.2641 -0.7289 -0.3462
 6266TIP3   OH240288   5.122   3.575   3.610  0.7194  0.1796 -0.2929
 6266TIP3    H140289   5.202   3.580   3.662  0.5513 -0.6881  0.0704
 6266TIP3    H240290   5.055   3.614   3.667  0.4759 -1.0371  0.3056
 6267TIP3   OH240291   1.947   3.067  17.270  0.2619  0.1504 -0.4038
 6267TIP3    H140292   1.943   3.108  17.184 -1.6962  0.2340 -0.3192
 6267TIP3    H240293   1.856   3.066  17.301  0.7681 -0.8393  1.2116
 6268TIP3   OH240294   4.066   3.874  11.474  1.0151 -0.1828 -0.5498
 6268TIP3    H140295   4.124   3.941  11.510 -0.5189  1.0214 -0.2181
 6268TIP3    H240296   3.982   3.888  11.518  0.1767 -1.2128 -1.7325
 6269TIP3   OH240297   3.710   0.544   2.683  0.2254 -0.0478 -0.3358
 6269TIP3    H140298   3.780   0.538   2.748 -0.4784 -0.2341  0.4112
 6269TIP3    H240299   3.655   0.616   2.714  1.3117  1.6924 -2.1509
 6270TIP3   OH240300   2.060   4.395   6.528 -0.0730 -0.4563 -0.4277
 6270TIP3    H140301   2.098   4.412   6.614 -0.6682 -0.9473 -0.0555
 6270TIP3    H240302   2.077   4.474   6.478 -0.9857  0.4298  0.6091
 6271TIP3   OH240303   1.353   6.080  15.030 -0.0553  0.0098 -0.0492
 6271TIP3    H140304   1.369   6.136  14.954  1.1374  0.8541  0.7973
 6271TIP3    H240305   1.281   6.123  15.076  0.2314  0.3333  0.1001
 6272TIP3   OH240306   3.998   1.958   4.762  0.3502 -0.0521 -0.2519
 6272TIP3    H140307   4.081   1.934   4.720  0.3702 -0.1573 -0.1497
 6272TIP3    H240308   4.003   1.920   4.849 -0.4973 -1.4721 -0.7940
 6273TIP3   OH240309   5.682   4.001   5.902  0.2864  0.2792 -0.3358
 6273TIP3    H140310   5.736   4.062   5.952  1.4907  0.3019 -1.5893
 6273TIP3    H240311   5.709   3.914   5.931 -0.5181  0.3028  0.5302
 6274TIP3   OH240312   2.241   4.509   2.054 -0.3667  0.6231 -0.0665
 6274TIP3    H140313   2.163   4.545   2.096 -1.6804  1.1018 -2.6948
 6274TIP3    H240314   2.207   4.458   1.980  1.7728 -0.1258 -0.6235
 6275TIP3   OH240315   4.863   1.459  17.134  0.4371  0.1193 -0.2061
 6275TIP3    H140316   4.835   1.550  17.149  1.0272  0.0462  1.6086
 6275TIP3    H240317   4.807   1.428  17.063 -2.3766  0.7282  1.6268
 6276TIP3   OH240318   4.509   4.317  11.347 -0.3931  0.0750  0.1597
 6276TIP3    H140319   4.545   4.292  11.262 -1.3510  0.2535 -0.3147
 6276TIP3    H240320   4.424   4.272  11.351  0.2811 -1.1935  1.6876
 6277TIP3   OH240321   5.320   1.397   4.815  0.2293  0.3809  0.6571
 6277TIP3    H140322   5.408   1.368   4.840  1.0608  1.7816 -0.5161
 6277TIP3    H240323   5.334   1.456   4.741 -1.6848  0.8539  0.6219
 6278TIP3   OH240324   6.593   1.619  15.073 -0.4783 -0.3973 -0.6268
 6278TIP3    H140325   6.530   1.639  15.142 -0.4484 -0.5062 -0.5676
 6278TIP3    H240326   6.589   1.694  15.013  1.1157  0.7879  0.6496
 6279TIP3   OH240327   2.985   2.733  15.038 -0.2482 -0.4038  0.1265
 6279TIP3    H140328   2.950   2.822  15.034  0.1827 -0.1754  1.1775
 6279TIP3    H240329   3.063   2.740  15.092  1.3500 -0.9424 -1.9536
 6280TIP3   OH240330   3.698   2.496   5.305  0.0460  0.5858  0.2846
 6280TIP3    H140331   3.713   2.420   5.360 -0.3856  2.2349  2.8815
 6280TIP3    H240332   3.782   2.542   5.303  0.2570  0.1581 -1.1001
 6281TIP3   OH240333   6.524   6.635   1.428  0.0062 -0.1189  0.0562
 6281TIP3    H140334   6.538   6.618   1.522  0.1287 -1.0857 -0.1285
 6281TIP3    H240335   6.602   6.684   1.401  0.2331 -0.3212  0.3387
 6282TIP3   OH240336   5.860   5.982  15.800 -0.0886  1.0518 -0.5166
 6282TIP3    H140337   5.925   5.920  15.833 -1.4563  0.0372  0.3625
 6282TIP3    H240338   5.904   6.026  15.727  2.3106  1.8661  1.2573
 6283TIP3   OH240339   6.149   5.221   2.342 -0.6118  0.2937  0.2661
 6283TIP3    H140340   6.235   5.182   2.355 -0.4743  0.4920 -0.0441
 6283TIP3    H240341   6.167   5.314   2.329 -0.8963  0.3828  0.5056
 6284TIP3   OH240342   0.653   3.251   6.089 -0.0591  0.1339  0.3402
 6284TIP3    H140343   0.655   3.335   6.134  0.8855  1.2498 -1.6476
 6284TIP3    H240344   0.600   3.195   6.146 -0.4840  1.9650  1.8675
 6285TIP3   OH240345   5.200   0.045   3.577 -0.0058  0.0942  0.0864
 6285TIP3    H140346   5.150   0.101   3.636 -1.6690 -1.1242 -0.1044
 6285TIP3    H240347   5.261  -0.001   3.634  2.8867  3.4269  0.0482
 6286TIP3   OH240348   6.135   0.658   2.681  0.1549 -0.1113 -0.3419
 6286TIP3    H140349   6.211   0.599   2.686 -0.3709 -0.8689 -0.9062
 6286TIP3    H240350   6.085   0.639   2.760 -0.1969 -0.7056 -0.6954
 6287TIP3   OH240351   4.539   6.578  12.328  0.1347  0.0111 -0.3977
 6287TIP3    H140352   4.572   6.490  12.308  0.5707 -1.0577  4.0357
 6287TIP3    H240353   4.618   6.631  12.338 -0.0733  0.5606 -1.5511
 6288TIP3   OH240354   3.267   6.620   4.060  0.3650 -0.0670 -0.3967
 6288TIP3    H140355   3.348   6.602   4.108  0.0574 -1.5292 -0.4029
 6288TIP3    H240356   3.233   6.534   4.037 -0.9589  0.5452 -0.8000
 6289TIP3   OH240357   1.962   6.597   2.264 -0.1082 -0.1492  0.4641
 6289TIP3    H140358   2.023   6.671   2.255  0.5154 -0.5726  1.1258
 6289TIP3    H240359   1.966   6.553   2.179  0.1945  0.0687  0.3602
 6290TIP3   OH240360   5.871   3.370   6.093  0.2560 -0.5425  0.5407
 6290TIP3    H140361   5.800   3.366   6.157  1.4696 -0.6687  1.9187
 6290TIP3    H240362   5.950   3.352   6.143  1.2973 -0.2386 -0.9287
 6291TIP3   OH240363   3.418   0.541  14.680 -0.1337 -0.3921 -0.2437
 6291TIP3    H140364   3.358   0.580  14.616 -0.1499 -1.1441 -0.7022
 6291TIP3    H240365   3.504   0.574  14.654 -0.3089  0.5363  0.2983
 6292TIP3   OH240366   2.745   2.780  14.133  0.1008  0.2908 -0.0723
 6292TIP3    H140367   2.686   2.716  14.094  0.1082  1.2697 -1.8224
 6292TIP3    H240368   2.693   2.860  14.140  0.8482  0.8314 -0.5004
 6293TIP3   OH240369   0.888   3.715   0.748 -0.6309 -0.0111  0.2804
 6293TIP3    H140370   0.924   3.656   0.814  0.9178 -0.0154 -0.5201
 6293TIP3    H240371   0.900   3.668   0.665  1.6646  1.7792 -0.5274
 6294TIP3   OH240372   0.440   2.172  15.162 -0.0390  0.3230  0.1597
 6294TIP3    H140373   0.370   2.118  15.124  0.2555 -1.2605  1.7231
 6294TIP3    H240374   0.395   2.247  15.199 -1.3348 -1.6235  2.9201
 6295TIP3   OH240375   3.976   1.384  15.900 -0.2118 -0.3668  0.3853
 6295TIP3    H140376   3.983   1.449  15.830 -0.2656 -0.0249  0.6926
 6295TIP3    H240377   3.952   1.435  15.977  3.1548 -0.1672  1.4770
 6296TIP3   OH240378   4.018   3.921  12.829  0.0440  0.3796  0.0844
 6296TIP3    H140379   3.976   3.886  12.908  1.4362  1.6899  1.4578
 6296TIP3    H240380   4.085   3.857  12.808  1.4799  1.2886  1.6216
 6297TIP3   OH240381   0.394   4.443   2.119 -0.3055 -0.1985  0.6308
 6297TIP3    H140382   0.351   4.458   2.203  0.0944 -0.5967  0.9136
 6297TIP3    H240383   0.340   4.490   2.055 -0.2472  0.6627  1.1959
 6298TIP3   OH240384   1.377   4.984   5.356  0.5929 -0.1120  0.6173
 6298TIP3    H140385   1.332   4.930   5.421 -0.1912  0.8284  0.8684
 6298TIP3    H240386   1.308   5.033   5.313  1.0889 -0.8188 -1.0613
 6299TIP3   OH240387   2.457   3.392  11.243 -0.3781 -0.5559 -0.4331
 6299TIP3    H140388   2.530   3.333  11.262  0.8518  0.5627 -1.4957
 6299TIP3    H240389   2.410   3.400  11.326  0.9922 -0.9406  0.4083
 6300TIP3   OH240390   3.954   1.980   2.315  0.1762  0.1535  0.5099
 6300TIP3    H140391   3.936   1.991   2.409 -1.1561  1.4044  0.1397
 6300TIP3    H240392   3.886   1.920   2.285 -0.9397  1.6794 -0.1088
 6301TIP3   OH240393   0.274   6.500   3.752  0.1651  0.3452  0.0473
 6301TIP3    H140394   0.290   6.497   3.846  0.1953  1.9473  0.1272
 6301TIP3    H240395   0.192   6.548   3.743  1.1603  2.0134 -0.7785
 6302TIP3   OH240396   3.110   4.150  14.075 -0.2431 -0.8656  0.4836
 6302TIP3    H140397   3.190   4.125  14.122 -1.1861  0.2747  2.8529
 6302TIP3    H240398   3.076   4.067  14.041  1.9936 -1.3597 -0.7558
 6303TIP3   OH240399   4.296   3.889  14.980  0.1971  0.3690 -0.0206
 6303TIP3    H140400   4.209   3.930  14.982 -0.0606 -0.1915  1.3425
 6303TIP3    H240401   4.319   3.876  15.072  0.4711 -2.0792 -0.3680
 6304TIP3   OH240402   6.636   2.059  15.305  0.4013 -0.0277 -0.5943
 6304TIP3    H140403   6.715   2.075  15.254  0.4525  0.6605 -0.3055
 6304TIP3    H240404   6.637   2.126  15.374  0.0307 -0.5704 -0.0465
 6305TIP3   OH240405   4.209   6.591   3.130  0.5955 -0.4531  0.6060
 6305TIP3    H140406   4.218   6.656   3.199  1.2792  0.4448 -0.3023
 6305TIP3    H240407   4.283   6.532   3.144  0.1874 -0.8443  1.2014
 6306TIP3   OH240408   0.285   1.359  17.300 -0.0842  0.2028  0.7862
 6306TIP3    H140409   0.372   1.318  17.296 -0.1480  0.1613 -2.0176
 6306TIP3    H240410   0.258   1.348  17.391  1.4621 -2.7340  1.0198
 6307TIP3   OH240411   2.397   0.275  12.349  0.4897 -0.3626  0.0949
 6307TIP3    H140412   2.416   0.181  12.340  2.6059 -0.1559  1.5946
 6307TIP3    H240413   2.305   0.283  12.323 -0.2169 -3.1044  1.3138
 6308TIP3   OH240414   6.399   2.220   2.714 -0.5218  0.6797  0.3168
 6308TIP3    H140415   6.384   2.308   2.678 -0.8013  0.4161 -0.2180
 6308TIP3    H240416   6.312   2.180   2.716 -0.1685 -0.2260 -1.1272
 6309TIP3   OH240417   3.427   6.110  10.989 -0.2718 -0.4363  0.0332
 6309TIP3    H140418   3.362   6.179  11.002  0.5922  0.6491 -1.1335
 6309TIP3    H240419   3.376   6.029  10.986 -1.4620  0.2891  0.0721
 6310TIP3   OH240420   3.670   2.104   2.577 -0.2765 -0.6200 -0.6303
 6310TIP3    H140421   3.720   2.023   2.592  0.6554 -0.0558 -0.6255
 6310TIP3    H240422   3.589   2.092   2.627  1.2562 -0.1994  2.1582
 6311TIP3   OH240423   6.718   4.381  12.386  0.0916 -0.5065  0.3160
 6311TIP3    H140424   6.796   4.334  12.415 -1.0417 -3.4571 -1.0035
 6311TIP3    H240425   6.655   4.369  12.457  0.3535  0.7006  0.7803
 6312TIP3   OH240426   0.087   4.142  16.802 -0.4061 -0.0092 -0.2840
 6312TIP3    H140427   0.040   4.158  16.884  1.2158  0.0517  0.6814
 6312TIP3    H240428   0.088   4.046  16.794  0.1670 -0.0458  0.2158
 6313TIP3   OH240429   5.748   1.002   3.267 -0.4415 -0.0061  0.2084
 6313TIP3    H140430   5.773   1.084   3.225 -1.6143  0.2606 -0.0068
 6313TIP3    H240431   5.831   0.962   3.292  0.3444 -0.2541 -2.4726
 6314TIP3   OH240432   2.569   4.015  12.879 -0.0561 -0.2256 -0.6946
 6314TIP3    H140433   2.578   4.107  12.857 -0.3337  0.0436  0.2788
 6314TIP3    H240434   2.528   3.975  12.802 -0.9510  0.6697 -0.6935
 6315TIP3   OH240435   1.210   0.636   0.935  0.0543 -0.3283  0.1360
 6315TIP3    H140436   1.202   0.677   0.849 -3.2909  1.0394  0.9424
 6315TIP3    H240437   1.249   0.703   0.991 -0.1095 -0.2932  0.2103
 6316TIP3   OH240438   0.912   5.072   1.513  0.3955 -0.0060  0.1465
 6316TIP3    H140439   0.957   4.997   1.550 -1.3335 -1.3480 -0.3590
 6316TIP3    H240440   0.836   5.085   1.569  0.0725  0.6634 -0.4330
 6317TIP3   OH240441   6.028   5.612   1.095  0.1794 -0.3672 -0.5910
 6317TIP3    H140442   5.997   5.695   1.057 -0.3009  0.0651  0.6912
 6317TIP3    H240443   5.957   5.550   1.079 -1.1252  0.4260  1.6530
 6318TIP3   OH240444   6.517   2.064   3.091 -0.2184  0.2862  0.5230
 6318TIP3    H140445   6.471   2.131   3.142 -2.1601  0.0877 -0.8645
 6318TIP3    H240446   6.572   2.018   3.155  0.4355  2.5406  1.6872
 6319TIP3   OH240447   5.419   6.537   2.816  0.0345  0.1401 -0.1939
 6319TIP3    H140448   5.435   6.560   2.908  1.9451 -1.7189  0.0303
 6319TIP3    H240449   5.333   6.494   2.816 -1.3362  2.6946  0.1557
 6320TIP3   OH240450   0.805   1.838  10.637  0.6300  0.3672  0.1098
 6320TIP3    H140451   0.805   1.908  10.703 -0.3103 -0.6581  1.2548
 6320TIP3    H240452   0.841   1.879  10.558  0.5687  1.9962  0.8855
 6321TIP3   OH240453   0.632   5.536  13.298  0.6823 -0.0933 -0.7238
 6321TIP3    H140454   0.569   5.465  13.305  1.5733 -0.9150 -0.7014
 6321TIP3    H240455   0.710   5.495  13.259  1.1010  0.9488 -1.0363
 6322TIP3   OH240456   4.824   3.950  11.666  0.7652  0.4883  0.0310
 6322TIP3    H140457   4.834   3.857  11.689 -0.3329 -0.2974 -2.3136
 6322TIP3    H240458   4.912   3.986  11.676  1.2760 -0.8792  0.7270
 6323TIP3   OH240459   0.924   3.397  17.076  0.1376 -0.2728  0.6321
 6323TIP3    H140460   0.872   3.476  17.062 -0.6449 -0.5676  1.7216
 6323TIP3    H240461   0.875   3.347  17.141  1.0048 -1.3039  0.5266
 6324TIP3   OH240462   5.019   1.056  16.004  0.1688  0.7300  0.1570
 6324TIP3    H140463   5.013   0.961  16.012  1.9504  0.6677  1.6087
 6324TIP3    H240464   4.938   1.089  16.043  0.2531 -0.1864  1.1409
 6325TIP3   OH240465   3.908   2.107  13.296  0.6812  0.0089  0.0179
 6325TIP3    H140466   3.864   2.112  13.211  0.3166 -0.1368  0.1971
 6325TIP3    H240467   3.979   2.171  13.290 -0.0976  0.9053  0.0463
 6326TIP3   OH240468   5.581   4.064   3.860 -0.1741 -0.6266 -0.2497
 6326TIP3    H140469   5.537   4.111   3.931  1.4551  1.1396 -0.3339
 6326TIP3    H240470   5.523   4.075   3.784 -0.9112 -0.7441  0.2841
 6327TIP3   OH240471   3.990   2.415  13.891  0.9187  0.2535  0.4472
 6327TIP3    H140472   3.992   2.434  13.797 -1.0896 -0.3438  0.2472
 6327TIP3    H240473   3.998   2.501  13.933 -2.1208  1.0387 -0.3622
 6328TIP3   OH240474   4.430   0.273  10.977  0.3616 -0.0331 -0.6963
 6328TIP3    H140475   4.464   0.283  10.889  0.7696 -2.7421 -0.9493
 6328TIP3    H240476   4.370   0.198  10.971  2.0166 -1.7016  1.6668
 6329TIP3   OH240477   4.661   5.179   1.821 -0.2597 -0.3353 -0.3834
 6329TIP3    H140478   4.729   5.243   1.842 -1.4084  0.6927  0.2791
 6329TIP3    H240479   4.710   5.100   1.798  1.1631  0.2894  0.3468
 6330TIP3   OH240480   4.315   4.202  17.175 -0.4876  0.2795 -0.4966
 6330TIP3    H140481   4.389   4.262  17.173 -1.1932  1.4736  2.7720
 6330TIP3    H240482   4.332   4.140  17.104  4.1421 -0.1257  0.6541
 6331TIP3   OH240483   1.737   6.673  12.584  0.5787 -0.5649  0.2417
 6331TIP3    H140484   1.680   6.658  12.659  0.5953 -0.1566  0.3386
 6331TIP3    H240485   1.682   6.722  12.522  0.4923 -1.0876 -0.1104
 6332TIP3   OH240486   2.070   1.315  12.927 -0.3463 -0.7652  0.1220
 6332TIP3    H140487   2.139   1.281  12.870 -0.6355 -0.2655 -0.5418
 6332TIP3    H240488   2.111   1.385  12.976  0.3046 -2.1424  1.6314
 6333TIP3   OH240489   0.347   4.996  11.441 -0.3360 -0.5924 -0.2176
 6333TIP3    H140490   0.437   4.997  11.473 -0.2976  0.0304 -0.3295
 6333TIP3    H240491   0.301   5.058  11.498 -0.9867 -1.8162  0.6402
 6334TIP3   OH240492   0.632   6.349   2.888 -0.3526  0.0663 -0.2895
 6334TIP3    H140493   0.615   6.406   2.813  0.9227 -0.5173 -1.0563
 6334TIP3    H240494   0.631   6.408   2.964  1.6248  1.2773 -1.1302
 6335TIP3   OH240495   3.141   5.560   1.617  0.2074  0.1177 -0.1551
 6335TIP3    H140496   3.202   5.535   1.547 -0.4441 -0.0075 -0.6926
 6335TIP3    H240497   3.135   5.482   1.672  2.1147  0.7923  1.1061
 6336TIP3   OH240498   1.878   2.698   0.600 -0.2036 -0.2732  0.5048
 6336TIP3    H140499   1.861   2.779   0.552  0.3146 -0.3471  0.1775
 6336TIP3    H240500   1.938   2.725   0.670 -0.5934 -0.2468  0.8246
 6337TIP3   OH240501   2.607   5.424   5.567 -0.4946 -0.0535  0.3552
 6337TIP3    H140502   2.680   5.377   5.528 -1.1925  0.3756 -1.5535
 6337TIP3    H240503   2.540   5.357   5.582  0.0382 -0.3420  1.5413
 6338TIP3   OH240504   1.804   4.834   5.668  0.6144  0.1412 -0.5073
 6338TIP3    H140505   1.723   4.854   5.621 -0.4338  1.1931  1.5990
 6338TIP3    H240506   1.775   4.793   5.750  1.8785  3.2474  1.6983
 6339TIP3   OH240507   2.007   1.675  16.765 -0.4632  0.0385  0.7014
 6339TIP3    H140508   1.946   1.602  16.748  0.6178 -0.4314 -1.4818
 6339TIP3    H240509   2.036   1.703  16.678  1.1826  1.3498  1.6153
 6340TIP3   OH240510   3.994   3.566   1.083 -0.0617 -0.2078 -0.2935
 6340TIP3    H140511   4.069   3.507   1.074  0.2263  0.1132 -0.0334
 6340TIP3    H240512   4.012   3.637   1.022  0.0260  0.0537  0.0362
 6341TIP3   OH240513   2.061   2.155  12.107 -0.3424 -0.5828 -0.0764
 6341TIP3    H140514   2.017   2.205  12.175 -2.0606 -0.1581 -1.4102
 6341TIP3    H240515   2.015   2.178  12.026  0.5603 -2.2794 -1.1604
 6342TIP3   OH240516   6.488   4.728  14.696  0.1040  0.4247 -0.0902
 6342TIP3    H140517   6.403   4.749  14.736 -0.1550 -1.1326  0.2239
 6342TIP3    H240518   6.470   4.723  14.603 -0.2431 -0.2490  0.0046
 6343TIP3   OH240519   1.045   6.421   1.906  0.4614  0.3168  0.1494
 6343TIP3    H140520   0.994   6.426   1.986  0.0533  0.8918 -0.1431
 6343TIP3    H240521   1.040   6.508   1.868  0.3839 -0.0299 -0.6642
 6344TIP3   OH240522   0.512   3.525  17.258 -0.8445  0.1393  0.8751
 6344TIP3    H140523   0.590   3.517  17.314 -0.7109  0.8104  0.7967
 6344TIP3    H240524   0.465   3.443  17.270  0.8618 -1.1147 -0.5905
 6345TIP3   OH240525   2.298   3.211   0.673  0.2620  0.6571 -0.0555
 6345TIP3    H140526   2.211   3.171   0.669 -0.3464  1.8497  0.9214
 6345TIP3    H240527   2.298   3.262   0.754  2.0586  0.2720  0.2268
 6346TIP3   OH240528   3.891   0.824  12.438 -0.2625  0.5968  0.1896
 6346TIP3    H140529   3.810   0.817  12.387  0.0852  1.3527 -0.4853
 6346TIP3    H240530   3.917   0.916  12.430 -1.0728  1.1809  3.1115
 6347TIP3   OH240531   4.497   4.493   1.842 -0.5133 -0.4938  0.0647
 6347TIP3    H140532   4.509   4.482   1.937 -2.8287 -0.6276  0.4084
 6347TIP3    H240533   4.488   4.587   1.830  2.1974 -0.2225 -0.4338
 6348TIP3   OH240534   4.082   2.013   5.374  0.8801 -0.2236 -0.0732
 6348TIP3    H140535   4.105   2.086   5.317  1.2723  0.0515  0.4280
 6348TIP3    H240536   4.164   1.990   5.417  0.5408 -0.2830  0.5481
 6349TIP3   OH240537   4.074   2.916  10.302 -0.2885 -0.2196 -0.0651
 6349TIP3    H140538   3.989   2.942  10.337 -0.0770  1.2492 -0.5949
 6349TIP3    H240539   4.131   2.910  10.379 -0.4811  0.3971  0.1316
 6350TIP3   OH240540   3.136   5.903  12.936  0.6405 -0.5083  0.3299
 6350TIP3    H140541   3.131   5.869  12.847  0.0318  0.0252  0.1489
 6350TIP3    H240542   3.096   5.834  12.990  0.0206 -0.3792  0.0503
 6351TIP3   OH240543   2.826   2.247  15.013 -0.6492  0.3892 -0.1270
 6351TIP3    H140544   2.792   2.280  14.930  0.8299  1.1851 -0.4524
 6351TIP3    H240545   2.840   2.325  15.066  1.8260  0.2710 -0.4873
 6352TIP3   OH240546   5.912   6.422   4.781 -0.0946  0.0488 -0.1288
 6352TIP3    H140547   5.894   6.329   4.793 -0.1256  0.0329 -0.2841
 6352TIP3    H240548   5.837   6.453   4.730 -0.3503  0.2727  0.3803
 6353TIP3   OH240549   1.574   5.655  15.135 -0.1411  0.3378  0.2850
 6353TIP3    H140550   1.617   5.719  15.078  1.6466 -0.6021  0.5126
 6353TIP3    H240551   1.501   5.704  15.175 -1.0568  1.2126 -2.2457
 6354TIP3   OH240552   0.307   0.285   5.441  0.0192  0.1449 -0.3702
 6354TIP3    H140553   0.259   0.207   5.470  1.6221 -0.4099  0.9387
 6354TIP3    H240554   0.313   0.340   5.519  0.8758  0.5216 -0.6932
 6355TIP3   OH240555   5.585   0.504  13.005  0.3383 -0.0446 -1.0872
 6355TIP3    H140556   5.514   0.496  13.069  0.6636  1.1237 -0.5556
 6355TIP3    H240557   5.664   0.482  13.054  0.5039  0.0767 -1.3002
 6356TIP3   OH240558   2.117   0.102  13.766  0.5664 -0.0160  0.0179
 6356TIP3    H140559   2.034   0.131  13.804 -0.1399 -0.1295 -1.3457
 6356TIP3    H240560   2.165   0.063  13.839 -0.4029  0.4224  0.9207
 6357TIP3   OH240561   5.442   6.469   1.520 -0.0985  0.3200  0.7291
 6357TIP3    H140562   5.469   6.390   1.473 -0.2682  2.0232 -2.5372
 6357TIP3    H240563   5.349   6.454   1.541 -1.2870  0.8552 -3.1796
 6358TIP3   OH240564   0.221   2.989  13.298  0.1487 -0.2087  0.0977
 6358TIP3    H140565   0.173   3.021  13.221  0.7277 -0.7167 -0.4833
 6358TIP3    H240566   0.227   2.894  13.286 -0.8275 -0.4683  1.3944
 6359TIP3   OH240567   1.823   5.055  12.977 -0.0917 -0.2711  1.2716
 6359TIP3    H140568   1.749   5.003  13.010 -0.7583 -0.2603 -0.1410
 6359TIP3    H240569   1.782   5.121  12.921  1.1092 -1.9941 -1.8754
 6360TIP3   OH240570   4.934   5.230   1.196 -0.0763 -0.0495 -0.0185
 6360TIP3    H140571   4.858   5.180   1.165 -0.4935  0.8004 -0.4138
 6360TIP3    H240572   5.000   5.216   1.128 -0.2105 -0.0151 -0.1574
 6361TIP3   OH240573   2.142   5.573   4.125  0.2384 -0.0158  0.9552
 6361TIP3    H140574   2.088   5.589   4.048 -0.2533 -0.7638  1.1235
 6361TIP3    H240575   2.177   5.485   4.112  1.3084  0.3958  0.9303
 6362TIP3   OH240576   0.142   1.212  12.401  0.2288 -0.5944 -0.0426
 6362TIP3    H140577   0.079   1.208  12.328 -2.0215 -1.7523  1.8280
 6362TIP3    H240578   0.183   1.126  12.401  0.3754 -0.5252 -0.0374
 6363TIP3   OH240579   1.186   3.344  11.082 -0.0601 -0.6154 -0.0125
 6363TIP3    H140580   1.128   3.392  11.140 -0.0448 -0.8951  0.2361
 6363TIP3    H240581   1.159   3.371  10.994  2.4562  2.8365  0.0937
 6364TIP3   OH240582   0.419   6.724   0.484 -0.3631 -0.5652 -0.1794
 6364TIP3    H140583   0.325   6.715   0.497 -0.7104 -0.5400 -2.3937
 6364TIP3    H240584   0.443   6.802   0.533 -1.9859  0.9221 -1.6378
 6365TIP3   OH240585   3.351   3.176   1.246 -0.3101 -0.1077  0.2481
 6365TIP3    H140586   3.310   3.109   1.301  0.0217  0.6960  1.5055
 6365TIP3    H240587   3.354   3.254   1.301  1.9118  0.1632 -0.1704
 6366TIP3   OH240588   2.043   0.979   2.684  0.4092  0.1370  0.1287
 6366TIP3    H140589   1.958   0.960   2.645  1.5479  0.0003 -2.5259
 6366TIP3    H240590   2.048   1.075   2.685 -0.3426  0.2022  1.7980
 6367TIP3   OH240591   4.128   4.801  16.003  0.0859 -0.2083  0.5255
 6367TIP3    H140592   4.162   4.842  15.924 -0.8052 -0.9450 -0.2562
 6367TIP3    H240593   4.207   4.781  16.055  0.5689  2.0453  0.7567
 6368TIP3   OH240594   0.004   5.051  13.797  0.2827  0.4181  0.3647
 6368TIP3    H140595   0.006   4.958  13.773  0.2429  1.0929 -2.7926
 6368TIP3    H240596  -0.057   5.056  13.870  0.3605 -2.0465  0.6681
 6369TIP3   OH240597   6.065   5.779   1.325 -0.5656  0.1833 -0.0573
 6369TIP3    H140598   6.002   5.849   1.306 -1.6032 -1.0795 -1.5363
 6369TIP3    H240599   6.058   5.720   1.250  2.0512 -0.2789 -0.0239
 6370TIP3   OH240600   1.110   6.655  11.633  0.2216 -0.5997  0.0757
 6370TIP3    H140601   1.107   6.654  11.729  3.4425 -0.4892  0.3055
 6370TIP3    H240602   1.142   6.567  11.610  1.6545  0.0900 -0.6800
 6371TIP3   OH240603   1.958   5.106   4.213 -0.4672 -0.0010 -0.1291
 6371TIP3    H140604   1.982   5.196   4.233 -3.0027  0.8548 -0.5745
 6371TIP3    H240605   1.891   5.083   4.278  0.7779 -1.9247  0.5633
 6372TIP3   OH240606   0.832   3.777  15.251 -0.4160  0.3342  0.0182
 6372TIP3    H140607   0.915   3.792  15.295 -0.8798 -0.5541  1.2235
 6372TIP3    H240608   0.848   3.805  15.160  0.4392  2.5353  0.7905
 6373TIP3   OH240609   1.379   1.654  16.197 -0.9296 -0.2966  0.0980
 6373TIP3    H140610   1.445   1.704  16.150  0.0315 -0.6357  1.0410
 6373TIP3    H240611   1.342   1.596  16.130  1.2948 -1.6811 -0.0507
 6374TIP3   OH240612   0.822   0.987   4.342  0.2530 -0.5164  0.2845
 6374TIP3    H140613   0.806   1.024   4.255  0.9795 -0.6984  0.0622
 6374TIP3    H240614   0.918   0.985   4.349  0.2234  0.7315  1.6101
 6375TIP3   OH240615   3.680   6.501  13.638  0.3496 -0.5215  0.0158
 6375TIP3    H140616   3.774   6.494  13.658  0.3931 -1.6953 -0.5197
 6375TIP3    H240617   3.672   6.465  13.550 -0.3343  1.4456 -0.7826
 6376TIP3   OH240618   3.621   1.670   0.733 -0.2953 -0.3194 -0.1667
 6376TIP3    H140619   3.687   1.612   0.769 -1.0173 -1.1350 -0.1260
 6376TIP3    H240620   3.635   1.668   0.639  0.5504  0.5319 -0.0737
 6377TIP3   OH240621   0.106   6.029  16.272 -0.6243  0.5751 -0.3157
 6377TIP3    H140622   0.085   5.981  16.352 -0.8793  0.8566 -0.2113
 6377TIP3    H240623   0.187   6.076  16.292  1.4605 -2.2307 -1.4257
 6378TIP3   OH240624   1.004   6.238   4.864  0.1707 -0.2003 -0.1658
 6378TIP3    H140625   0.915   6.272   4.871  0.2278  0.4001 -1.9078
 6378TIP3    H240626   1.015   6.219   4.771  1.5186 -1.2493  0.1785
 6379TIP3   OH240627   0.287   6.313   1.637 -0.0022 -0.1634 -0.2815
 6379TIP3    H140628   0.275   6.228   1.595  1.6594 -0.7960  0.4533
 6379TIP3    H240629   0.378   6.337   1.618 -0.2980  1.2243 -0.0639
 6380TIP3   OH240630   4.390   3.753   5.655 -0.1569 -0.0536 -0.3522
 6380TIP3    H140631   4.380   3.839   5.697  0.3614 -0.5821  0.8953
 6380TIP3    H240632   4.338   3.760   5.575 -0.6805  1.2017  0.0641
 6381TIP3   OH240633   4.861   5.283   1.530 -0.2138  0.3205 -0.1574
 6381TIP3    H140634   4.784   5.314   1.578 -1.1685 -0.6303 -1.0041
 6381TIP3    H240635   4.834   5.198   1.495  1.5439 -0.4433  0.2528
 6382TIP3   OH240636   0.172   2.213  16.212 -0.3413  0.0149 -0.4868
 6382TIP3    H140637   0.100   2.204  16.274 -0.3977  0.2549 -0.5143
 6382TIP3    H240638   0.248   2.179  16.258 -0.6395 -1.0592 -0.7755
 6383TIP3   OH240639   1.577   0.102   1.508 -0.7170 -0.1996 -0.1630
 6383TIP3    H140640   1.487   0.070   1.509 -0.7746 -0.0768 -0.8468
 6383TIP3    H240641   1.603   0.098   1.416 -0.2579  0.4308 -0.0707
 6384TIP3   OH240642   6.214   5.459   0.935  0.0635  0.3211  0.4852
 6384TIP3    H140643   6.265   5.386   0.971  0.0808  0.6592  1.1611
 6384TIP3    H240644   6.147   5.476   1.000 -0.4387  0.3948 -0.0417
 6385TIP3   OH240645   2.479   0.982  12.623  0.1577  0.1292 -0.0162
 6385TIP3    H140646   2.509   0.897  12.592 -0.0235 -0.6869  1.9456
 6385TIP3    H240647   2.411   0.962  12.687  1.8496  1.6060  2.3839
 6386TIP3   OH240648   3.655   5.820   0.601  0.3039 -0.5682  0.5579
 6386TIP3    H140649   3.619   5.788   0.519  0.4429  0.7958 -0.0723
 6386TIP3    H240650   3.734   5.867   0.576  0.9428 -1.0658  1.6024
 6387TIP3   OH240651   4.595   6.584   3.790 -0.3060  0.4989  0.3791
 6387TIP3    H140652   4.672   6.593   3.846 -1.7359  3.7417  2.1463
 6387TIP3    H240653   4.545   6.512   3.828  0.9687 -0.5064  0.2352
 6388TIP3   OH240654   1.546   0.316   2.829  0.1361  0.2182  0.4310
 6388TIP3    H140655   1.500   0.392   2.865 -0.4919  0.0792 -0.0446
 6388TIP3    H240656   1.503   0.300   2.745  0.5114 -0.4298  0.3532
 6389TIP3   OH240657   1.096   3.570  13.652 -0.1850  0.2687 -0.1447
 6389TIP3    H140658   1.121   3.617  13.573 -0.0827  0.1320 -0.1918
 6389TIP3    H240659   1.055   3.489  13.621  0.2381  0.0187 -0.0491
 6390TIP3   OH240660   5.774   1.318   0.550 -0.3341 -0.2646  0.4170
 6390TIP3    H140661   5.719   1.250   0.587  1.8934 -1.4116  1.8261
 6390TIP3    H240662   5.751   1.319   0.456 -2.2355 -1.0934  0.8193
 6391TIP3   OH240663   4.698   6.610  16.824 -0.2626  0.5878  0.2179
 6391TIP3    H140664   4.684   6.593  16.730  0.2542  0.7852  0.1040
 6391TIP3    H240665   4.626   6.563  16.867  0.8546 -1.5702 -0.1233
 6392TIP3   OH240666   3.247   2.013   1.002 -0.1139 -0.3250  0.3317
 6392TIP3    H140667   3.288   1.974   0.925 -1.6927 -2.3489  0.4064
 6392TIP3    H240668   3.297   1.978   1.076  0.3078  0.2023  0.3005
 6393TIP3   OH240669   1.498   3.415  15.318 -0.3760 -0.1866  0.2757
 6393TIP3    H140670   1.584   3.373  15.322  0.8559  1.8241 -2.2689
 6393TIP3    H240671   1.439   3.346  15.287  0.4913 -1.2925  0.9874
 6394TIP3   OH240672   1.028   5.232  11.734 -0.1101 -0.6361  0.1402
 6394TIP3    H140673   0.933   5.235  11.749  0.1373  1.2957  1.7311
 6394TIP3    H240674   1.066   5.227  11.822  1.2919  0.8910 -0.3403
 6395TIP3   OH240675   3.491   3.214   4.049  0.4200  0.2902  0.3342
 6395TIP3    H140676   3.504   3.243   4.139  1.3046 -2.0861  1.0528
 6395TIP3    H240677   3.544   3.135   4.041 -1.4822 -0.9135 -1.5546
 6396TIP3   OH240678   6.814   4.674   0.002 -0.1454  0.1453 -0.1570
 6396TIP3    H140679   6.719   4.676   0.003 -0.1898  3.3853  0.7176
 6396TIP3    H240680   6.841   4.746   0.059  2.7946  0.3441 -1.5563
 6397TIP3   OH240681   5.404   5.849   3.445 -0.6835 -0.2755 -0.3547
 6397TIP3    H140682   5.493   5.886   3.448 -1.1240  0.8632  2.9242
 6397TIP3    H240683   5.348   5.923   3.423 -1.0649 -0.2292  0.7053
 6398TIP3   OH240684   0.729   5.491  14.210 -0.1123 -0.0818  0.0836
 6398TIP3    H140685   0.737   5.483  14.115  0.2141 -0.3541  0.1343
 6398TIP3    H240686   0.753   5.405  14.244 -1.3145 -0.3381  0.3576
 6399TIP3   OH240687   4.913   2.118  12.786 -0.4449  0.4236 -0.4477
 6399TIP3    H140688   4.888   2.047  12.844  2.9315 -1.0848 -0.5875
 6399TIP3    H240689   4.901   2.083  12.698  0.6422  0.2022 -0.5249
 6400TIP3   OH240690   6.250   5.057  14.704  0.5524 -0.1579 -0.4007
 6400TIP3    H140691   6.222   5.057  14.612 -1.0540 -0.5655  0.0628
 6400TIP3    H240692   6.257   4.964  14.726 -0.9430 -0.1149  0.3978
 6401TIP3   OH240693   3.083   6.530  15.721 -0.0441  0.3210  0.2206
 6401TIP3    H140694   3.133   6.601  15.761 -0.8650  0.5546  0.8683
 6401TIP3    H240695   3.002   6.572  15.691 -0.3372 -0.2532  0.1936
 6402TIP3   OH240696   3.286   3.015   2.643  0.5202 -0.2321  0.2293
 6402TIP3    H140697   3.207   2.961   2.650  2.3487 -2.9387  1.9571
 6402TIP3    H240698   3.325   2.987   2.560  0.3008  0.2253 -0.0337
 6403TIP3   OH240699   3.299   5.133  13.422  0.2251  0.2322  0.2569
 6403TIP3    H140700   3.394   5.124  13.432  0.3816  0.3161 -1.0012
 6403TIP3    H240701   3.265   5.044  13.421  0.0143  0.2121  2.7882
 6404TIP3   OH240702   2.298   1.468  12.363 -0.1270  0.1071 -0.3572
 6404TIP3    H140703   2.303   1.526  12.439  1.8895  0.7249 -0.9085
 6404TIP3    H240704   2.241   1.514  12.302 -0.6934  0.2328  0.2479
 6405TIP3   OH240705   1.725   4.348  14.107 -0.6946  0.3741  0.5725
 6405TIP3    H140706   1.665   4.382  14.174 -0.3804  1.9655  0.1007
 6405TIP3    H240707   1.671   4.336  14.030 -0.3129  2.8490 -0.1845
 6406TIP3   OH240708   6.700   0.691  15.621 -0.4488  0.0764 -0.1444
 6406TIP3    H140709   6.762   0.764  15.613  0.3592 -0.6228 -0.4276
 6406TIP3    H240710   6.731   0.627  15.557 -0.4983 -0.9715  0.8466
 6407TIP3   OH240711   5.175   5.854   5.451  0.0957  0.8019  0.2787
 6407TIP3    H140712   5.224   5.885   5.527 -1.4676  0.5856  1.4197
 6407TIP3    H240713   5.226   5.780   5.418 -0.5533 -0.9708  2.8871
 6408TIP3   OH240714   3.074   2.588  11.852 -0.2215 -0.7777 -0.2429
 6408TIP3    H140715   3.010   2.617  11.787 -0.7123  0.7635  0.8370
 6408TIP3    H240716   3.027   2.523  11.904 -1.0623  0.4884  0.6673
 6409TIP3   OH240717   0.139   1.640   4.739  0.0966  0.1145 -0.1026
 6409TIP3    H140718   0.054   1.615   4.703 -0.6535 -0.7974  2.0928
 6409TIP3    H240719   0.203   1.603   4.678 -1.0672 -0.0720 -1.2455
 6410TIP3   OH240720   3.680   2.725  13.886  0.1187  0.0827 -0.5818
 6410TIP3    H140721   3.669   2.811  13.926 -1.1092  0.1697 -1.0673
 6410TIP3    H240722   3.712   2.669  13.958 -0.3029  0.6544  0.0599
 6411TIP3   OH240723   3.168   0.926  15.367 -0.0935 -0.2529  0.0258
 6411TIP3    H140724   3.242   0.985  15.357 -0.3061  0.1923  0.9640
 6411TIP3    H240725   3.196   0.845  15.323  0.1427  0.5637 -1.4091
 6412TIP3   OH240726   1.075   0.908   4.198  0.1691 -0.8453 -0.3670
 6412TIP3    H140727   1.103   0.955   4.120  0.2098 -0.6805 -0.2522
 6412TIP3    H240728   1.145   0.844   4.213  1.1903  0.4470  0.6993
 6413TIP3   OH240729   0.054   0.359   3.691 -0.5077 -0.1254 -0.1500
 6413TIP3    H140730  -0.040   0.361   3.713  0.0847  0.8007  2.7488
 6413TIP3    H240731   0.061   0.412   3.612 -2.2620  1.1730  0.5040
 6414TIP3   OH240732   6.684   0.302   2.712  0.2392 -0.2687 -0.0827
 6414TIP3    H140733   6.739   0.295   2.790  1.0496 -0.9441 -0.7007
 6414TIP3    H240734   6.723   0.373   2.661  0.2149 -0.3865 -0.2656
 6415TIP3   OH240735   1.447   4.268   2.148 -0.2080 -0.0842 -0.1009
 6415TIP3    H140736   1.442   4.200   2.081 -0.1699 -0.5340  0.3422
 6415TIP3    H240737   1.377   4.246   2.210  0.0738  0.0352  0.2642
 6416TIP3   OH240738   1.581   1.409   5.226  0.2559 -0.7250 -0.2399
 6416TIP3    H140739   1.518   1.337   5.218 -0.4611 -0.2099  0.5570
 6416TIP3    H240740   1.596   1.416   5.320 -0.3622  0.7233 -0.2290
 6417TIP3   OH240741   5.197   0.535   5.152 -0.0087  0.3484 -0.1353
 6417TIP3    H140742   5.170   0.469   5.088 -0.4100  1.7244 -1.4230
 6417TIP3    H240743   5.169   0.498   5.236  1.1886 -1.8316 -0.6077
 6418TIP3   OH240744   2.091   0.960   4.214 -0.2313  0.3315 -0.2511
 6418TIP3    H140745   2.119   0.899   4.282  0.2929 -0.1781 -0.9018
 6418TIP3    H240746   2.093   0.908   4.133 -0.7076  0.9576 -0.6728
 6419TIP3   OH240747   5.817   0.642   0.609  0.1304 -0.1956  0.1741
 6419TIP3    H140748   5.868   0.723   0.605 -0.1111 -0.0756 -1.3285
 6419TIP3    H240749   5.733   0.669   0.646  1.2234 -0.4868  3.1481
 6420TIP3   OH240750   4.391   0.030   4.233 -0.1849 -0.2414 -0.5010
 6420TIP3    H140751   4.478  -0.000   4.260 -1.1334 -2.0524  0.7508
 6420TIP3    H240752   4.391   0.124   4.251  1.4417 -0.2507 -0.3470
 6421TIP3   OH240753   1.823   2.016  16.185 -0.2754 -0.3307  0.2852
 6421TIP3    H140754   1.778   1.975  16.258  1.1751 -1.9973  0.3134
 6421TIP3    H240755   1.914   2.027  16.215 -0.0286  0.4727 -0.6789
 6422TIP3   OH240756   0.948   4.901  12.709 -0.1045 -0.0245 -0.2856
 6422TIP3    H140757   0.855   4.920  12.699  0.1442  1.7264  0.3272
 6422TIP3    H240758   0.953   4.850  12.790 -0.5033  0.1977 -0.1143
 6423TIP3   OH240759   2.736   5.159  17.153  0.0526  0.0291  0.1421
 6423TIP3    H140760   2.820   5.204  17.143 -0.7330  1.7365  0.8060
 6423TIP3    H240761   2.696   5.164  17.067 -0.0485  0.6945  0.2168
 6424TIP3   OH240762   5.899   1.606   1.540  0.4513 -0.2701 -0.0585
 6424TIP3    H140763   5.869   1.518   1.564 -1.5823  0.4011  0.0998
 6424TIP3    H240764   5.820   1.650   1.507  1.8195  0.8906 -2.0200
 6425TIP3   OH240765   3.513   2.561  11.052 -0.5251 -0.5634 -0.4954
 6425TIP3    H140766   3.539   2.631  11.112  0.8658 -0.5493 -1.0811
 6425TIP3    H240767   3.460   2.606  10.986 -0.8515 -0.3298 -0.0855
 6426TIP3   OH240768   0.648   3.312  13.537  0.5692 -0.4814  0.1343
 6426TIP3    H140769   0.687   3.354  13.613  0.3593 -0.6970  0.3633
 6426TIP3    H240770   0.675   3.220  13.543 -0.1205 -0.6752  0.3993
 6427TIP3   OH240771   4.467   3.804   0.304 -0.1342  0.1174 -0.3457
 6427TIP3    H140772   4.482   3.710   0.293  0.1534  0.0247  0.7451
 6427TIP3    H240773   4.407   3.811   0.378  1.0762  0.8356  0.6215
 6428TIP3   OH240774   6.243   0.110  14.736  0.6497 -0.0082  0.1135
 6428TIP3    H140775   6.204   0.132  14.651  0.2553  0.8287  0.5042
 6428TIP3    H240776   6.277   0.021  14.724  0.4115  0.0174 -0.8538
 6429TIP3   OH240777   4.402   2.725   0.328  0.2059  0.5742 -0.0169
 6429TIP3    H140778   4.397   2.773   0.411 -0.2200 -0.8753  0.8198
 6429TIP3    H240779   4.311   2.706   0.306  0.4110 -0.7728  0.2298
 6430TIP3   OH240780   0.738   2.091   5.474 -0.6053  0.0200  0.7837
 6430TIP3    H140781   0.820   2.042   5.478 -1.4434 -1.3823  1.8605
 6430TIP3    H240782   0.762   2.180   5.500  0.7791 -0.0485 -0.1779
 6431TIP3   OH240783   0.893   6.693   4.230  0.0013  0.2508  0.1466
 6431TIP3    H140784   0.915   6.761   4.166  1.6969 -1.2610 -0.9988
 6431TIP3    H240785   0.962   6.698   4.296 -1.5357  1.5504  1.7445
 6432TIP3   OH240786   4.553   1.355  11.916 -0.0996 -0.5454  0.0984
 6432TIP3    H140787   4.560   1.346  12.011  0.6906  0.0407  0.1005
 6432TIP3    H240788   4.564   1.266  11.883  1.6742 -0.4939  0.4511
 6433TIP3   OH240789   1.011   6.631   1.348 -0.3406  0.2301  0.2698
 6433TIP3    H140790   0.930   6.611   1.302  0.1710 -0.1432 -0.4932
 6433TIP3    H240791   1.080   6.615   1.283  0.2981  1.2649  0.6613
 6434TIP3   OH240792   4.213   2.346   0.784 -0.0301 -0.0209 -0.0351
 6434TIP3    H140793   4.220   2.261   0.829 -2.1396 -0.0611  0.3561
 6434TIP3    H240794   4.290   2.350   0.728 -0.1352 -2.4481 -0.4603
 6435TIP3   OH240795   5.463   5.368   5.484 -0.1283 -0.1401  0.1068
 6435TIP3    H140796   5.370   5.380   5.506 -0.0763  0.7987 -0.1372
 6435TIP3    H240797   5.473   5.274   5.474 -1.3314 -0.1794 -0.9995
 6436TIP3   OH240798   1.928   5.400   4.348  0.4702 -0.2188  0.3110
 6436TIP3    H140799   2.019   5.413   4.373  0.6045 -2.2311  1.0841
 6436TIP3    H240800   1.880   5.397   4.431 -0.4913  1.7234 -0.1093
 6437TIP3   OH240801   4.159   2.702  13.537 -0.0866 -0.2533 -0.0806
 6437TIP3    H140802   4.157   2.650  13.456  1.6469  1.0771 -1.0592
 6437TIP3    H240803   4.123   2.787  13.512 -1.3391 -0.4095  1.0807
 6438TIP3   OH240804   1.493   2.084   2.430  0.1165 -0.6365  0.3644
 6438TIP3    H140805   1.453   2.047   2.509 -1.3358  0.8227  0.3674
 6438TIP3    H240806   1.578   2.116   2.460 -0.3269 -0.2865  1.3216
 6439TIP3   OH240807   3.515   6.577   0.092  0.0973  0.1901 -0.0039
 6439TIP3    H140808   3.435   6.547   0.135  1.2760 -1.1595  1.3319
 6439TIP3    H240809   3.530   6.514   0.022 -0.6429  1.1772 -1.1191
 6440TIP3   OH240810   5.536   0.128   4.015  0.3577  0.2118  0.7502
 6440TIP3    H140811   5.537   0.205   3.959  0.0725 -0.2689  0.0694
 6440TIP3    H240812   5.546   0.163   4.104 -3.4962  1.4298  0.9036
 6441TIP3   OH240813   3.009   5.909  17.080 -0.2743  0.3462  0.5010
 6441TIP3    H140814   3.012   5.815  17.096 -1.5061 -0.0372 -1.1968
 6441TIP3    H240815   2.974   5.946  17.161  0.1907 -0.6447  1.1821
 6442TIP3   OH240816   3.379   5.043   2.124 -0.0598 -0.1167  0.2919
 6442TIP3    H140817   3.303   4.990   2.099 -0.1583  0.0406  0.2502
 6442TIP3    H240818   3.434   5.045   2.046 -0.0361 -0.1918  0.3067
 6443TIP3   OH240819   5.926   1.492  12.247  1.0910 -0.0232 -0.3199
 6443TIP3    H140820   5.831   1.498  12.251  1.1390  0.2369  2.2156
 6443TIP3    H240821   5.943   1.406  12.211 -0.2368 -1.5561  2.3826
 6444TIP3   OH240822   5.774   0.550   1.687  0.3991  0.2720 -0.2180
 6444TIP3    H140823   5.839   0.517   1.624  1.2669 -1.8390  1.6469
 6444TIP3    H240824   5.699   0.492   1.677  0.1161  0.5996 -0.0320
 6445TIP3   OH240825   0.749   0.839  13.898 -0.0837 -0.1463 -0.0384
 6445TIP3    H140826   0.765   0.805  13.810 -1.6919 -0.4495 -0.2510
 6445TIP3    H240827   0.763   0.933  13.890 -0.1407 -0.1815 -0.6038
 6446TIP3   OH240828   2.006   4.264   3.704 -0.0899 -0.1862 -0.2791
 6446TIP3    H140829   2.033   4.352   3.682  0.1430  0.0631  0.9242
 6446TIP3    H240830   2.053   4.244   3.785 -2.4402 -0.2311  1.1700
 6447TIP3   OH240831   1.417   4.806  12.745 -0.2799  0.3563  0.7297
 6447TIP3    H140832   1.406   4.711  12.754 -0.1268 -0.0978 -2.5839
 6447TIP3    H240833   1.506   4.816  12.711 -0.7888  1.5289 -0.3328
 6448TIP3   OH240834   6.181   5.884   0.383 -0.6218  0.1553 -0.1569
 6448TIP3    H140835   6.247   5.947   0.412 -1.0158  1.0063 -1.0609
 6448TIP3    H240836   6.225   5.831   0.317 -0.5386  0.0504 -0.0163
 6449TIP3   OH240837   0.511   5.304   6.041 -0.2301 -0.0022 -0.2128
 6449TIP3    H140838   0.521   5.237   6.108 -0.4873  0.0640 -0.1066
 6449TIP3    H240839   0.600   5.335   6.025 -0.2323  0.4519  0.5837
 6450TIP3   OH240840   6.768   1.373  13.343 -0.1304  0.5447 -0.2948
 6450TIP3    H140841   6.708   1.429  13.393 -0.5725 -0.7249  0.6791
 6450TIP3    H240842   6.795   1.306  13.406  0.5870 -0.1762 -1.3375
 6451TIP3   OH240843   6.351   3.692  15.637 -0.3501  0.1918 -0.6436
 6451TIP3    H140844   6.426   3.725  15.587 -0.0394 -0.0751 -0.3543
 6451TIP3    H240845   6.279   3.693  15.574 -0.3762  1.5078 -0.6258
 6452TIP3   OH240846   3.937   1.719   5.979 -0.4448  0.6684  0.2237
 6452TIP3    H140847   4.029   1.693   5.987 -0.6047  0.7005  3.2015
 6452TIP3    H240848   3.939   1.797   5.923  1.2540  0.3728 -0.1835
 6453TIP3   OH240849   2.372   4.569   5.269 -0.2886 -0.2543  0.5977
 6453TIP3    H140850   2.291   4.523   5.292 -0.2198  0.0052  1.3751
 6453TIP3    H240851   2.372   4.647   5.324 -0.5643  0.8715 -0.9538
 6454TIP3   OH240852   1.796   1.631   5.139 -0.1500  0.0126 -0.1135
 6454TIP3    H140853   1.884   1.595   5.148 -0.8821 -1.9696 -0.5088
 6454TIP3    H240854   1.792   1.700   5.205  1.5944 -0.0240  0.0907
 6455TIP3   OH240855   2.986   1.684  12.480  0.7019 -0.5764 -0.1219
 6455TIP3    H140856   2.960   1.639  12.560  0.3194 -0.8345 -0.3872
 6455TIP3    H240857   3.063   1.735  12.505 -1.1061  1.6945  1.1690
 6456TIP3   OH240858   1.217   1.032  12.139 -0.2974  0.0031  0.1856
 6456TIP3    H140859   1.238   0.950  12.184  2.0462  0.7990  0.6431
 6456TIP3    H240860   1.256   1.100  12.193  0.3933  1.1884 -1.7032
 6457TIP3   OH240861   4.727   6.277  16.898  0.8471  0.4207  0.2255
 6457TIP3    H140862   4.750   6.187  16.918  1.7670  0.7331  0.6249
 6457TIP3    H240863   4.665   6.271  16.825  0.2722 -0.5576  0.7794
 6458TIP3   OH240864   2.459   3.839   2.039  0.3005 -0.5479 -0.7279
 6458TIP3    H140865   2.445   3.934   2.029 -2.1696 -1.0126 -2.5465
 6458TIP3    H240866   2.548   3.825   2.004  0.5406  1.0250 -0.8487
 6459TIP3   OH240867   2.972   6.395  12.587  0.2764 -0.3338  0.3341
 6459TIP3    H140868   3.062   6.371  12.611  0.0862  0.5200  2.0355
 6459TIP3    H240869   2.921   6.379  12.667 -0.8824  0.2339 -0.2710
 6460TIP3   OH240870   5.597   1.996   3.854  0.4358  0.0065 -0.0566
 6460TIP3    H140871   5.676   1.945   3.839 -1.4469 -2.5905 -2.1818
 6460TIP3    H240872   5.579   1.986   3.947  1.9695 -0.3066  0.2330
 6461TIP3   OH240873   5.809   1.227  10.398 -0.1452 -0.0550 -0.1254
 6461TIP3    H140874   5.823   1.135  10.374  1.5705 -0.2603  1.4735
 6461TIP3    H240875   5.893   1.269  10.378  0.1400  0.4891  2.0597
 6462TIP3   OH240876   0.957   3.897  11.800 -0.3200 -0.3626 -0.4680
 6462TIP3    H140877   0.877   3.883  11.749 -1.8079 -0.1122  1.6849
 6462TIP3    H240878   0.927   3.924  11.886  2.1137  3.0019 -0.4288
 6463TIP3   OH240879   3.135   4.098   5.003 -0.2313 -0.4436 -0.4302
 6463TIP3    H140880   3.158   4.157   5.074 -0.0467 -0.1340 -0.7449
 6463TIP3    H240881   3.109   4.155   4.931 -1.3218 -0.7693 -0.3183
 6464TIP3   OH240882   0.729   3.119  12.938  0.2482 -0.3748 -0.2489
 6464TIP3    H140883   0.799   3.144  12.998 -0.1182  1.0122 -0.3685
 6464TIP3    H240884   0.678   3.054  12.986  1.1055 -0.7455  0.1729
 6465TIP3   OH240885   3.278   1.889   5.593  0.3677 -0.4959  0.1661
 6465TIP3    H140886   3.281   1.914   5.501 -1.8644 -0.2875  0.1156
 6465TIP3    H240887   3.294   1.795   5.593  0.1071 -0.5456 -0.4530
 6466TIP3   OH240888   0.096   4.857   5.914  0.3155 -0.0268 -0.2318
 6466TIP3    H140889   0.164   4.842   5.980 -0.9249  1.8827  1.5875
 6466TIP3    H240890   0.120   4.798   5.842  3.7379  0.3676  0.3983
 6467TIP3   OH240891   5.082   2.479  13.482 -0.3106 -0.5978  0.0595
 6467TIP3    H140892   5.003   2.533  13.491  0.1314  0.1302 -0.2373
 6467TIP3    H240893   5.135   2.527  13.417  2.7283  1.8683  3.9175
 6468TIP3   OH240894   0.564   3.752  13.758  0.3914 -0.1834 -0.2564
 6468TIP3    H140895   0.637   3.814  13.755 -0.1983  0.4862 -1.6572
 6468TIP3    H240896   0.503   3.791  13.821 -0.5712  1.4335 -2.0612
 6469TIP3   OH240897   0.551   2.580   5.566  0.8436  0.0475 -0.0676
 6469TIP3    H140898   0.468   2.602   5.525 -0.3052 -0.4463  1.8964
 6469TIP3    H240899   0.577   2.661   5.611 -0.7823 -0.8844  2.8279
 6470TIP3   OH240900   0.813   0.840  11.263  0.3686 -0.0240 -0.5608
 6470TIP3    H140901   0.830   0.925  11.223 -1.0783  0.8470  0.5708
 6470TIP3    H240902   0.855   0.777  11.205  1.3649  1.4440 -1.4954
 6471TIP3   OH240903   5.440   4.330   2.570 -0.4733  0.1431  0.8221
 6471TIP3    H140904   5.529   4.321   2.536 -0.7141 -0.0396  0.2273
 6471TIP3    H240905   5.450   4.327   2.665  0.0810 -0.5380  0.7469
 6472TIP3   OH240906   0.287   4.381   1.092 -0.4608 -0.2301  0.2300
 6472TIP3    H140907   0.265   4.316   1.026 -2.2573 -1.1871  1.6793
 6472TIP3    H240908   0.320   4.330   1.166 -0.0119  0.6875  0.6885
 6473TIP3   OH240909   6.436   2.816  13.202  0.4879 -0.0291 -0.6993
 6473TIP3    H140910   6.344   2.830  13.179  0.5702 -1.5540 -2.1676
 6473TIP3    H240911   6.482   2.892  13.166 -0.0103 -0.0454 -1.3925
 6474TIP3   OH240912   0.848   3.978  12.033  0.2709  0.5339  0.4257
 6474TIP3    H140913   0.929   4.024  12.057 -0.0839  2.1101 -1.1827
 6474TIP3    H240914   0.781   4.046  12.037 -0.6258 -0.2997 -0.1899
 6475TIP3   OH240915   0.095   1.127  15.279 -0.0558 -0.2054 -0.0110
 6475TIP3    H140916   0.159   1.057  15.280  2.1846  1.6564  2.6375
 6475TIP3    H240917   0.121   1.182  15.204 -0.1199 -0.7366 -0.4301
 6476TIP3   OH240918   4.636   1.903  11.899 -0.4268  0.0683 -0.0085
 6476TIP3    H140919   4.637   1.877  11.807  0.3060 -2.9959  0.7467
 6476TIP3    H240920   4.716   1.953  11.911  0.1531 -0.6620 -0.7567
 6477TIP3   OH240921   0.463   2.624  10.283  0.0360  0.2106 -0.2755
 6477TIP3    H140922   0.383   2.586  10.319 -0.6797  0.1300 -1.8359
 6477TIP3    H240923   0.531   2.559  10.299 -0.0300  0.5623  1.6606
 6478TIP3   OH240924   3.557   2.195   3.406 -0.2212  0.0678 -0.0271
 6478TIP3    H140925   3.602   2.273   3.440 -3.2937  1.1713  1.9076
 6478TIP3    H240926   3.498   2.228   3.339  1.1046 -1.2389 -1.9549
 6479TIP3   OH240927   1.054   2.877  15.738 -0.5518  0.5978 -0.6110
 6479TIP3    H140928   1.119   2.947  15.733  0.9250 -0.5129  1.4008
 6479TIP3    H240929   1.010   2.890  15.822 -1.8187  0.3639 -1.2037
 6480TIP3   OH240930   1.188   5.544   4.094  0.6465 -0.3149  0.0905
 6480TIP3    H140931   1.253   5.601   4.135 -0.6732  0.2868  1.4230
 6480TIP3    H240932   1.223   5.456   4.105 -0.8431 -0.5772  5.2213
 6481TIP3   OH240933   4.815   6.699   5.434 -0.4078  0.5395  0.2824
 6481TIP3    H140934   4.734   6.748   5.424 -0.2417  0.7003 -0.3452
 6481TIP3    H240935   4.821   6.680   5.528 -1.9986 -0.9247  0.1351
 6482TIP3   OH240936   5.997   0.182  16.796  0.0513  0.2358  0.5574
 6482TIP3    H140937   5.904   0.162  16.807  0.3892 -1.0005  1.3633
 6482TIP3    H240938   6.009   0.185  16.701 -0.7162 -0.0795  0.4375
 6483TIP3   OH240939   0.603   0.603   1.975  0.1186  0.5543 -0.0435
 6483TIP3    H140940   0.674   0.622   2.037 -0.2399 -0.4827  0.7113
 6483TIP3    H240941   0.593   0.508   1.978 -1.2170  0.6711 -0.2237
 6484TIP3   OH240942   1.641   5.372   0.010 -0.4114 -0.2810 -0.4511
 6484TIP3    H140943   1.683   5.293   0.044 -0.9450  0.1208  1.2447
 6484TIP3    H240944   1.641   5.433   0.085  0.9781  1.7450 -1.9805
 6485TIP3   OH240945   0.677   4.356  16.928  0.0538  0.5794 -0.5051
 6485TIP3    H140946   0.623   4.420  16.974  1.2415  1.2673 -0.0130
 6485TIP3    H240947   0.748   4.408  16.890  0.8113 -0.3914 -0.4495
 6486TIP3   OH240948   5.693   4.469   4.817 -0.2354 -0.0967  0.3506
 6486TIP3    H140949   5.731   4.526   4.884 -2.0941 -1.8789  3.1095
 6486TIP3    H240950   5.763   4.407   4.796 -0.2114 -0.8003  2.2939
 6487TIP3   OH240951   5.926   4.586   3.825  0.4669 -0.0807 -0.1320
 6487TIP3    H140952   6.012   4.614   3.792  0.2173  1.0785  0.1674
 6487TIP3    H240953   5.935   4.588   3.920 -0.3655  1.6297 -0.0675
 6488TIP3   OH240954   3.660   0.594   4.250  0.9329  0.8566  0.4358
 6488TIP3    H140955   3.631   0.646   4.175  0.2071 -1.9233 -1.3655
 6488TIP3    H240956   3.755   0.585   4.238  0.8556  0.6419 -0.0243
 6489TIP3   OH240957   5.275   3.807   2.747  0.6007  0.2749  0.6508
 6489TIP3    H140958   5.242   3.816   2.836  0.5904  0.4148  0.6338
 6489TIP3    H240959   5.306   3.895   2.724 -1.3520  0.7813 -0.2542
 6490TIP3   OH240960   5.179   0.348   4.354  0.2629 -0.2768 -0.1250
 6490TIP3    H140961   5.120   0.403   4.405 -0.1214  0.0832 -0.9365
 6490TIP3    H240962   5.262   0.396   4.352 -0.1962  0.5170 -1.1998
 6491TIP3   OH240963   5.149   1.900  13.337 -0.0084  0.0231  0.2262
 6491TIP3    H140964   5.233   1.918  13.296  0.1938  0.6128  0.8772
 6491TIP3    H240965   5.133   1.976  13.393 -0.2046 -0.8100  1.3523
 6492TIP3   OH240966   0.498   6.766  15.634 -0.7312 -0.4085 -0.1834
 6492TIP3    H140967   0.543   6.786  15.716 -0.3673 -0.5131 -0.3520
 6492TIP3    H240968   0.419   6.719  15.660 -0.1712 -1.2316  0.0623
 6493TIP3   OH240969   4.322   3.480   0.915 -0.4197 -0.1176 -0.3472
 6493TIP3    H140970   4.412   3.462   0.942 -1.3950 -1.0442  2.6829
 6493TIP3    H240971   4.331   3.543   0.843  2.6007  0.5024  0.4185
 6494TIP3   OH240972   3.379   0.565   4.020  0.3398  0.2096  0.1815
 6494TIP3    H140973   3.384   0.625   3.946 -1.1706  0.0133 -0.1140
 6494TIP3    H240974   3.366   0.621   4.096 -1.7064  0.2612 -0.1721
 6495TIP3   OH240975   4.930   6.245  12.821 -0.3326 -0.5396  0.2227
 6495TIP3    H140976   4.981   6.326  12.822 -1.5526  0.2618 -0.4109
 6495TIP3    H240977   4.894   6.239  12.910  2.5230 -2.2733  1.4164
 6496TIP3   OH240978   3.682   1.214  15.032 -0.1699 -0.7909  0.5687
 6496TIP3    H140979   3.614   1.206  15.099 -0.4332 -0.2077  0.3799
 6496TIP3    H240980   3.644   1.175  14.954 -0.5918  0.1986  0.2586
 6497TIP3   OH240981   5.110   0.419   0.865  0.1431 -0.1963  0.0196
 6497TIP3    H140982   5.137   0.433   0.956  1.1474 -1.4958 -0.0466
 6497TIP3    H240983   5.123   0.325   0.850 -0.4619 -0.0908 -1.3241
 6498TIP3   OH240984   5.169   1.065   2.337  0.3383  0.1887 -0.4899
 6498TIP3    H140985   5.205   0.976   2.337  2.0790  0.8582 -0.9212
 6498TIP3    H240986   5.175   1.094   2.246 -1.2273  0.3960 -0.5663
 6499TIP3   OH240987   2.191   2.288   3.322 -0.4153  0.5307 -0.5756
 6499TIP3    H140988   2.270   2.324   3.362 -0.4707  0.1643 -0.1211
 6499TIP3    H240989   2.212   2.279   3.229  0.5349 -0.7285 -0.2658
 6500TIP3   OH240990   4.781   3.239  17.193 -0.4683  0.3360 -0.3680
 6500TIP3    H140991   4.810   3.322  17.232  1.4590  0.1411 -1.2669
 6500TIP3    H240992   4.688   3.234  17.215 -0.3969  2.2148  0.6202
 6501TIP3   OH240993   2.259   0.754  12.071  0.0690  0.0192 -0.1930
 6501TIP3    H140994   2.281   0.702  11.994  0.0928  0.2420 -0.3362
 6501TIP3    H240995   2.164   0.764  12.066 -0.1017 -1.0295  0.4814
 6502TIP3   OH240996   0.717   5.889   3.124  0.1136 -0.4230  0.2276
 6502TIP3    H140997   0.782   5.869   3.191 -0.3421  0.8154  1.0794
 6502TIP3    H240998   0.736   5.828   3.053  1.9792 -0.3208  0.5900
 6503TIP3   OH240999   4.149   6.780  13.788 -0.8078 -0.2729  0.1841
 6503TIP3    H141000   4.173   6.870  13.765 -0.0159 -0.4883  0.1402
 6503TIP3    H241001   4.064   6.788  13.831 -1.7152  0.2912 -1.6178
 6504TIP3   OH241002   6.049   1.201   6.205  1.1400 -0.0300 -0.2971
 6504TIP3    H141003   6.141   1.181   6.221  1.2073  0.3773 -0.1543
 6504TIP3    H241004   6.007   1.191   6.291  0.3428 -3.7421 -0.9585
 6505TIP3   OH241005   1.560   4.316   0.589  0.3952  0.4781  0.8367
 6505TIP3    H141006   1.601   4.383   0.644 -0.5101  0.3771  1.6703
 6505TIP3    H241007   1.486   4.284   0.641  1.9089 -2.5892  1.3351
 6506TIP3   OH241008   3.936   0.093   5.269 -0.6102 -0.3221  0.1073
 6506TIP3    H141009   3.986   0.143   5.204 -0.2129 -0.6649  0.1405
 6506TIP3    H241010   4.002   0.045   5.318 -0.8877  0.1902  0.9937
 6507TIP3   OH241011   5.678   0.458   3.190 -0.8477  0.7685 -0.0151
 6507TIP3    H141012   5.729   0.470   3.110  0.1762 -1.1136  0.3073
 6507TIP3    H241013   5.636   0.373   3.179  1.2930 -0.7446  2.4060
 6508TIP3   OH241014   2.299   4.204   6.531  0.1354 -0.2654 -0.4042
 6508TIP3    H141015   2.233   4.273   6.531 -0.2588 -0.6277 -1.1843
 6508TIP3    H241016   2.380   4.248   6.554 -0.5370  0.0074  1.6868
 6509TIP3   OH241017   4.415   5.889  13.424  0.1704  0.0270 -0.1338
 6509TIP3    H141018   4.328   5.850  13.419 -0.3101  0.9442  0.7618
 6509TIP3    H241019   4.409   5.968  13.370  0.6347 -0.2002 -0.5344
 6510TIP3   OH241020   4.271   4.423  15.648 -0.3387  0.1617 -0.9049
 6510TIP3    H141021   4.214   4.355  15.683  0.9745 -0.6268 -0.1814
 6510TIP3    H241022   4.254   4.499  15.703  0.4678 -0.5626  0.4327
 6511TIP3   OH241023   4.303   4.838  12.591 -0.3474 -0.5708  0.4908
 6511TIP3    H141024   4.314   4.844  12.685 -0.7504  0.6126  0.4745
 6511TIP3    H241025   4.210   4.856  12.576 -0.0210  0.6246 -0.2240
 6512TIP3   OH241026   5.505   5.020   5.951  0.1040 -0.2038 -0.4379
 6512TIP3    H141027   5.414   5.041   5.973 -0.6778 -3.9535  0.6297
 6512TIP3    H241028   5.555   5.047   6.029  0.2147  2.8040 -1.4189
 6513TIP3   OH241029   5.265   3.534  16.488 -0.3124 -0.4109  0.4370
 6513TIP3    H141030   5.201   3.512  16.420 -1.3860 -0.2035  1.3414
 6513TIP3    H241031   5.311   3.452  16.505 -0.0273 -0.4664 -0.5137
 6514TIP3   OH241032   0.997   0.651  15.196 -0.1401  0.0049 -0.0352
 6514TIP3    H141033   0.946   0.610  15.127  0.1660 -0.4282 -0.0056
 6514TIP3    H241034   0.932   0.671  15.264 -0.2162 -0.9263  0.1832
 6515TIP3   OH241035   5.746   1.393   2.842 -0.0952 -0.2932  0.4995
 6515TIP3    H141036   5.742   1.485   2.870 -1.7587  0.3118 -1.4756
 6515TIP3    H241037   5.816   1.391   2.776 -0.5529 -0.2590  0.0046
 6516TIP3   OH241038   5.812   3.672   5.847  0.7535 -0.0494 -0.0575
 6516TIP3    H141039   5.719   3.692   5.856  0.6982 -0.0115 -0.6275
 6516TIP3    H241040   5.815   3.590   5.798  1.0181  0.9269 -1.7894
 6517TIP3   OH241041   1.821   1.196  15.985 -0.1097  0.9195 -0.8549
 6517TIP3    H141042   1.903   1.241  16.004  0.5841 -0.7978  0.6097
 6517TIP3    H241043   1.848   1.112  15.948 -1.0529 -0.4413  1.3489
 6518TIP3   OH241044   0.593   5.571  15.445 -0.2634 -0.2550  0.2923
 6518TIP3    H141045   0.575   5.527  15.362 -1.9455  1.2127 -0.1745
 6518TIP3    H241046   0.601   5.500  15.508  2.4472 -1.5244 -1.2651
 6519TIP3   OH241047   0.460   2.059   2.424  0.1860 -0.1112 -0.0356
 6519TIP3    H141048   0.367   2.081   2.429  0.6279  1.8553  0.5604
 6519TIP3    H241049   0.484   2.034   2.513  0.1092 -1.2408 -0.3195
 6520TIP3   OH241050   6.198   3.871  13.122  0.6302 -0.6691  0.2755
 6520TIP3    H141051   6.190   3.775  13.129  2.8784 -0.8051  2.1513
 6520TIP3    H241052   6.175   3.903  13.209 -0.0630  0.5323 -0.3298
 6521TIP3   OH241053   6.598   2.848   1.736 -0.5826 -0.1191 -0.4286
 6521TIP3    H141054   6.566   2.830   1.648 -0.7680 -2.7810  0.1010
 6521TIP3    H241055   6.693   2.837   1.729 -0.6422 -0.8149 -0.2220
 6522TIP3   OH241056   0.289   1.787  13.650 -0.5587 -0.0150  0.4267
 6522TIP3    H141057   0.368   1.767  13.700 -1.5240 -0.6448  1.7395
 6522TIP3    H241058   0.312   1.864  13.598  0.1256  1.3708  2.6878
 6523TIP3   OH241059   5.146   1.300   0.551  0.3978 -0.1786 -0.3359
 6523TIP3    H141060   5.062   1.280   0.592  1.0221  1.1398  1.7093
 6523TIP3    H241061   5.196   1.219   0.560  0.8382  0.3254  2.4530
 6524TIP3   OH241062   1.035   5.897   0.506 -0.0530  0.1134 -0.3715
 6524TIP3    H141063   0.981   5.963   0.462  0.3027  0.2817 -0.5595
 6524TIP3    H241064   1.000   5.893   0.595  1.7621  2.7145  0.5940
 6525TIP3   OH241065   6.608   3.783   2.808  0.0261 -0.2739 -0.2021
 6525TIP3    H141066   6.531   3.806   2.756 -0.6051 -1.9971 -0.0824
 6525TIP3    H241067   6.649   3.868   2.828 -2.0369  0.7301  0.0754
 6526TIP3   OH241068   0.307   5.508   0.244 -0.1332  0.3461 -0.1947
 6526TIP3    H141069   0.398   5.480   0.230 -0.1236 -0.5822  1.4597
 6526TIP3    H241070   0.259   5.427   0.259 -0.8458  0.9577  0.9679
 6527TIP3   OH241071   3.970   0.536   6.566  0.0587  0.4196 -0.5015
 6527TIP3    H141072   3.905   0.468   6.548  0.2490 -0.2591  1.2169
 6527TIP3    H241073   3.940   0.612   6.515 -2.1605  0.1737  0.3088
 6528TIP3   OH241074   6.775   5.588  14.583  0.2578 -0.0744 -0.5083
 6528TIP3    H141075   6.799   5.640  14.659  0.7226 -1.4042  0.2892
 6528TIP3    H241076   6.777   5.649  14.510 -1.0949  1.4510  0.6601
 6529TIP3   OH241077   0.637   2.835   1.167 -0.1959  0.3184  0.1172
 6529TIP3    H141078   0.560   2.839   1.111 -0.3836  1.9875  0.4395
 6529TIP3    H241079   0.604   2.847   1.255  0.1663 -1.7364  0.5858
 6530TIP3   OH241080   1.293   0.943  13.697  0.0986  0.2573 -0.4707
 6530TIP3    H141081   1.273   0.966  13.788  2.7237  0.6689  0.0801
 6530TIP3    H241082   1.309   1.027  13.654  1.4743 -0.0450 -0.5953
 6531TIP3   OH241083   2.861   6.631  14.753  0.0589 -0.1347  0.0272
 6531TIP3    H141084   2.892   6.541  14.741 -0.6066 -0.4614  0.7101
 6531TIP3    H241085   2.794   6.625  14.821  0.2445  0.9318  0.3227
 6532TIP3   OH241086   1.022   2.739   3.455  0.2097  0.4105  0.2924
 6532TIP3    H141087   1.085   2.670   3.475  1.9072  2.0838  1.0671
 6532TIP3    H241088   1.009   2.785   3.538 -1.9783  0.1928  0.1090
 6533TIP3   OH241089   4.017   5.255  16.391  0.0389  0.4009 -0.6567
 6533TIP3    H141090   4.045   5.168  16.363  1.1623  0.6639 -0.4176
 6533TIP3    H241091   4.072   5.315  16.340 -0.3816  0.9553 -0.4626
 6534TIP3   OH241092   6.401   3.350  12.043  0.3121  0.3002 -0.3789
 6534TIP3    H141093   6.402   3.314  12.131  0.0823 -0.5665 -0.7144
 6534TIP3    H241094   6.490   3.339  12.010  0.2804  0.1804 -0.4251
 6535TIP3   OH241095   5.417   5.262  15.800 -0.0685 -0.2735 -0.3554
 6535TIP3    H141096   5.455   5.260  15.711  0.1502 -2.4177 -0.2758
 6535TIP3    H241097   5.323   5.271  15.786  0.1106  1.4517 -0.6914
 6536TIP3   OH241098   1.178   4.399  13.674 -0.3761 -0.2581  0.0985
 6536TIP3    H141099   1.254   4.413  13.731  1.0736 -0.9755 -1.5649
 6536TIP3    H241100   1.189   4.309  13.642 -1.5111 -0.1012 -0.7890
 6537TIP3   OH241101   4.736   0.054  11.225 -0.1280  0.1328 -0.0977
 6537TIP3    H141102   4.830   0.046  11.239 -0.0084 -0.2567 -1.0139
 6537TIP3    H241103   4.719   0.148  11.220  0.1422  0.2148  0.4581
 6538TIP3   OH241104   4.468   3.814   4.897  0.0987  0.6729  0.2612
 6538TIP3    H141105   4.418   3.863   4.833  0.8773 -0.5434 -1.3787
 6538TIP3    H241106   4.517   3.749   4.845  1.5682  0.2929  1.9805
 6539TIP3   OH241107   0.185   2.274   2.722  0.7901 -0.6227  0.3975
 6539TIP3    H141108   0.191   2.338   2.794 -0.2876 -0.1332  0.0640
 6539TIP3    H241109   0.127   2.205   2.755  0.0216 -0.2312 -0.1088
 6540TIP3   OH241110   6.646   6.736   2.904  0.2533  0.2802 -0.3478
 6540TIP3    H141111   6.594   6.657   2.917 -0.8089  1.0576  0.2497
 6540TIP3    H241112   6.617   6.769   2.818  2.4362 -1.2330 -1.7677
 6541TIP3   OH241113   6.208   3.947   5.224 -0.9298  0.5567 -0.2657
 6541TIP3    H141114   6.279   3.941   5.160 -0.8226 -2.3167 -0.0161
 6541TIP3    H241115   6.233   4.020   5.281  0.4192  1.3400 -1.7708
 6542TIP3   OH241116   6.770   1.656  14.733 -0.3060  0.3042 -0.3825
 6542TIP3    H141117   6.750   1.584  14.792  2.1200 -0.1781 -0.0433
 6542TIP3    H241118   6.785   1.614  14.648  1.0642  0.3727 -0.1962
 6543TIP3   OH241119   0.185   2.720   3.681 -0.0531 -0.2115 -0.3583
 6543TIP3    H141120   0.205   2.635   3.640 -1.9717 -0.4768 -0.8325
 6543TIP3    H241121   0.189   2.783   3.608 -0.9127 -0.2771 -0.4714
 6544TIP3   OH241122   2.752   6.658  12.939  0.3764  0.0749  0.3666
 6544TIP3    H141123   2.784   6.587  12.994  0.6514  0.3650  0.5812
 6544TIP3    H241124   2.659   6.638  12.926  0.4658 -0.3536  0.3786
 6545TIP3   OH241125   0.139   0.778  12.818  0.5056 -0.1181 -0.2745
 6545TIP3    H141126   0.117   0.841  12.749  0.7228  1.3883  0.9644
 6545TIP3    H241127   0.193   0.829  12.879  1.0576 -1.6552  0.5589
 6546TIP3   OH241128   5.854   3.280   3.439 -0.2312 -0.3153 -0.7515
 6546TIP3    H141129   5.812   3.269   3.525  2.1292  2.7824  1.0500
 6546TIP3    H241130   5.808   3.354   3.400 -0.8344 -1.2746 -1.8999
 6547TIP3   OH241131   5.196   0.958   1.783  0.1774 -0.1710  0.3463
 6547TIP3    H141132   5.168   0.866   1.782 -0.4945  0.0306  0.3575
 6547TIP3    H241133   5.291   0.953   1.792  0.1537 -0.8680  0.3222
 6548TIP3   OH241134   0.608   0.900   3.146 -0.0210 -0.1365 -0.0027
 6548TIP3    H141135   0.565   0.985   3.150 -1.3627 -0.6889 -1.4596
 6548TIP3    H241136   0.622   0.885   3.052  2.4417 -0.4743  0.3409
 6549TIP3   OH241137   0.817   6.270   1.060 -0.2154 -0.3467  0.2851
 6549TIP3    H141138   0.732   6.235   1.084 -0.2074 -0.2229  0.4985
 6549TIP3    H241139   0.807   6.301   0.970 -0.5728  0.2381  0.5208
 6550TIP3   OH241140   2.163   1.356   0.081 -0.2172  0.2384 -0.0146
 6550TIP3    H141141   2.103   1.395   0.016 -0.0151 -0.5354 -0.6780
 6550TIP3    H241142   2.114   1.283   0.117 -0.0979  0.3010  0.2715
 6551TIP3   OH241143   6.601   5.773   5.505 -0.7786  0.2056 -0.5456
 6551TIP3    H141144   6.531   5.709   5.499 -0.2286 -0.5004  0.3306
 6551TIP3    H241145   6.597   5.804   5.596 -0.0795  0.2919 -0.5397
 6552TIP3   OH241146   4.919   6.390   0.316  0.2069  0.6783 -0.3198
 6552TIP3    H141147   4.908   6.299   0.341  1.9343  0.0092 -1.7683
 6552TIP3    H241148   4.885   6.396   0.227 -2.1466  2.0779  0.5755
 6553TIP3   OH241149   1.033   2.329   4.756 -0.4992 -0.3519 -0.0137
 6553TIP3    H141150   0.985   2.247   4.764 -0.4004 -0.4212 -0.1212
 6553TIP3    H241151   1.023   2.354   4.664  0.4358 -0.8471 -0.2665
 6554TIP3   OH241152   5.561   5.924  11.300  0.4644 -0.0115  0.2887
 6554TIP3    H141153   5.554   5.890  11.389  0.5976 -2.6314 -0.6237
 6554TIP3    H241154   5.483   5.979  11.289  0.2204 -0.0051  1.8550
 6555TIP3   OH241155   2.869   4.749   2.443 -0.2506  0.4475 -0.6487
 6555TIP3    H141156   2.898   4.661   2.421  1.4552  0.3695  1.6246
 6555TIP3    H241157   2.790   4.736   2.497 -0.2044  0.3363 -0.6086
 6556TIP3   OH241158   4.004   0.995  12.005 -0.6272 -0.4595  0.4413
 6556TIP3    H141159   4.053   1.072  12.036  0.5902 -0.8934 -0.3579
 6556TIP3    H241160   4.058   0.920  12.030 -0.1993 -0.8879 -1.5739
 6557TIP3   OH241161   0.292   1.476  11.789 -0.1113  0.4221  0.2571
 6557TIP3    H141162   0.228   1.529  11.741 -0.5134 -1.8729 -1.9349
 6557TIP3    H241163   0.257   1.387  11.784  3.7622 -1.1884 -2.1599
 6558TIP3   OH241164   6.608   6.380   3.641 -0.1278 -0.3193 -0.4062
 6558TIP3    H141165   6.696   6.362   3.675  0.5275  0.5377 -1.5791
 6558TIP3    H241166   6.566   6.294   3.639  0.1689 -0.5686  1.4551
 6559TIP3   OH241167   4.202   4.464   5.491  0.1852  0.0524 -0.0920
 6559TIP3    H141168   4.209   4.557   5.513  0.5859 -0.3325  1.5464
 6559TIP3    H241169   4.266   4.421   5.547 -1.0368 -1.3684  0.2856
 6560TIP3   OH241170   6.537   0.161   1.665  0.1245 -0.0899  0.1950
 6560TIP3    H141171   6.461   0.127   1.617  1.0984 -1.9515 -0.1603
 6560TIP3    H241172   6.576   0.225   1.606 -0.5053  0.0100 -0.1203
 6561TIP3   OH241173   5.475   3.503  11.109  0.1071 -0.4484  0.1773
 6561TIP3    H141174   5.548   3.502  11.047  0.0833  1.5063  0.0473
 6561TIP3    H241175   5.399   3.477  11.058  0.3843 -0.5431 -0.1910
 6562TIP3   OH241176   5.049   0.894   5.231 -0.1102  0.0130 -0.0004
 6562TIP3    H141177   4.986   0.838   5.278  0.1823  0.0528  0.4421
 6562TIP3    H241178   5.028   0.880   5.138 -0.4101 -0.3980  0.1247
 6563TIP3   OH241179   1.647   6.499   0.886 -0.2254  0.2089  0.0037
 6563TIP3    H141180   1.706   6.540   0.822 -1.3172 -0.9075 -1.8061
 6563TIP3    H241181   1.560   6.506   0.846 -0.6617 -2.3813  0.3507
 6564TIP3   OH241182   6.344   2.946   3.328  0.0209 -0.6978  0.0193
 6564TIP3    H141183   6.395   2.868   3.349 -2.1358 -1.8410  1.2524
 6564TIP3    H241184   6.292   2.921   3.252  0.2055 -0.0188 -0.3454
 6565TIP3   OH241185   6.035   4.047   3.383 -0.3601 -0.3755 -0.1316
 6565TIP3    H141186   5.978   4.097   3.325 -0.3483  0.0589  0.2210
 6565TIP3    H241187   6.055   4.108   3.454  0.5971 -0.5079 -0.2842
 6566TIP3   OH241188   6.677   0.687  11.167 -0.3441 -0.2102  0.1908
 6566TIP3    H141189   6.729   0.614  11.200 -1.0756 -1.1365 -0.6524
 6566TIP3    H241190   6.723   0.715  11.087 -0.2442  0.0543  0.3376
 6567TIP3   OH241191   0.402   4.349  12.002 -0.1304  0.4392  0.3725
 6567TIP3    H141192   0.469   4.287  12.030  1.0443  0.5934 -1.8834
 6567TIP3    H241193   0.328   4.295  11.976  0.5734  0.0101 -0.7779
 6568TIP3   OH241194   4.723   2.786  12.986  0.3627 -0.6120  0.0486
 6568TIP3    H141195   4.804   2.735  12.982  0.4782 -0.4227 -0.0194
 6568TIP3    H241196   4.724   2.825  13.074  1.4574  1.2035 -0.7063
 6569TIP3   OH241197   1.966   6.049   5.858  0.4112 -0.5813  0.5986
 6569TIP3    H141198   1.963   6.058   5.954  1.9193  0.5751  0.5794
 6569TIP3    H241199   2.058   6.029   5.840  0.3411  0.1603 -0.6683
 6570TIP3   OH241200   1.756   6.640  16.661 -0.3154  0.1437  0.2733
 6570TIP3    H141201   1.820   6.594  16.715 -0.9064  0.4149  1.2446
 6570TIP3    H241202   1.695   6.678  16.724 -2.0078 -0.9196 -0.6240
 6571TIP3   OH241203   2.335   4.380   5.785 -0.3663 -0.4357  0.3512
 6571TIP3    H141204   2.289   4.296   5.788 -0.7561 -0.1977  1.7332
 6571TIP3    H241205   2.385   4.377   5.704 -2.0028 -1.1289 -0.6798
 6572TIP3   OH241206   0.184   4.027  15.617 -0.1424  0.0474  0.0300
 6572TIP3    H141207   0.116   4.048  15.681 -0.3886  0.1700 -0.2685
 6572TIP3    H241208   0.265   4.024  15.667 -0.6613 -2.4792  0.8495
 6573TIP3   OH241209   5.725   1.751  11.595  0.4984 -0.2036 -0.6336
 6573TIP3    H141210   5.675   1.787  11.522  0.9904  0.2962 -0.7303
 6573TIP3    H241211   5.797   1.813  11.608  0.1185  0.0042  0.6274
 6574TIP3   OH241212   6.589   2.248   4.577  0.1841  0.7688  0.0374
 6574TIP3    H141213   6.494   2.239   4.584  0.1047  1.7686  0.3721
 6574TIP3    H241214   6.622   2.158   4.586 -0.6434  0.5599  1.1892
 6575TIP3   OH241215   6.135   0.098  13.397 -0.6015  0.1989  0.0167
 6575TIP3    H141216   6.168   0.046  13.470  2.1355  0.9869 -0.5601
 6575TIP3    H241217   6.202   0.163  13.381 -1.4185  0.5065 -2.7699
 6576TIP3   OH241218   5.178   3.628  12.330  0.2211  0.3408  0.4325
 6576TIP3    H141219   5.218   3.710  12.300  0.0814  0.3925  0.3870
 6576TIP3    H241220   5.180   3.634  12.425  1.7531 -0.3427  0.4832
 6577TIP3   OH241221   1.517   3.335   5.752  0.0047  0.2613 -0.5406
 6577TIP3    H141222   1.524   3.310   5.844  0.7385  1.6752 -0.1730
 6577TIP3    H241223   1.564   3.267   5.705 -0.5865 -0.6090  0.0981
 6578TIP3   OH241224   0.595   0.373   5.306 -0.2468  0.5903 -0.2572
 6578TIP3    H141225   0.563   0.284   5.290 -1.2915  0.8752  0.1792
 6578TIP3    H241226   0.611   0.408   5.219  0.8655 -0.2603 -0.4168
 6579TIP3   OH241227   0.779   5.385  15.300 -0.3214  0.4031 -0.0078
 6579TIP3    H141228   0.696   5.379  15.254 -2.0055  0.5156  2.7919
 6579TIP3    H241229   0.802   5.294  15.321  0.5538  0.3323 -1.1520
 6580TIP3   OH241230   5.768   5.657   6.598 -0.1085 -0.0913  0.7675
 6580TIP3    H141231   5.777   5.619   6.511 -1.5434 -0.0651  0.5977
 6580TIP3    H241232   5.819   5.599   6.655 -1.0607 -1.4508  0.2823
 6581TIP3   OH241233   4.793   6.553  12.463 -0.1841  0.7277 -0.3295
 6581TIP3    H141234   4.755   6.519  12.544 -0.4555  0.0920 -0.7207
 6581TIP3    H241235   4.884   6.574  12.487  0.2636 -1.1031 -0.2793
 6582TIP3   OH241236   5.480   6.206  14.389  0.6018  0.1671  0.0161
 6582TIP3    H141237   5.481   6.300  14.405  0.2154 -0.1964  2.5904
 6582TIP3    H241238   5.572   6.181  14.391  0.5919  0.0869  2.6172
 6583TIP3   OH241239   5.526   0.726  12.012  0.5506 -0.2211 -0.4760
 6583TIP3    H141240   5.511   0.796  11.948 -1.0927 -0.3781 -0.3056
 6583TIP3    H241241   5.590   0.762  12.072  0.8186  0.5897 -1.2179
 6584TIP3   OH241242   6.565   3.724  15.488 -0.1898  0.0001 -0.2203
 6584TIP3    H141243   6.609   3.665  15.549 -2.1902 -0.1340  1.1860
 6584TIP3    H241244   6.554   3.672  15.409  0.1057 -0.7242  0.2033
 6585TIP3   OH241245   5.021   3.128   5.261 -0.0526  0.0202  0.1449
 6585TIP3    H141246   5.081   3.057   5.240  0.8469  0.1694  2.0360
 6585TIP3    H241247   4.981   3.101   5.344 -1.6011  0.5723 -0.3879
 6586TIP3   OH241248   1.981   1.599  11.500  0.1182 -0.3076 -0.0354
 6586TIP3    H141249   2.048   1.531  11.488  0.8008  0.0333  1.6089
 6586TIP3    H241250   2.032   1.679  11.519 -0.7075 -0.5222  3.6985
 6587TIP3   OH241251   0.164   5.831  12.038 -0.3769  0.0463 -0.0911
 6587TIP3    H141252   0.221   5.903  12.064  0.2179  0.4607 -2.2950
 6587TIP3    H241253   0.100   5.871  11.979 -0.1216 -1.1695 -1.2464
 6588TIP3   OH241254   2.620   0.654  11.181  0.1274 -0.1287 -0.1796
 6588TIP3    H141255   2.657   0.720  11.238  0.4734  1.1006 -1.7528
 6588TIP3    H241256   2.665   0.667  11.097 -2.2347 -0.0723 -1.5088
 6589TIP3   OH241257   0.108   4.880  15.256  0.4356  0.1292 -0.5934
 6589TIP3    H141258   0.186   4.927  15.225  0.1893 -0.3417 -1.9885
 6589TIP3    H241259   0.060   4.945  15.306  0.3868  1.2497 -2.0119
 6590TIP3   OH241260   5.248   3.813   2.316 -0.4391 -0.1543 -0.2576
 6590TIP3    H141261   5.260   3.908   2.318  1.1856 -0.3275  1.1047
 6590TIP3    H241262   5.153   3.801   2.315 -0.6749  1.4736 -0.5590
 6591TIP3   OH241263   0.967   4.910  11.690 -0.0331 -0.5245 -0.1541
 6591TIP3    H141264   1.006   4.862  11.617 -0.8043 -1.8303  0.2683
 6591TIP3    H241265   1.032   4.977  11.711  0.1457 -0.0150 -2.1252
 6592TIP3   OH241266   3.060   4.945   3.244 -0.1635  0.1419  0.4036
 6592TIP3    H141267   3.063   4.865   3.296  0.7667  0.7534  1.3041
 6592TIP3    H241268   3.115   4.926   3.168  0.4199  0.0663  0.8357
 6593TIP3   OH241269   2.278   0.449   2.390 -0.3940  0.6444 -0.1585
 6593TIP3    H141270   2.272   0.511   2.462  0.0408 -0.3561  0.7651
 6593TIP3    H241271   2.217   0.483   2.324 -2.1558  0.6672  1.3830
 6594TIP3   OH241272   4.616   1.032   4.091  0.1787  0.2821 -0.4061
 6594TIP3    H141273   4.615   1.117   4.136 -0.2947  0.2450 -0.3457
 6594TIP3    H241274   4.709   1.017   4.071  0.2024  1.1034 -0.9697
 6595TIP3   OH241275   5.056   6.135   5.282  0.0275 -0.0259 -0.0049
 6595TIP3    H141276   5.109   6.111   5.357 -0.3027 -0.3252  0.1373
 6595TIP3    H241277   5.119   6.154   5.212  0.3541  0.7934  0.5025
 6596TIP3   OH241278   1.475   1.895  14.472  0.6425 -0.6403 -0.3497
 6596TIP3    H141279   1.437   1.835  14.537 -1.0058  0.3111 -0.3753
 6596TIP3    H241280   1.408   1.903  14.405 -0.1053  2.7179  0.6112
 6597TIP3   OH241281   1.849   4.060  12.315  0.7954  0.2865 -0.4172
 6597TIP3    H141282   1.781   4.127  12.328 -0.3913 -0.7082 -1.2031
 6597TIP3    H241283   1.845   4.007  12.395 -1.0741 -1.1842 -1.3943
 6598TIP3   OH241284   2.669   4.297  11.961  0.3109 -0.4949 -0.3129
 6598TIP3    H141285   2.635   4.350  12.033 -1.3572 -0.8149 -0.8231
 6598TIP3    H241286   2.748   4.256  11.996 -0.2305 -0.3061  1.1855
 6599TIP3   OH241287   6.077   4.818  16.632  0.7793  0.5090  0.5219
 6599TIP3    H141288   6.023   4.839  16.708 -0.8199  2.7178 -1.0913
 6599TIP3    H241289   6.140   4.890  16.628  1.5430 -0.1538  0.3194
 6600TIP3   OH241290   3.985   4.966  13.551 -0.0560 -0.4854  0.0100
 6600TIP3    H141291   4.059   5.027  13.548  0.3212 -0.9921 -1.2272
 6600TIP3    H241292   3.911   5.020  13.580 -0.2567  1.1643 -3.1671
 6601TIP3   OH241293   3.834   6.079  11.145  0.4491 -0.0346 -0.3655
 6601TIP3    H141294   3.814   6.155  11.199  1.8749 -0.6402  1.1098
 6601TIP3    H241295   3.901   6.110  11.084  1.5592 -0.2206  0.7050
 6602TIP3   OH241296   3.478   4.335  17.034  0.4303 -0.8299 -0.9345
 6602TIP3    H141297   3.549   4.348  17.098 -0.8587 -1.6041  0.7551
 6602TIP3    H241298   3.441   4.422  17.022  1.4740 -0.4647 -1.6207
 6603TIP3   OH241299   6.778   6.734  13.089 -0.8638  0.0805  0.2210
 6603TIP3    H141300   6.844   6.688  13.141  0.2731  2.2464  0.8623
 6603TIP3    H241301   6.824   6.759  13.009 -2.0468 -1.5485 -1.0208
 6604TIP3   OH241302   6.604   6.123  15.840 -0.3648  0.7049 -0.0780
 6604TIP3    H141303   6.559   6.068  15.904  0.4217  1.0199  0.7681
 6604TIP3    H241304   6.688   6.144  15.881  0.4667  0.3230 -1.5132
 6605TIP3   OH241305   4.320   4.812  16.759 -0.1042 -0.4951  0.2544
 6605TIP3    H141306   4.265   4.745  16.718 -0.4677  0.1847 -0.3955
 6605TIP3    H241307   4.259   4.880  16.786  0.2521 -0.4676  1.0133
 6606TIP3   OH241308   1.073   0.491   2.647 -0.3490  0.3629  0.5558
 6606TIP3    H141309   1.131   0.526   2.715 -0.4048  0.2447  0.6635
 6606TIP3    H241310   1.025   0.421   2.690 -1.5450  1.3329  0.8384
 6607TIP3   OH241311   4.115   6.130  15.481  0.1294  0.3139  0.4282
 6607TIP3    H141312   4.151   6.209  15.440 -0.6031  0.1465 -0.5955
 6607TIP3    H241313   4.191   6.080  15.510  0.8905 -0.6013 -2.7083
 6608TIP3   OH241314   3.772   6.638   2.891  0.1568 -0.0180  0.4279
 6608TIP3    H141315   3.859   6.661   2.859  0.7366 -2.5953 -0.0649
 6608TIP3    H241316   3.719   6.626   2.813  0.0163 -0.7594  0.6283
 6609TIP3   OH241317   3.653   3.509  11.718 -0.0016  0.6084  0.4564
 6609TIP3    H141318   3.622   3.597  11.694 -1.7080  0.2000  0.9676
 6609TIP3    H241319   3.577   3.453  11.704  1.6985 -1.2764 -2.1457
 6610TIP3   OH241320   3.846   5.879   4.502 -0.2115 -0.3457  0.0388
 6610TIP3    H141321   3.914   5.889   4.569 -0.8921 -1.3510  0.9036
 6610TIP3    H241322   3.808   5.967   4.493  2.0196  0.5665 -1.4159
 6611TIP3   OH241323   3.487   2.228   2.166 -0.2059 -0.5620 -0.0958
 6611TIP3    H141324   3.483   2.316   2.203  1.0660 -1.8243  3.6299
 6611TIP3    H241325   3.577   2.200   2.182 -0.9407 -2.9984  0.2722
 6612TIP3   OH241326   5.373   1.745   5.898  0.0284  0.6542  0.4446
 6612TIP3    H141327   5.400   1.794   5.976 -0.1225 -1.5992  2.0004
 6612TIP3    H241328   5.441   1.765   5.833  1.4449  0.8126  1.9060
 6613TIP3   OH241329   0.532   0.220  13.057  0.0973  0.9237  0.4858
 6613TIP3    H141330   0.503   0.228  12.966 -0.9102  0.3836  0.7443
 6613TIP3    H241331   0.628   0.219  13.051  0.0602 -1.1107 -0.7808
 6614TIP3   OH241332   1.592   4.333   3.106  0.2243  0.0453  0.3428
 6614TIP3    H141333   1.652   4.291   3.168  2.1070  0.8062 -0.8962
 6614TIP3    H241334   1.645   4.349   3.028 -1.8070  0.0549 -1.1116
 6615TIP3   OH241335   4.987   1.797   5.624 -0.8313  0.2100  0.1424
 6615TIP3    H141336   5.007   1.842   5.706 -2.2219  1.3934 -0.1222
 6615TIP3    H241337   4.922   1.853   5.582 -2.0491 -1.6599 -0.5857
 6616TIP3   OH241338   0.841   5.824  15.828 -0.4427 -0.0709 -0.5424
 6616TIP3    H141339   0.848   5.809  15.734 -0.1820 -0.0390 -0.5279
 6616TIP3    H241340   0.789   5.751  15.860 -2.0623  0.8475 -0.9667
 6617TIP3   OH241341   3.710   0.256   2.632 -0.2958  0.0156 -0.3501
 6617TIP3    H141342   3.668   0.209   2.705  0.5242  0.5585  0.4913
 6617TIP3    H241343   3.722   0.345   2.665  0.1693  0.2411 -1.1185
 6618TIP3   OH241344   1.937   3.668   4.778 -0.3982  0.0243  0.3264
 6618TIP3    H141345   1.895   3.718   4.848 -1.0607 -0.1374  0.0588
 6618TIP3    H241346   2.012   3.721   4.751 -0.9514  0.7591  0.2102
 6619TIP3   OH241347   4.677   1.911  16.879  0.2540  0.1876 -0.2005
 6619TIP3    H141348   4.601   1.922  16.821 -0.4907 -0.3895  0.6446
 6619TIP3    H241349   4.649   1.947  16.963 -0.2585 -2.8227  1.0445
 6620TIP3   OH241350   1.068   1.698  12.018  0.0391  0.1467  0.0237
 6620TIP3    H141351   1.091   1.639  11.946 -0.5606  2.6148 -2.3395
 6620TIP3    H241352   1.108   1.657  12.095  1.6760 -2.0707 -1.8372
 6621TIP3   OH241353   3.850   4.140  16.218  0.6435 -0.5651  0.2643
 6621TIP3    H141354   3.896   4.062  16.248  1.9410  0.8834  2.3296
 6621TIP3    H241355   3.759   4.126  16.243  0.9664 -1.1655  1.1258
 6622TIP3   OH241356   1.926   5.407  14.960  0.5001 -0.5732  0.4443
 6622TIP3    H141357   1.905   5.457  14.881  2.0915 -0.8691 -0.2154
 6622TIP3    H241358   2.000   5.352  14.934 -0.7273 -2.7789  1.3422
 6623TIP3   OH241359   0.194   1.843  11.270  0.1657 -0.6545 -0.0771
 6623TIP3    H141360   0.180   1.857  11.176  0.6569 -1.2222 -0.2390
 6623TIP3    H241361   0.209   1.931  11.305  0.3018 -0.4715 -0.5824
 6624TIP3   OH241362   3.049   4.555   5.424 -0.0917  0.0260 -0.1254
 6624TIP3    H141363   3.028   4.468   5.458  2.9157 -1.4881 -1.7315
 6624TIP3    H241364   2.974   4.578   5.369 -0.6203 -1.9052 -0.2641
 6625TIP3   OH241365   6.798   5.942   0.538 -0.1247  0.0792  0.5879
 6625TIP3    H141366   6.735   5.943   0.466 -1.2376  2.2981  1.4954
 6625TIP3    H241367   6.750   5.902   0.611 -0.0268  0.5173  0.8973
 6626TIP3   OH241368   0.874   6.788  13.842 -0.3988 -0.3044 -0.4470
 6626TIP3    H141369   0.819   6.828  13.774 -0.4624  0.5847  0.1042
 6626TIP3    H241370   0.933   6.859  13.869 -0.2481 -0.7034  0.2896
 6627TIP3   OH241371   5.872   4.201  12.378  0.1611  0.2068  0.3096
 6627TIP3    H141372   5.822   4.234  12.304  0.4978  0.4040  0.1669
 6627TIP3    H241373   5.875   4.274  12.439 -0.4703 -0.0880  0.7060
 6628TIP3   OH241374   0.115   1.803  15.196 -0.3972  0.3247 -0.0195
 6628TIP3    H141375   0.139   1.825  15.286 -1.1030  1.7475 -0.1408
 6628TIP3    H241376   0.063   1.723  15.204 -1.2077  0.9234  0.9550
 6629TIP3   OH241377   4.791   6.307  15.629 -0.2358  0.8380  0.7612
 6629TIP3    H141378   4.714   6.335  15.579 -0.2471  0.6391  0.6699
 6629TIP3    H241379   4.809   6.382  15.687 -0.1406  1.1216  0.3727
 6630TIP3   OH241380   1.234   3.886   0.887 -0.3201  0.1507  0.1550
 6630TIP3    H141381   1.283   3.840   0.955 -0.3064 -0.4046 -0.2228
 6630TIP3    H241382   1.198   3.816   0.832 -2.3314  0.5010  0.9475
 6631TIP3   OH241383   2.995   1.614   5.627 -0.2815  0.2400 -0.0473
 6631TIP3    H141384   3.060   1.600   5.557  0.7191 -0.5939  1.0112
 6631TIP3    H241385   3.045   1.603   5.708 -1.8094 -0.7179  0.7961
 6632TIP3   OH241386   6.788   6.703   4.048 -0.0257  0.4486 -0.6856
 6632TIP3    H141387   6.793   6.741   3.961  0.4161 -0.9385 -1.2867
 6632TIP3    H241388   6.699   6.668   4.055  0.5828 -1.3571 -1.4416
 6633TIP3   OH241389   0.995   6.350  15.719  0.5784  0.0608 -0.3456
 6633TIP3    H141390   1.039   6.432  15.697 -0.5154  0.6296 -0.4945
 6633TIP3    H241391   1.008   6.294  15.642  0.2967  0.5411 -0.7496
 6634TIP3   OH241392   2.734   5.663  11.581 -0.1411  0.1754 -0.3533
 6634TIP3    H141393   2.722   5.721  11.506 -3.3687  0.1428 -0.0150
 6634TIP3    H241394   2.804   5.704  11.632  0.0829  1.8268 -1.8790
 6635TIP3   OH241395   4.961   3.377  14.737 -0.0952 -0.2057 -0.4505
 6635TIP3    H141396   5.038   3.322  14.755  0.7413  1.2274  0.5574
 6635TIP3    H241397   4.979   3.417  14.652 -0.2559 -0.7455 -0.7390
 6636TIP3   OH241398   0.586   0.952  12.082 -0.0781 -0.2304 -0.0174
 6636TIP3    H141399   0.631   0.893  12.143  0.5655  0.1371 -0.1169
 6636TIP3    H241400   0.542   1.015  12.139 -2.5528 -1.9984  0.1625
 6637TIP3   OH241401   6.134   4.159  16.346  0.3543  0.3252  0.3985
 6637TIP3    H141402   6.105   4.068  16.352  2.2703 -0.2991  1.1500
 6637TIP3    H241403   6.108   4.186  16.258 -0.2799 -0.9352  0.1689
 6638TIP3   OH241404   6.375   0.500  15.001 -0.0564 -0.1134 -0.2220
 6638TIP3    H141405   6.407   0.430  15.059  1.1816 -0.7780 -1.6556
 6638TIP3    H241406   6.382   0.579  15.054 -0.6497 -0.9177  1.1374
 6639TIP3   OH241407   4.890   3.410  16.774  0.6687 -0.0819  0.7995
 6639TIP3    H141408   4.863   3.485  16.722  1.8251 -1.9444 -2.8078
 6639TIP3    H241409   4.809   3.362  16.792  0.0617  1.3915  2.2517
 6640TIP3   OH241410   3.310   6.813  13.043 -0.1217 -0.0820  0.2645
 6640TIP3    H141411   3.367   6.870  12.990 -0.4043 -2.3381 -2.7618
 6640TIP3    H241412   3.363   6.735  13.058 -1.2431 -0.8434  0.3516
 6641TIP3   OH241413   0.863   4.945  11.308 -0.0859 -0.9341  0.8704
 6641TIP3    H141414   0.856   5.037  11.281 -2.7178 -1.0855  0.7966
 6641TIP3    H241415   0.927   4.907  11.248 -1.0822  0.2101 -1.0317
 6642TIP3   OH241416   2.255   3.835   4.893 -0.4152 -0.2189  0.0274
 6642TIP3    H141417   2.228   3.766   4.955 -1.2728 -0.9124 -1.0646
 6642TIP3    H241418   2.243   3.916   4.941  0.1659 -0.8057  1.1995
 6643TIP3   OH241419   0.202   1.185  13.054 -0.5528  0.3417  0.4169
 6643TIP3    H141420   0.195   1.236  13.135 -0.3084  0.7655  0.1751
 6643TIP3    H241421   0.255   1.108  13.079  0.6078  1.1006  0.3744
 6644TIP3   OH241422   6.524   0.099   3.521 -0.4070 -0.6065 -1.0225
 6644TIP3    H141423   6.471   0.046   3.460 -2.6849 -2.1643  2.0166
 6644TIP3    H241424   6.473   0.180   3.532 -0.1623 -0.4602 -0.9742
 6645TIP3   OH241425   2.066   1.619  16.133 -0.3741 -0.0455 -0.1202
 6645TIP3    H141426   2.082   1.597  16.224 -2.7043 -1.0616  0.1251
 6645TIP3    H241427   2.152   1.621  16.092  0.5899 -1.0399  1.7829
 6646TIP3   OH241428   0.071   3.790   0.486  0.0046 -0.0871 -0.0347
 6646TIP3    H141429   0.016   3.786   0.408 -2.4185 -0.2247  1.5784
 6646TIP3    H241430   0.136   3.858   0.466 -1.1227  0.5433 -1.8086
 6647TIP3   OH241431   6.243   4.900  16.087  0.2215  0.1260 -0.0706
 6647TIP3    H141432   6.208   4.986  16.112 -0.4915 -0.4504  0.9791
 6647TIP3    H241433   6.167   4.842  16.090  0.4275 -0.3269 -2.0316
 6648TIP3   OH241434   5.287   2.090   2.440 -0.6190 -0.6496  0.2342
 6648TIP3    H141435   5.341   2.151   2.390  0.3808 -2.2563 -0.7171
 6648TIP3    H241436   5.343   2.015   2.456 -1.1446 -0.5447  3.1944
 6649TIP3   OH241437   5.615   4.134   6.495 -0.0147  0.1222  0.3052
 6649TIP3    H141438   5.528   4.094   6.493  0.4592 -0.9613  0.5478
 6649TIP3    H241439   5.642   4.137   6.404 -1.2441  2.6811 -0.0675
 6650TIP3   OH241440   4.204   3.404  17.226 -0.4399  0.5355 -0.5163
 6650TIP3    H141441   4.126   3.374  17.272 -1.7660  0.6747 -2.5571
 6650TIP3    H241442   4.277   3.381  17.284 -1.8878 -0.7156  0.8825
 6651TIP3   OH241443   6.595   4.275  12.587 -0.0471  0.3955 -0.7239
 6651TIP3    H141444   6.557   4.187  12.594 -2.2460  1.3602  0.3091
 6651TIP3    H241445   6.687   4.262  12.611 -0.2823 -1.6388 -0.6878
 6652TIP3   OH241446   3.485   1.771  12.893 -0.1610  0.1612  0.4951
 6652TIP3    H141447   3.558   1.826  12.921  0.2112  1.6267 -2.8471
 6652TIP3    H241448   3.523   1.712  12.828 -1.5845 -0.5403  0.2627
 6653TIP3   OH241449   4.120   5.850   3.352  0.0994 -0.2950 -0.4042
 6653TIP3    H141450   4.206   5.822   3.321  0.5154  0.7687 -0.2297
 6653TIP3    H241451   4.129   5.858   3.447  0.8608  3.1433 -0.6524
 6654TIP3   OH241452   4.254   0.191   6.074 -0.3326  0.2782  0.4701
 6654TIP3    H141453   4.304   0.272   6.069  3.8908 -2.0294  0.6473
 6654TIP3    H241454   4.227   0.185   6.166  1.4214  0.4283  1.0309
 6655TIP3   OH241455   6.072   3.446   4.858 -0.5993 -0.4631  0.0068
 6655TIP3    H141456   5.988   3.451   4.812 -1.9164 -1.4629  2.1164
 6655TIP3    H241457   6.057   3.383   4.929  1.6374  0.0872  1.0753
 6656TIP3   OH241458   6.200   5.600  16.448 -0.7914  0.3111 -0.2746
 6656TIP3    H141459   6.278   5.570  16.495 -0.7317 -0.8675 -1.1099
 6656TIP3    H241460   6.234   5.653  16.376 -0.6170 -1.8478 -1.8503
 6657TIP3   OH241461   6.094   5.886   6.190 -0.3912 -0.6320 -0.0354
 6657TIP3    H141462   6.034   5.813   6.205 -0.8354 -0.2532  0.0429
 6657TIP3    H241463   6.048   5.963   6.224  0.2407 -0.3711  0.2576
 6658TIP3   OH241464   1.245   0.700  14.169 -0.0140 -0.1841  0.0764
 6658TIP3    H141465   1.284   0.628  14.217 -1.2339 -0.5835  0.5032
 6658TIP3    H241466   1.236   0.668  14.079 -1.7137 -1.0884  0.5174
 6659TIP3   OH241467   2.735   2.536   0.475  0.4985 -0.1824 -0.3641
 6659TIP3    H141468   2.756   2.479   0.401  0.4240 -1.5116  0.6028
 6659TIP3    H241469   2.699   2.615   0.435  2.0899 -0.1403 -1.8137
 6660TIP3   OH241470   0.289   5.682  13.161  0.0605 -0.3476 -0.3776
 6660TIP3    H141471   0.295   5.599  13.114  0.1802 -0.8987  0.5969
 6660TIP3    H241472   0.269   5.658  13.251 -0.1491  0.6961 -0.1338
 6661TIP3   OH241473   1.756   5.575   3.816 -0.3053  0.5078  0.1515
 6661TIP3    H141474   1.668   5.579   3.855 -1.3168  3.3427 -2.0004
 6661TIP3    H241475   1.740   5.572   3.721  1.9815 -0.5947 -0.2671
 6662TIP3   OH241476   5.341   4.306   4.493  0.0551  0.0673  0.5921
 6662TIP3    H141477   5.252   4.278   4.472  0.1674  0.8293 -1.0859
 6662TIP3    H241478   5.338   4.329   4.586 -0.9808 -1.7822  1.0822
 6663TIP3   OH241479   3.985   0.132   4.341  0.1769 -0.5560  0.3548
 6663TIP3    H141480   3.913   0.134   4.404  1.2403 -0.4258  1.6197
 6663TIP3    H241481   3.946   0.158   4.258 -1.0653  0.3202  1.1881
 6664TIP3   OH241482   6.225   0.721   6.296 -0.5529  0.9658 -0.1526
 6664TIP3    H141483   6.234   0.727   6.201  1.1981  1.8029  0.0355
 6664TIP3    H241484   6.221   0.627   6.314 -1.1015  0.8077 -1.0600
 6665TIP3   OH241485   6.163   1.729  15.886 -0.5193  0.2207  0.3904
 6665TIP3    H141486   6.122   1.655  15.931  0.4255 -0.9075 -0.5362
 6665TIP3    H241487   6.243   1.745  15.935 -1.0231  1.0885  0.9722
 6666TIP3   OH241488   4.001   4.126   4.592  0.2187 -0.4668 -0.1007
 6666TIP3    H141489   3.912   4.143   4.561  0.5941  1.9628 -0.0357
 6666TIP3    H241490   4.057   4.167   4.526  1.2176 -0.2375  0.8692
 6667TIP3   OH241491   2.376   0.537  11.808  0.3301  0.0079  0.0775
 6667TIP3    H141492   2.381   0.458  11.754  3.1214 -0.4024  0.7920
 6667TIP3    H241493   2.381   0.504  11.898 -0.6846  0.9063  0.4842
 6668TIP3   OH241494   0.271   4.072   3.942  0.4361 -0.2019  0.1046
 6668TIP3    H141495   0.265   4.057   3.848  0.4005  3.6855 -0.6954
 6668TIP3    H241496   0.182   4.063   3.974  0.2158 -0.2229 -0.5051
 6669TIP3   OH241497   2.686   4.358   4.482  0.4865 -0.0066  0.1129
 6669TIP3    H141498   2.766   4.411   4.480  0.0047  0.7809 -2.4563
 6669TIP3    H241499   2.627   4.404   4.542  2.1146 -1.0081  2.6568
 6670TIP3   OH241500   1.800   0.165  15.335 -0.4572 -0.1195 -0.2128
 6670TIP3    H141501   1.862   0.162  15.263 -0.8650  1.7062 -0.6901
 6670TIP3    H241502   1.834   0.233  15.394 -1.0045 -0.4273  0.4824
 6671TIP3   OH241503   1.915   4.905   1.891  0.2526 -0.3556  0.3938
 6671TIP3    H141504   2.000   4.882   1.852  0.4170 -0.2458  0.6820
 6671TIP3    H241505   1.932   4.988   1.936 -0.7217  1.2444 -1.9830
 6672TIP3   OH241506   2.502   6.533   5.689  0.3643 -0.3938  0.1956
 6672TIP3    H141507   2.553   6.501   5.763  0.8860 -1.2548 -0.5146
 6672TIP3    H241508   2.550   6.610   5.658  0.7320 -0.6613  0.0984
 6673TIP3   OH241509   0.062   0.225   2.912  0.0280 -0.4250 -0.6304
 6673TIP3    H141510   0.101   0.149   2.870  0.5310 -0.1064 -0.7384
 6673TIP3    H241511   0.015   0.188   2.988  1.3355 -0.7170  0.0771
 6674TIP3   OH241512   6.335   4.401  17.027  0.7895  0.0505 -0.6413
 6674TIP3    H141513   6.375   4.481  16.991 -0.8334  0.4296 -1.7139
 6674TIP3    H241514   6.295   4.359  16.951  1.2615 -1.6053 -0.0201
 6675TIP3   OH241515   0.234   5.829  14.533  0.5462 -0.2331  0.5686
 6675TIP3    H141516   0.206   5.818  14.624 -1.1956  0.1395  0.1128
 6675TIP3    H241517   0.153   5.819  14.482  1.3782  0.2378 -0.8884
 6676TIP3   OH241518   6.187   0.945   0.447  0.2517  0.2335  0.3921
 6676TIP3    H141519   6.231   0.970   0.528 -1.2960  0.2041  1.2734
 6676TIP3    H241520   6.173   1.028   0.401  2.9820  0.1002 -0.9203
 6677TIP3   OH241521   3.861   1.777   6.264  0.0420  0.1579  0.0728
 6677TIP3    H141522   3.871   1.759   6.171  0.5907  1.3241 -0.1151
 6677TIP3    H241523   3.767   1.788   6.277  0.0920  1.8345 -0.7350
 6678TIP3   OH241524   2.643   3.876   2.787 -0.2622 -0.1897 -0.2226
 6678TIP3    H141525   2.677   3.825   2.713 -0.5625 -0.4503 -0.1863
 6678TIP3    H241526   2.630   3.964   2.753  1.9018  0.3235  0.1707
 6679TIP3   OH241527   3.374   5.631  17.141  0.3391  0.5170 -0.3089
 6679TIP3    H141528   3.329   5.713  17.119  0.6437  0.5840 -0.6949
 6679TIP3    H241529   3.444   5.625  17.077  2.0713  1.3796  1.3997
 6680TIP3   OH241530   6.782   3.551   6.510  0.7900  0.2084 -0.0545
 6680TIP3    H141531   6.779   3.529   6.417  1.0895  2.8246 -0.7633
 6680TIP3    H241532   6.691   3.545   6.539  0.5347  0.3633 -0.7941
 6681TIP3   OH241533   0.046   1.739   5.151  0.4433  0.9364  0.0458
 6681TIP3    H141534   0.134   1.729   5.115  0.1029 -0.6516 -0.3912
 6681TIP3    H241535   0.031   1.660   5.203 -0.9502  0.9029 -0.3659
 6682TIP3   OH241536   5.695   6.372  15.309  0.1771  0.0066 -0.4811
 6682TIP3    H141537   5.668   6.385  15.400 -1.4397  1.1386 -1.0815
 6682TIP3    H241538   5.745   6.451  15.288  4.3893 -2.0584  0.6251
 6683TIP3   OH241539   0.352   6.112  13.196 -0.1714 -0.4232  0.0409
 6683TIP3    H141540   0.359   6.092  13.103 -0.4338  0.0925 -0.0912
 6683TIP3    H241541   0.378   6.030  13.240  0.9618 -0.3542 -0.4660
 6684TIP3   OH241542   2.381   6.289  12.424  0.1438 -0.3942  0.0302
 6684TIP3    H141543   2.476   6.293  12.423  0.1140  1.9211  0.9028
 6684TIP3    H241544   2.361   6.220  12.488  1.2107 -1.1499 -0.4288
 6685TIP3   OH241545   6.592   1.684   1.818 -0.2413 -0.4930 -0.2324
 6685TIP3    H141546   6.585   1.618   1.887  3.2256 -1.0158 -0.2028
 6685TIP3    H241547   6.681   1.675   1.786 -1.1237  1.0536 -3.5060
 6686TIP3   OH241548   5.923   6.117  10.714  0.2030  0.2630  0.3994
 6686TIP3    H141549   5.888   6.190  10.662 -0.8786  0.0930  0.8631
 6686TIP3    H241550   5.999   6.154  10.758  1.3194  0.3448 -1.4757
 6687TIP3   OH241551   5.472   3.637   2.447  0.2289  0.1137  0.1480
 6687TIP3    H141552   5.470   3.619   2.540  0.8341 -1.8810 -0.1859
 6687TIP3    H241553   5.414   3.712   2.436 -1.1559 -0.6404  1.9001
 6688TIP3   OH241554   1.673   0.553  15.524  0.2616  0.1807 -0.1844
 6688TIP3    H141555   1.591   0.507  15.540  2.0695 -3.4826 -0.3293
 6688TIP3    H241556   1.655   0.644  15.549 -3.0507 -0.9447  2.3103
 6689TIP3   OH241557   3.449   0.952   4.869  0.1031  0.0078  0.4144
 6689TIP3    H141558   3.502   1.015   4.819  1.9712 -0.4321  1.7510
 6689TIP3    H241559   3.490   0.867   4.853 -0.8173 -0.5015  0.6883
 6690TIP3   OH241560   4.690   4.580  12.648 -0.8845  0.1523 -0.2407
 6690TIP3    H141561   4.729   4.651  12.597  0.9057 -0.2562  0.4906
 6690TIP3    H241562   4.613   4.554  12.597  1.1265 -0.6687 -3.1282
 6691TIP3   OH241563   0.636   4.034  12.947 -0.1661  0.0989  0.0047
 6691TIP3    H141564   0.559   3.983  12.922  0.6163 -0.7542 -0.7469
 6691TIP3    H241565   0.686   4.043  12.866  0.1720  1.2683  0.3302
 6692TIP3   OH241566   1.300   2.736  13.869  0.0479  0.0048 -0.2079
 6692TIP3    H141567   1.228   2.674  13.860 -0.8847  1.1903 -1.1798
 6692TIP3    H241568   1.377   2.689  13.838 -0.3803 -1.1139  0.3854
 6693TIP3   OH241569   2.577   2.276  10.691  0.3372 -0.2379  0.3025
 6693TIP3    H141570   2.657   2.239  10.727  0.7080  1.3252  1.1995
 6693TIP3    H241571   2.549   2.213  10.625  1.7366 -1.3186  0.6801
 6694TIP3   OH241572   2.159   2.826  14.544  0.6227 -0.1427 -0.1295
 6694TIP3    H141573   2.073   2.800  14.511 -0.0048 -0.4592  1.6831
 6694TIP3    H241574   2.202   2.744  14.566 -0.4261  0.0985  3.3036
 6695TIP3   OH241575   1.207   6.686   0.375  0.0361 -0.2678  1.2762
 6695TIP3    H141576   1.155   6.750   0.424  0.3510  0.1150  1.1206
 6695TIP3    H241577   1.298   6.716   0.386  0.1002 -0.0799  0.3363
 6696TIP3   OH241578   2.247   1.580   4.609 -0.4450 -0.2223 -0.4319
 6696TIP3    H141579   2.162   1.608   4.644 -0.6908 -1.7431  0.2804
 6696TIP3    H241580   2.290   1.661   4.583 -1.5028  0.7175  0.6203
 6697TIP3   OH241581   2.004   6.515  14.731  0.1926  0.6324 -0.4060
 6697TIP3    H141582   2.028   6.443  14.673  0.5225  1.7580 -1.6965
 6697TIP3    H241583   1.970   6.583  14.673 -1.5082  0.9724  0.9243
 6698TIP3   OH241584   0.840   5.346   5.179 -0.4033 -0.1979 -0.6615
 6698TIP3    H141585   0.911   5.313   5.233 -2.0318  0.6766  2.2142
 6698TIP3    H241586   0.811   5.271   5.127  2.3659 -0.6217 -1.7674
 6699TIP3   OH241587   2.268   2.147  12.366  0.1869 -0.6175  0.0608
 6699TIP3    H141588   2.343   2.114  12.317 -0.9372 -2.5012 -0.4890
 6699TIP3    H241589   2.205   2.075  12.365 -1.8755  1.0870 -0.0016
 6700TIP3   OH241590   5.858   5.806  13.668  0.0884  0.3325  0.7177
 6700TIP3    H141591   5.923   5.874  13.685  1.2079 -0.6669  0.6536
 6700TIP3    H241592   5.868   5.744  13.741 -2.8890  1.5816  2.3578
 6701TIP3   OH241593   1.682   3.808  15.338  0.1923  0.5495 -0.2312
 6701TIP3    H141594   1.744   3.736  15.350 -0.9098 -0.3934 -0.0121
 6701TIP3    H241595   1.696   3.865  15.414  0.3546  0.0180  0.1444
 6702TIP3   OH241596   5.355   5.357  15.143 -0.2635  0.1933  0.0314
 6702TIP3    H141597   5.360   5.332  15.235 -2.0066  0.4273  0.2324
 6702TIP3    H241598   5.268   5.327  15.115 -0.1773  1.0484 -1.2467
 6703TIP3   OH241599   4.359   5.758   3.218 -0.3480  0.3822 -0.0378
 6703TIP3    H141600   4.431   5.696   3.230  0.2597  1.2414  0.8294
 6703TIP3    H241601   4.396   5.830   3.167 -1.0394  0.0954 -0.9905
 6704TIP3   OH241602   1.823   3.743  11.236 -0.1413  0.0126  0.0773
 6704TIP3    H141603   1.742   3.698  11.259 -1.2283  1.6418 -0.3858
 6704TIP3    H241604   1.798   3.805  11.168  2.1330 -1.6466 -2.4638
 6705TIP3   OH241605   5.177   0.949   1.054 -0.2594  0.2814  0.1290
 6705TIP3    H141606   5.222   0.954   1.138  0.0918 -1.6258  0.1088
 6705TIP3    H241607   5.123   1.028   1.050  2.5356  2.3501  0.4568
 6706TIP3   OH241608   2.720   2.368  14.780 -0.4152 -0.1653 -0.1038
 6706TIP3    H141609   2.700   2.276  14.764 -0.8297 -0.0542 -0.2256
 6706TIP3    H241610   2.638   2.414  14.763  0.5126  0.5833 -3.0683
 6707TIP3   OH241611   3.497   1.076   1.969 -0.2349 -0.7186 -0.4239
 6707TIP3    H141612   3.527   0.988   1.945  1.1176  0.1606 -2.2031
 6707TIP3    H241613   3.417   1.088   1.918 -0.2549 -0.8076 -0.4148
 6708TIP3   OH241614   1.291   3.437  11.777 -0.3502 -0.0883 -0.0759
 6708TIP3    H141615   1.232   3.382  11.725 -0.7370 -0.6761  0.9693
 6708TIP3    H241616   1.234   3.498  11.823 -0.2375 -1.0513  1.4077
 6709TIP3   OH241617   3.695   5.902   4.243  0.2817 -0.1899 -0.3590
 6709TIP3    H141618   3.759   5.955   4.289  2.4424 -2.1255 -0.9488
 6709TIP3    H241619   3.612   5.922   4.286  1.3753  1.7816  0.9990
 6710TIP3   OH241620   6.311   4.732   0.182  0.1309  0.0778  0.2270
 6710TIP3    H141621   6.232   4.677   0.189  1.3616 -1.6275  1.6327
 6710TIP3    H241622   6.303   4.795   0.254 -0.7142  0.9934 -0.6507
 6711TIP3   OH241623   2.491   5.971   5.154 -0.1291 -0.3308  0.1808
 6711TIP3    H141624   2.475   6.044   5.094  0.2367 -1.6416 -1.6011
 6711TIP3    H241625   2.405   5.950   5.191 -0.1983  1.1220  0.9332
 6712TIP3   OH241626   1.936   5.510  11.749 -0.3671 -0.2856  0.0325
 6712TIP3    H141627   2.005   5.575  11.761  0.8459 -1.4791 -0.3307
 6712TIP3    H241628   1.856   5.556  11.775  0.6479  0.8622  1.2471
 6713TIP3   OH241629   5.768   6.073   2.518  0.0537 -0.1870  0.1899
 6713TIP3    H141630   5.698   6.048   2.578 -0.3163  0.8592  0.2147
 6713TIP3    H241631   5.846   6.078   2.573 -0.1938  0.3117  0.5022
 6714TIP3   OH241632   1.148   1.965  15.212  0.1923  0.2776  0.2243
 6714TIP3    H141633   1.109   2.045  15.178 -0.5080  0.4743  1.4242
 6714TIP3    H241634   1.191   1.992  15.294  1.6278 -0.2187 -0.3280
 6715TIP3   OH241635   5.965   5.600   3.999  0.1776  0.2133  0.5629
 6715TIP3    H141636   5.937   5.539   4.068  0.3695 -1.7324 -0.9925
 6715TIP3    H241637   5.986   5.544   3.925  0.9034  2.1783 -0.7923
 6716TIP3   OH241638   4.439   1.634   4.536 -0.7825  0.1836 -0.5056
 6716TIP3    H141639   4.465   1.715   4.494  0.4592 -0.5810 -1.2655
 6716TIP3    H241640   4.476   1.639   4.624 -0.0063  0.0966 -0.8221
 6717TIP3   OH241641   6.748   2.800   5.269 -0.0795  0.4265  0.4210
 6717TIP3    H141642   6.835   2.803   5.230 -0.0563  0.2488  0.4569
 6717TIP3    H241643   6.699   2.739   5.214 -0.7686  2.0156 -0.7650
 6718TIP3   OH241644   6.268   1.700   2.340 -0.3780  0.0637  0.3391
 6718TIP3    H141645   6.359   1.682   2.317 -0.4597  0.5279 -0.3997
 6718TIP3    H241646   6.271   1.725   2.432  0.2897  0.3758  0.2385
 6719TIP3   OH241647   6.158   5.867   0.887 -0.2254 -0.1764  0.3928
 6719TIP3    H141648   6.083   5.816   0.856  0.2335 -1.4810  1.3281
 6719TIP3    H241649   6.233   5.809   0.877  0.6976  1.1116 -0.5284
 6720TIP3   OH241650   2.419   6.230  16.863 -0.0663  0.0799  0.6843
 6720TIP3    H141651   2.355   6.260  16.928 -0.7836 -1.2491  0.6141
 6720TIP3    H241652   2.391   6.270  16.781 -0.1434  0.4047  0.8687
 6721TIP3   OH241653   3.999   0.072  11.605 -0.1924 -0.0005 -0.1539
 6721TIP3    H141654   3.933   0.057  11.673  1.0342 -0.7433  0.9200
 6721TIP3    H241655   4.079   0.032  11.640  1.2579  2.2685 -0.6876
 6722TIP3   OH241656   5.666   3.000   4.988  0.0116  0.5641  0.1733
 6722TIP3    H141657   5.633   2.943   5.058  2.8554 -0.5745  0.7135
 6722TIP3    H241658   5.656   2.949   4.908  0.2187  0.3233  0.2988
 6723TIP3   OH241659   0.151   6.086   3.616 -0.3344  0.1423 -0.4723
 6723TIP3    H141660   0.190   6.162   3.572  1.2450  0.2327  0.9703
 6723TIP3    H241661   0.222   6.022   3.618  0.0409  0.5016  2.7359
 6724TIP3   OH241662   1.912   3.785  12.207 -0.1576 -0.5477  0.3741
 6724TIP3    H141663   1.985   3.808  12.150 -2.3627 -0.9481 -2.8884
 6724TIP3    H241664   1.846   3.852  12.191 -1.8574 -2.1240  0.3885
 6725TIP3   OH241665   2.859   3.840   2.341 -0.4497 -0.3498  0.0674
 6725TIP3    H141666   2.871   3.787   2.419  1.3194 -0.6402 -0.3479
 6725TIP3    H241667   2.927   3.907   2.348 -0.5802 -0.0925 -0.9888
 6726TIP3   OH241668   4.459   0.738  13.129  0.2034 -0.1675 -0.1764
 6726TIP3    H141669   4.404   0.816  13.132 -0.2010 -0.4334 -0.4381
 6726TIP3    H241670   4.528   0.759  13.066 -0.5098 -0.3889 -1.0637
 6727TIP3   OH241671   5.082   0.519   1.495 -0.2236  0.2462  0.3085
 6727TIP3    H141672   4.998   0.475   1.482  0.1871 -0.3108 -0.5645
 6727TIP3    H241673   5.107   0.548   1.407  0.8634 -0.2695  0.4329
 6728TIP3   OH241674   2.655   5.342  16.326 -0.1324  0.0133  0.6330
 6728TIP3    H141675   2.718   5.391  16.379 -1.0922  0.8752  1.0193
 6728TIP3    H241676   2.594   5.408  16.294 -0.1839 -0.6416 -0.7062
 6729TIP3   OH241677   5.924   2.685  14.792 -0.1611  0.8892 -0.3567
 6729TIP3    H141678   5.882   2.740  14.858  0.1567  1.1176 -0.3402
 6729TIP3    H241679   5.894   2.596  14.812 -0.2182  0.9823 -0.0257
 6730TIP3   OH241680   0.028   2.178   3.654 -0.6500 -0.6715  0.2975
 6730TIP3    H141681  -0.010   2.165   3.567  0.4517  0.7390 -0.4530
 6730TIP3    H241682   0.120   2.153   3.644 -0.3782  0.0485  0.8996
 6731TIP3   OH241683   6.380   0.234  13.451 -0.0477 -0.2443  1.1332
 6731TIP3    H141684   6.404   0.278  13.532  1.8014 -0.6076  0.8293
 6731TIP3    H241685   6.463   0.209  13.411 -0.8829  0.1237 -1.0079
 6732TIP3   OH241686   3.355   5.965   1.127 -0.0449 -0.1467  0.0473
 6732TIP3    H141687   3.271   5.983   1.085  0.0561 -1.2392 -0.6548
 6732TIP3    H241688   3.414   6.032   1.092 -0.7929  1.1874  1.2144
 6733TIP3   OH241689   6.154   5.836   2.572  0.1150  0.1537 -0.0569
 6733TIP3    H141690   6.071   5.839   2.525  0.9608 -0.5064 -1.6722
 6733TIP3    H241691   6.129   5.838   2.665 -1.7319 -0.6839 -0.4836
 6734TIP3   OH241692   3.995   0.812  16.696  0.0897  0.0330 -0.2358
 6734TIP3    H141693   4.052   0.855  16.759 -1.1917  1.7372 -0.1637
 6734TIP3    H241694   4.013   0.719  16.707  3.3271  0.4824 -0.7283
 6735TIP3   OH241695   4.192   2.257   4.080  0.7239 -0.3458 -0.6939
 6735TIP3    H141696   4.142   2.319   4.133  0.5042 -0.7258 -0.4549
 6735TIP3    H241697   4.127   2.193   4.049  0.7187  0.2543 -2.0025
 6736TIP3   OH241698   1.706   2.060  13.447  0.3359  0.0826 -0.3804
 6736TIP3    H141699   1.775   1.994  13.454  1.5604  0.7333 -4.1468
 6736TIP3    H241700   1.750   2.143  13.462 -0.4013  0.3316  0.5131
 6737TIP3   OH241701   5.899   6.107   4.733 -0.0963  0.6172 -0.5579
 6737TIP3    H141702   5.957   6.034   4.756  1.4510  1.2803 -2.1376
 6737TIP3    H241703   5.883   6.097   4.639 -2.6556  0.4342 -0.1707
 6738TIP3   OH241704   4.336   3.166   2.689  0.3004 -0.3007  0.3756
 6738TIP3    H141705   4.414   3.125   2.726  0.6025  0.5361  0.7101
 6738TIP3    H241706   4.285   3.194   2.766 -1.1028 -2.1829  0.2049
 6739TIP3   OH241707   3.177   5.868   0.117 -0.1140  0.2118  0.7482
 6739TIP3    H141708   3.219   5.865   0.032 -1.9051 -1.0734 -0.1563
 6739TIP3    H241709   3.200   5.954   0.152  1.9069  0.1689 -0.3335
 6740TIP3   OH241710   5.373   0.632   3.530 -0.6320  0.4075 -0.0651
 6740TIP3    H141711   5.382   0.727   3.515 -1.8371  0.3155 -1.6387
 6740TIP3    H241712   5.385   0.594   3.443  1.0599 -1.0272  0.7366
 6741TIP3   OH241713   4.209   5.092  11.956  0.6563 -0.0718 -0.1627
 6741TIP3    H141714   4.168   5.006  11.957 -1.0378  0.7075  0.0624
 6741TIP3    H241715   4.177   5.135  12.035  1.0618  0.9652 -0.5487
 6742TIP3   OH241716   0.450   0.750  12.319  0.1687  0.2518  0.2590
 6742TIP3    H141717   0.500   0.753  12.238  1.8176  0.4836  1.2237
 6742TIP3    H241718   0.374   0.696  12.299  0.3976  0.5295 -1.4915
 6743TIP3   OH241719   2.311   0.942   1.821 -0.5240  0.3906  0.1477
 6743TIP3    H141720   2.352   0.874   1.875  1.2308  0.6205 -0.7988
 6743TIP3    H241721   2.319   1.022   1.873  1.0789  0.5936 -0.3564
 6744TIP3   OH241722   4.569   5.869   6.218  0.0441 -0.1627 -0.0078
 6744TIP3    H141723   4.582   5.914   6.302 -0.3128 -2.0310  1.1171
 6744TIP3    H241724   4.648   5.886   6.168 -0.4935  2.5376 -0.0929
 6745TIP3   OH241725   1.262   2.682   2.654 -0.0822  0.5143  0.2494
 6745TIP3    H141726   1.221   2.637   2.581  0.4882  0.1528  0.1471
 6745TIP3    H241727   1.334   2.625   2.680 -0.5083  0.4468  1.3382
 6746TIP3   OH241728   1.947   3.160  12.239  0.4209 -0.2530 -0.2628
 6746TIP3    H141729   1.872   3.193  12.190  0.4016  1.1859  0.6852
 6746TIP3    H241730   2.021   3.174  12.180  0.1470 -0.3877 -0.6477
 6747TIP3   OH241731   3.286   1.151   3.130  0.1874 -0.0036 -0.0235
 6747TIP3    H141732   3.241   1.067   3.132  1.6745 -0.9175 -1.9492
 6747TIP3    H241733   3.356   1.143   3.195  1.6893 -1.1589 -1.6826
 6748TIP3   OH241734   2.754   6.213  15.072 -0.0226 -0.1874 -0.4320
 6748TIP3    H141735   2.782   6.130  15.109 -0.3982  0.0275  0.3610
 6748TIP3    H241736   2.660   6.202  15.057  0.0763 -0.1820 -1.0941
 6749TIP3   OH241737   2.295   3.149   4.590  0.4714  0.1383 -0.1370
 6749TIP3    H141738   2.240   3.094   4.534 -1.5182  0.7205  1.1431
 6749TIP3    H241739   2.292   3.236   4.549  0.5232  0.1506 -0.1143
 6750TIP3   OH241740   2.993   6.578  15.328  0.0147 -0.1331  0.1743
 6750TIP3    H141741   2.956   6.628  15.255 -0.4502 -1.3996 -0.4738
 6750TIP3    H241742   3.086   6.568  15.306  0.0765  0.2813  0.2294
 6751TIP3   OH241743   1.111   6.044   2.376 -0.4312  0.5444 -0.1159
 6751TIP3    H141744   1.179   5.990   2.336 -1.1218 -0.3862 -0.0638
 6751TIP3    H241745   1.045   6.054   2.308 -0.7376  0.5397  0.1784
 6752TIP3   OH241746   4.805   2.396  14.877  0.1626  0.1812  0.4192
 6752TIP3    H141747   4.872   2.432  14.819 -0.1170 -0.5495 -0.3809
 6752TIP3    H241748   4.751   2.341  14.820 -1.1020  0.7374  1.0534
 6753TIP3   OH241749   3.261   6.376   2.623 -0.7440  0.7398  0.3844
 6753TIP3    H141750   3.192   6.432   2.660 -2.4065 -0.3943 -0.8127
 6753TIP3    H241751   3.309   6.343   2.699 -1.1749  1.9835  1.2264
 6754TIP3   OH241752   5.129   1.272  14.016  0.2318  0.5286  0.0536
 6754TIP3    H141753   5.044   1.303  13.984  0.5413 -0.3667 -1.8119
 6754TIP3    H241754   5.108   1.222  14.095 -1.0415  0.0484 -0.5488
 6755TIP3   OH241755   5.807   5.935   6.491  0.1422 -0.1798  0.2661
 6755TIP3    H141756   5.724   5.966   6.527 -0.2627  0.0301 -0.8154
 6755TIP3    H241757   5.799   5.839   6.492 -0.8710 -0.1717 -1.4379
 6756TIP3   OH241758   0.943   1.136  14.969  0.5850 -0.3283  0.2999
 6756TIP3    H141759   0.912   1.090  14.890  0.9935 -0.0518 -0.0307
 6756TIP3    H241760   0.887   1.212  14.977 -0.1770 -0.9418  0.9225
 6757TIP3   OH241761   4.183   1.331  10.417  0.7908  0.2191  0.0501
 6757TIP3    H141762   4.093   1.351  10.440 -0.0945 -2.2536 -0.9322
 6757TIP3    H241763   4.210   1.263  10.480  2.0127  0.9829  0.3844
 6758TIP3   OH241764   0.542   2.104   1.637 -0.3939 -0.0857 -0.0347
 6758TIP3    H141765   0.460   2.080   1.593  0.3698  0.7805 -2.0455
 6758TIP3    H241766   0.531   2.196   1.659 -2.1964 -1.2256  5.0975
 6759TIP3   OH241767   0.965   4.437   1.506 -0.1998  0.2247  0.6422
 6759TIP3    H141768   0.980   4.524   1.471  1.6300  0.4171  1.8004
 6759TIP3    H241769   1.042   4.418   1.560 -1.7733 -1.0145  2.6155
 6760TIP3   OH241770   0.469   2.295  11.063  0.8691  0.3171 -0.2391
 6760TIP3    H141771   0.406   2.252  11.005 -1.1206  1.2824  1.1091
 6760TIP3    H241772   0.506   2.223  11.115  0.9827 -0.2753 -1.1157
 6761TIP3   OH241773   2.090   2.279  13.352 -0.2230  1.2389 -0.1864
 6761TIP3    H141774   2.181   2.306  13.365 -0.2135  0.7858  0.7606
 6761TIP3    H241775   2.088   2.188  13.381 -1.3408  1.7438  1.4326
 6762TIP3   OH241776   5.381   3.427  12.370  0.3585  1.1912  0.0769
 6762TIP3    H141777   5.308   3.485  12.349 -1.3855 -0.7820  0.3507
 6762TIP3    H241778   5.422   3.408  12.286  0.2545  1.9314 -0.1418
 6763TIP3   OH241779   5.318   4.643  10.633 -0.3815  0.4008 -0.2633
 6763TIP3    H141780   5.308   4.603  10.547 -0.7704  3.4847 -1.7722
 6763TIP3    H241781   5.412   4.636  10.652 -0.4132 -1.0398 -0.4805
 6764TIP3   OH241782   1.293   5.228   3.505 -0.1655 -0.5032  0.5183
 6764TIP3    H141783   1.239   5.175   3.446  0.2994  0.2724 -0.6421
 6764TIP3    H241784   1.235   5.296   3.537  0.1267  0.4241 -0.8507
 6765TIP3   OH241785   2.557   5.308  11.878  0.2727 -0.6160 -0.2291
 6765TIP3    H141786   2.570   5.393  11.837  1.2979  0.9000  2.9020
 6765TIP3    H241787   2.463   5.306  11.900  0.2209 -0.3662 -0.4203
 6766TIP3   OH241788   2.468   1.149  15.180 -0.4027  0.0990 -0.1873
 6766TIP3    H141789   2.560   1.163  15.202 -0.1476  2.7590 -2.4847
 6766TIP3    H241790   2.420   1.214  15.232 -0.6676  0.5408 -0.9609
 6767TIP3   OH241791   5.191   4.341  15.686  0.5962  0.3786 -0.7188
 6767TIP3    H141792   5.168   4.416  15.742 -1.5077 -0.1863 -0.7331
 6767TIP3    H241793   5.211   4.271  15.748 -1.6097 -0.2104 -0.5940
 6768TIP3   OH241794   2.313   6.023  11.705 -0.3225 -0.0040 -0.6583
 6768TIP3    H141795   2.311   5.932  11.675 -0.2848 -0.0487 -0.5280
 6768TIP3    H241796   2.239   6.064  11.660 -1.8082 -0.6730  1.0238
 6769TIP3   OH241797   2.946   6.416   3.836 -0.1510 -0.6591 -0.4320
 6769TIP3    H141798   3.004   6.368   3.895 -1.6684 -0.4261  1.3274
 6769TIP3    H241799   3.005   6.467   3.781  1.3287 -0.2732  1.4111
 6770TIP3   OH241800   3.328   6.523  10.358 -0.1406 -0.2650  1.1159
 6770TIP3    H141801   3.289   6.499  10.442 -1.7290 -1.1008  0.1858
 6770TIP3    H241802   3.284   6.468  10.294 -0.1668  1.5036 -0.4879
 6771TIP3   OH241803   1.596   4.823  12.137 -0.0399  0.3479  0.5887
 6771TIP3    H141804   1.554   4.781  12.062  2.7164  1.6238 -1.8681
 6771TIP3    H241805   1.528   4.881  12.173 -1.0030  0.9825 -2.0223
 6772TIP3   OH241806   6.115   1.421  11.871 -0.4555 -0.4134  0.7986
 6772TIP3    H141807   6.041   1.478  11.849 -0.0115  0.0272  0.4303
 6772TIP3    H241808   6.175   1.430  11.797  0.1199 -0.5151  1.2516
 6773TIP3   OH241809   2.372   5.811   2.911  0.4757 -0.5135 -0.0694
 6773TIP3    H141810   2.411   5.767   2.987  1.5648  0.1532 -0.2279
 6773TIP3    H241811   2.301   5.863   2.948  1.5668  0.5135  0.6415
 6774TIP3   OH241812   1.827   0.165  13.829 -0.6623 -0.5507  0.6080
 6774TIP3    H141813   1.877   0.247  13.834 -0.1514 -0.7741 -0.4882
 6774TIP3    H241814   1.738   0.192  13.810 -0.5274 -0.2369  0.4109
 6775TIP3   OH241815   2.173   4.904   3.612 -0.4665  0.7173 -0.4601
 6775TIP3    H141816   2.158   4.858   3.694 -1.6166  0.3672 -0.8503
 6775TIP3    H241817   2.139   4.992   3.626  0.0820  0.9086 -0.3037
 6776TIP3   OH241818   4.385   0.372  14.600 -0.2857  0.7845  0.1730
 6776TIP3    H141819   4.425   0.440  14.545  0.2027  0.0955 -0.3267
 6776TIP3    H241820   4.459   0.324  14.636 -0.6520 -0.0692 -0.2047
 6777TIP3   OH241821   4.646   4.824  15.012  0.1193 -0.6996 -0.4786
 6777TIP3    H141822   4.737   4.852  15.013  0.1650 -0.8676  0.0653
 6777TIP3    H241823   4.600   4.890  15.065  0.2810 -1.8121  1.1284
 6778TIP3   OH241824   0.520   5.539   3.053 -0.5407  0.0579 -0.0373
 6778TIP3    H141825   0.599   5.590   3.035 -1.3255  0.8600 -1.4180
 6778TIP3    H241826   0.547   5.448   3.044  0.4679  0.2825  0.5968
 6779TIP3   OH241827   5.578   3.565   0.713  0.0586  0.1871 -0.4969
 6779TIP3    H141828   5.489   3.533   0.732  0.2592 -0.1938 -0.1884
 6779TIP3    H241829   5.617   3.495   0.660  0.7709 -0.4636  0.8456
 6780TIP3   OH241830   6.070   3.353   6.366 -0.1091 -0.5799  0.0697
 6780TIP3    H141831   6.148   3.370   6.417 -0.2611 -2.2523  0.9470
 6780TIP3    H241832   6.038   3.268   6.398 -1.9370 -0.2347 -0.6757
 6781TIP3   OH241833   2.193   2.493   3.917  0.7274 -0.0974 -0.1171
 6781TIP3    H141834   2.261   2.458   3.975 -0.1714 -0.8060  0.5470
 6781TIP3    H241835   2.183   2.584   3.943  0.2367 -0.4453  0.9774
 6782TIP3   OH241836   0.765   4.885   5.659  0.3274 -1.0005  0.2705
 6782TIP3    H141837   0.752   4.878   5.754  0.3211 -2.1665  0.1987
 6782TIP3    H241838   0.770   4.794   5.629 -0.3095 -0.6522 -0.9407
 6783TIP3   OH241839   0.391   3.583  13.590  0.3669  0.5256 -0.2305
 6783TIP3    H141840   0.304   3.623  13.596  0.7187  1.2325  0.2828
 6783TIP3    H241841   0.445   3.636  13.648  1.3409  0.6231 -1.2026
 6784TIP3   OH241842   5.961   0.779  12.356 -0.3366  0.1266  0.0641
 6784TIP3    H141843   5.985   0.853  12.299 -0.5672  0.9886  1.0581
 6784TIP3    H241844   5.978   0.701  12.303  0.0998  0.8867 -0.9384
 6785TIP3   OH241845   3.509   6.429  13.044 -0.1933  0.1807  0.0409
 6785TIP3    H141846   3.467   6.367  12.985 -0.8400  0.0419  0.6335
 6785TIP3    H241847   3.459   6.422  13.126  1.3943 -0.5002  1.0127
 6786TIP3   OH241848   0.409   1.480  12.733  0.0767  0.1311 -0.0463
 6786TIP3    H141849   0.328   1.472  12.783  0.5947  0.6916  0.8913
 6786TIP3    H241850   0.455   1.397  12.748  0.8610  0.8173  1.5632
 6787TIP3   OH241851   1.145   5.846   5.068 -0.5126  0.7171  0.4326
 6787TIP3    H141852   1.187   5.871   4.985 -0.1606 -1.2675 -0.0432
 6787TIP3    H241853   1.208   5.871   5.135  0.2934  0.1819 -0.0964
 6788TIP3   OH241854   1.777   6.374   2.349  0.3251  0.3701 -0.0872
 6788TIP3    H141855   1.862   6.415   2.332  0.4538  0.7647  1.3766
 6788TIP3    H241856   1.798   6.298   2.403 -0.2203  0.2456 -0.0445
 6789TIP3   OH241857   1.082   2.779   1.467  0.5315 -0.3585 -0.1982
 6789TIP3    H141858   1.037   2.794   1.384 -1.3152 -1.6929  0.5002
 6789TIP3    H241859   1.056   2.852   1.523 -0.7097 -1.0376  0.1486
 6790TIP3   OH241860   6.739   0.658   3.674 -0.6861 -0.2072 -0.0016
 6790TIP3    H141861   6.790   0.713   3.615  1.1247 -1.5056  0.2717
 6790TIP3    H241862   6.770   0.680   3.762 -0.4670 -1.0884  0.1612
 6791TIP3   OH241863   4.131   6.748   5.397  0.2179  0.3757  0.2292
 6791TIP3    H141864   4.188   6.771   5.471 -0.3000 -1.5255  1.3056
 6791TIP3    H241865   4.074   6.678   5.432  0.7142 -1.4074 -2.2789
 6792TIP3   OH241866   4.732   0.412   0.018 -0.3743  0.0180  0.7700
 6792TIP3    H141867   4.665   0.454   0.073 -0.0732  0.8339  0.5310
 6792TIP3    H241868   4.704   0.321   0.012 -0.2558 -0.1738  2.5388
 6793TIP3   OH241869   5.242   1.630   4.616  0.2984  0.3047 -0.2017
 6793TIP3    H141870   5.258   1.665   4.703  0.8294 -1.8356  0.6165
 6793TIP3    H241871   5.186   1.695   4.574 -1.7963  0.3812  2.4937
 6794TIP3   OH241872   0.835   1.644  11.005  0.0478 -0.4183 -0.9186
 6794TIP3    H141873   0.874   1.626  11.090 -3.1788 -2.4722  0.2732
 6794TIP3    H241874   0.873   1.578  10.947  1.3327  0.2189 -0.8503
 6795TIP3   OH241875   4.245   6.041  15.979  0.1835  0.4144 -0.1721
 6795TIP3    H141876   4.199   6.081  15.905  1.6159  1.4025 -0.5631
 6795TIP3    H241877   4.332   6.080  15.977  0.9471 -1.1352  0.7609
 6796TIP3   OH241878   2.185   1.512  17.039 -0.2465 -0.3263 -0.0316
 6796TIP3    H141879   2.265   1.529  17.089 -0.8939 -0.5760  1.1154
 6796TIP3    H241880   2.156   1.598  17.009  0.1670 -0.1789 -0.0171
 6797TIP3   OH241881   3.855   2.144   2.088  0.1381 -0.2052  0.1734
 6797TIP3    H141882   3.864   2.099   2.004  0.8931  0.7219 -0.2575
 6797TIP3    H241883   3.875   2.076   2.153  2.2558 -0.2910 -0.4949
 6798TIP3   OH241884   6.186   3.394  14.625  0.0689 -0.4416  0.0389
 6798TIP3    H141885   6.218   3.389  14.715  0.1798 -0.0264  0.0247
 6798TIP3    H241886   6.149   3.481  14.617 -2.6832 -1.4670  0.5820
 6799TIP3   OH241887   3.810   1.254   0.814 -0.2612 -0.3146  0.0007
 6799TIP3    H141888   3.832   1.335   0.860 -1.7472 -1.6133  3.2817
 6799TIP3    H241889   3.731   1.276   0.764  1.8226  1.3314 -2.8513
 6800TIP3   OH241890   4.010   5.898  14.255 -0.2768 -0.2574 -0.5176
 6800TIP3    H141891   4.073   5.893  14.184  1.4211  1.2811  0.7598
 6800TIP3    H241892   4.031   5.824  14.311 -1.5422 -1.4054 -1.5263
 6801TIP3   OH241893   2.767   3.710   2.606  0.7616 -0.3538 -0.3693
 6801TIP3    H141894   2.763   3.615   2.612  0.2359 -0.4741 -2.1504
 6801TIP3    H241895   2.859   3.731   2.619  0.7699 -1.0298  0.7851
 6802TIP3   OH241896   5.136   2.523   0.143  0.1673  0.1187  0.7861
 6802TIP3    H141897   5.042   2.525   0.161 -0.3203  0.0239 -1.4211
 6802TIP3    H241898   5.168   2.608   0.172 -1.0052  0.9325 -0.2216
 6803TIP3   OH241899   3.326   2.277   5.015 -0.1394 -0.4102 -0.3094
 6803TIP3    H141900   3.276   2.359   5.022 -1.1549 -1.1126  1.4141
 6803TIP3    H241901   3.412   2.298   5.052 -0.9018 -0.4693  1.6027
 6804TIP3   OH241902   0.916   1.762   0.038  0.3127  0.2242  0.8431
 6804TIP3    H141903   0.881   1.700   0.103  0.0552 -0.0923  0.4111
 6804TIP3    H241904   0.942   1.707  -0.036  2.3508  0.3880  1.3992
 6805TIP3   OH241905   4.428   4.864   0.898  0.5027 -0.1687 -0.1248
 6805TIP3    H141906   4.439   4.927   0.969  2.9789 -0.2794 -0.3402
 6805TIP3    H241907   4.368   4.798   0.933 -0.6395  1.2820  0.7666
 6806TIP3   OH241908   2.726   5.297  14.308 -0.4338  0.3732  0.6566
 6806TIP3    H141909   2.791   5.288  14.238 -1.0083 -2.3942  0.3768
 6806TIP3    H241910   2.770   5.348  14.376  0.8024  1.4896 -0.9119
 6807TIP3   OH241911   0.216   5.348   2.496  0.0576 -0.1623  0.2624
 6807TIP3    H141912   0.159   5.302   2.434 -0.4571  0.0490  0.5679
 6807TIP3    H241913   0.156   5.402   2.547  0.5914  0.4233  0.2791
 6808TIP3   OH241914   0.398   3.120   4.383 -0.1640  0.2194 -0.1093
 6808TIP3    H141915   0.344   3.073   4.319  1.8460 -0.6728 -1.2595
 6808TIP3    H241916   0.421   3.053   4.448  0.7859  0.1476 -0.4894
 6809TIP3   OH241917   3.473   0.299  17.101  0.0299  1.0751 -0.1418
 6809TIP3    H141918   3.411   0.233  17.070 -0.1322  1.5160 -0.7668
 6809TIP3    H241919   3.428   0.382  17.087  0.0103  1.2972  1.1557
 6810TIP3   OH241920   4.506   2.499   2.031  0.0150  0.3131  0.1090
 6810TIP3    H141921   4.488   2.593   2.033 -0.2704  0.2565  1.1565
 6810TIP3    H241922   4.474   2.468   2.116  0.8493 -0.5870  0.1044
 6811TIP3   OH241923   3.193   5.855   5.664  0.4711 -1.0701  0.1020
 6811TIP3    H141924   3.164   5.867   5.574  0.5224 -0.4895  0.1579
 6811TIP3    H241925   3.114   5.870   5.716  0.1332 -2.7024  0.0960
 6812TIP3   OH241926   2.723   5.540  15.710 -0.3532  0.2718 -0.1491
 6812TIP3    H141927   2.818   5.526  15.717  0.0930  2.8460  0.1424
 6812TIP3    H241928   2.696   5.487  15.635  1.2904 -0.5836 -0.1886
 6813TIP3   OH241929   1.379   6.596   6.375 -0.0654 -0.3502  0.0359
 6813TIP3    H141930   1.457   6.625   6.328  0.7970 -0.4297  1.3698
 6813TIP3    H241931   1.311   6.658   6.349  1.1026  1.3812  0.8847
 6814TIP3   OH241932   5.589   6.464   3.092  0.1273  0.0800 -0.2758
 6814TIP3    H141933   5.517   6.515   3.129 -1.6296 -2.5057  0.0962
 6814TIP3    H241934   5.549   6.383   3.062  2.9838 -1.8333  0.6298
 6815TIP3   OH241935   2.327   0.176   2.357 -0.4678 -0.4267  0.1386
 6815TIP3    H141936   2.309   0.269   2.345 -0.5600 -0.5608 -0.7784
 6815TIP3    H241937   2.421   0.168   2.339 -0.4985 -0.5450  0.0341
 6816TIP3   OH241938   4.704   1.403   2.721  0.4477 -0.0670  0.0158
 6816TIP3    H141939   4.647   1.393   2.645 -0.6023  0.2634  0.7273
 6816TIP3    H241940   4.694   1.320   2.769 -1.5202  0.9200  1.4740
 6817TIP3   OH241941   5.040   1.351  13.227  0.0720 -0.6338  0.1215
 6817TIP3    H141942   5.025   1.445  13.232  0.5235 -0.4143 -1.9080
 6817TIP3    H241943   5.054   1.324  13.318  0.1647  1.2805  0.7133
 6818TIP3   OH241944   5.225   3.120  11.270 -0.3686  0.2764 -0.3819
 6818TIP3    H141945   5.203   3.127  11.363  0.2041  0.1935 -0.2385
 6818TIP3    H241946   5.297   3.182  11.258 -2.2025  2.3522 -1.3514
 6819TIP3   OH241947   5.318   6.515  17.143 -0.0806  0.2099 -0.0452
 6819TIP3    H141948   5.350   6.428  17.166 -3.4885 -0.9572  0.8855
 6819TIP3    H241949   5.361   6.536  17.060  0.3859 -2.6601 -0.6106
 6820TIP3   OH241950   2.693   5.101   1.889  0.1395 -0.0432 -0.1267
 6820TIP3    H141951   2.715   5.162   1.959  0.7782  0.2936 -0.6117
 6820TIP3    H241952   2.726   5.143   1.809 -0.9046 -0.2370 -0.6883
 6821TIP3   OH241953   6.661   1.550  15.637  0.0786 -0.1388 -0.0898
 6821TIP3    H141954   6.646   1.635  15.679 -0.1653 -0.1444 -0.1638
 6821TIP3    H241955   6.755   1.546  15.624  0.0518  0.2806 -0.4222
 6822TIP3   OH241956   6.332   6.759   2.171 -0.2659  0.0281  0.4825
 6822TIP3    H141957   6.349   6.720   2.257  0.5645 -0.4478  0.1235
 6822TIP3    H241958   6.237   6.763   2.164 -0.3688 -1.3428  0.8122
 6823TIP3   OH241959   2.630   4.357  16.296  0.1655  0.0838 -0.0881
 6823TIP3    H141960   2.704   4.413  16.275  0.4851 -0.4574 -0.4191
 6823TIP3    H241961   2.660   4.302  16.368  0.2994 -0.5627 -0.6328
 6824TIP3   OH241962   0.358   6.020   2.816 -0.4345  0.0909 -0.2981
 6824TIP3    H141963   0.329   6.073   2.890 -1.9894 -1.4570  0.2747
 6824TIP3    H241964   0.400   5.944   2.856 -1.6595 -0.9648 -0.9395
 6825TIP3   OH241965   3.035   3.050  12.081  0.0856 -0.3029 -0.0126
 6825TIP3    H141966   3.113   3.058  12.136  0.9340  2.1911 -1.4235
 6825TIP3    H241967   3.033   2.958  12.055  3.0114 -0.3291 -0.4804
 6826TIP3   OH241968   3.386   2.475  11.617  0.2576 -0.8665  0.5165
 6826TIP3    H141969   3.451   2.536  11.654  0.7122  0.8030 -2.6760
 6826TIP3    H241970   3.307   2.528  11.608  0.2179 -1.1393 -0.9384
 6827TIP3   OH241971   0.930   0.584  15.607 -0.3026 -0.0029 -0.1865
 6827TIP3    H141972   0.955   0.538  15.687 -0.4360  1.2271  0.5838
 6827TIP3    H241973   0.916   0.514  15.543 -0.9944 -1.0759  1.0765
 6828TIP3   OH241974   2.640   6.290   3.386  0.3479  0.2401 -0.0047
 6828TIP3    H141975   2.691   6.228   3.440  0.8515  0.8248  0.2042
 6828TIP3    H241976   2.620   6.362   3.445 -0.4374  0.1773 -0.1887
 6829TIP3   OH241977   4.661   0.331   6.765  0.1143  0.0080 -0.2401
 6829TIP3    H141978   4.683   0.419   6.737 -0.5685  0.8611  1.7199
 6829TIP3    H241979   4.739   0.279   6.746  1.0205  1.3275 -0.2302
 6830TIP3   OH241980   5.505   5.336   2.659  0.3324  0.1789 -0.7874
 6830TIP3    H141981   5.449   5.280   2.606  0.4153  0.9171 -1.6746
 6830TIP3    H241982   5.445   5.388   2.712  0.1598  1.1281 -1.9004
 6831TIP3   OH241983   5.227   3.137  11.587  0.2098  0.3787  0.2805
 6831TIP3    H141984   5.297   3.072  11.584 -0.6372 -0.6974  1.7892
 6831TIP3    H241985   5.266   3.217  11.553  1.0173 -1.1220 -2.6409
 6832TIP3   OH241986   2.912   5.316  16.112 -0.4775  0.5687  0.2931
 6832TIP3    H141987   2.978   5.368  16.159 -0.5314  0.1921  0.7847
 6832TIP3    H241988   2.829   5.336  16.156 -0.5530  0.3323  0.2589
 6833TIP3   OH241989   5.640   6.715   3.274 -0.3894  1.5698 -0.3389
 6833TIP3    H141990   5.561   6.726   3.326  1.0019  1.6076  1.8703
 6833TIP3    H241991   5.666   6.624   3.287 -0.6554  1.2121 -2.0007
 6834TIP3   OH241992   4.651   2.988  14.238  0.0443 -0.3000  0.4013
 6834TIP3    H141993   4.606   2.904  14.240 -0.5513  0.0215  2.2522
 6834TIP3    H241994   4.743   2.966  14.223 -0.2211 -1.2003  0.0221
 6835TIP3   OH241995   1.653   6.525  11.748 -0.1082  0.2379 -0.0569
 6835TIP3    H141996   1.733   6.540  11.697  0.1457 -0.1968  0.2078
 6835TIP3    H241997   1.583   6.560  11.693  0.0664 -0.8744 -1.0478
 6836TIP3   OH241998   2.409   0.575   3.369 -0.0621  0.3222 -0.1641
 6836TIP3    H141999   2.387   0.602   3.279  0.6623  0.7048 -0.2404
 6836TIP3    H242000   2.338   0.517   3.395 -0.9073  1.1413 -0.5557
 6837TIP3   OH242001   6.260   3.194   4.429  0.2093  0.3279 -0.1691
 6837TIP3    H142002   6.214   3.208   4.512 -0.4156  0.5744 -0.5484
 6837TIP3    H242003   6.304   3.109   4.440 -1.1279 -0.3995 -0.1345
 6838TIP3   OH242004   2.306   0.568  16.198 -0.2634  0.4007 -0.0915
 6838TIP3    H142005   2.338   0.478  16.200  0.1620  0.5409 -0.4864
 6838TIP3    H242006   2.210   0.560  16.195 -0.3557 -0.0202  2.0850
 6839TIP3   OH242007   2.827   3.325  12.831 -0.3644  0.4740  0.1832
 6839TIP3    H142008   2.901   3.301  12.775  0.0240  0.9838  0.4674
 6839TIP3    H242009   2.816   3.251  12.890  0.2106  0.5864  0.4323
 6840TIP3   OH242010   5.437   1.322  12.180  0.4376  0.3624 -0.0854
 6840TIP3    H142011   5.444   1.398  12.238  0.6111  2.2948 -2.5103
 6840TIP3    H242012   5.528   1.302  12.156  0.2546  1.1605 -1.5602
 6841TIP3   OH242013   1.547   0.165  13.685  0.8870  0.3374  0.4213
 6841TIP3    H142014   1.488   0.203  13.750  0.8325  0.4785  0.2875
 6841TIP3    H242015   1.494   0.100  13.639  0.5406  1.1875 -0.3966
 6842TIP3   OH242016   2.213   3.706  10.547 -0.1319 -0.8263 -0.0469
 6842TIP3    H142017   2.180   3.628  10.502  0.0735 -0.4670 -0.8488
 6842TIP3    H242018   2.136   3.761  10.558 -0.2751 -1.1311  0.5074
 6843TIP3   OH242019   5.483   6.754   0.748 -0.3045 -0.7104  0.7847
 6843TIP3    H142020   5.460   6.841   0.778 -3.0258 -1.2204  0.4194
 6843TIP3    H242021   5.428   6.695   0.799 -0.3575 -2.0270 -0.7086
 6844TIP3   OH242022   2.063   4.238  12.211 -0.2226  0.1976 -0.0132
 6844TIP3    H142023   2.021   4.162  12.250 -1.9356  1.4556  0.7405
 6844TIP3    H242024   2.037   4.235  12.119 -1.3710  0.5293  0.2811
 6845TIP3   OH242025   5.057   5.700  15.349  0.1501  0.2087  1.1896
 6845TIP3    H142026   5.065   5.708  15.254 -1.0609  0.5429  1.1015
 6845TIP3    H242027   4.963   5.688  15.364  0.3296  0.1580  2.3454
 6846TIP3   OH242028   6.512   1.911  17.252  0.2286  0.2690  0.6650
 6846TIP3    H142029   6.475   1.968  17.319  1.4728  1.1387  0.6352
 6846TIP3    H242030   6.578   1.859  17.298  1.2646  1.0454  0.0872
 6847TIP3   OH242031   5.026   0.739   6.570 -0.8252  0.0380  0.1094
 6847TIP3    H142032   4.978   0.700   6.643 -1.5896  1.1767  0.2467
 6847TIP3    H242033   5.108   0.771   6.609 -1.0341  0.2474  0.3830
 6848TIP3   OH242034   4.417   0.402  11.206 -0.4891 -0.0002 -0.4038
 6848TIP3    H142035   4.429   0.351  11.126 -0.8800 -0.7372 -0.0052
 6848TIP3    H242036   4.504   0.435  11.228 -0.0465 -1.3125 -0.1366
 6849TIP3   OH242037   5.279   3.050   3.569  0.2659  0.2257 -0.0125
 6849TIP3    H142038   5.338   3.047   3.493  1.0274 -0.2531  0.5816
 6849TIP3    H242039   5.249   3.141   3.574  0.3668  0.3041 -0.7627
 6850TIP3   OH242040   4.263   6.729   3.374  0.5449  0.3391  0.1313
 6850TIP3    H142041   4.257   6.687   3.460  2.1525  0.2020  0.2073
 6850TIP3    H242042   4.251   6.822   3.392 -3.1400  0.0610 -0.0483
 6851TIP3   OH242043   6.074   2.870  14.979 -0.2648 -0.5041 -0.0251
 6851TIP3    H142044   6.106   2.941  15.034  2.9031 -1.1584 -0.7877
 6851TIP3    H242045   6.092   2.790  15.029 -1.6202 -0.8937 -0.1333
 6852TIP3   OH242046   5.034   0.926  16.648  0.2021  0.6958 -1.0051
 6852TIP3    H142047   5.096   0.985  16.606  1.4607  0.4440  0.4208
 6852TIP3    H242048   5.020   0.964  16.735  0.5774 -0.7844 -0.2715
 6853TIP3   OH242049   5.672   1.647   2.213 -0.0990  0.3616  0.0318
 6853TIP3    H142050   5.699   1.738   2.203  1.9586 -0.3284 -1.1683
 6853TIP3    H242051   5.740   1.608   2.267 -0.9706 -0.4854  0.5401
 6854TIP3   OH242052   6.456   2.507  13.497 -0.6983 -0.5267  0.2792
 6854TIP3    H142053   6.399   2.500  13.573 -0.8951  0.3003  0.2161
 6854TIP3    H242054   6.434   2.430  13.443 -2.6032  0.3662 -0.3128
 6855TIP3   OH242055   0.877   1.946   5.761  0.1838 -0.1734 -0.1293
 6855TIP3    H142056   0.890   1.994   5.679 -1.8631  0.4383 -0.1514
 6855TIP3    H242057   0.818   1.874   5.737 -1.1440  0.5055  0.9165
 6856TIP3   OH242058   2.601   2.127  10.472  0.3284  0.1849  0.4587
 6856TIP3    H142059   2.544   2.138  10.396  1.2985  2.6221 -0.0228
 6856TIP3    H242060   2.668   2.066  10.444 -0.4557 -0.5222  0.0773
 6857TIP3   OH242061   3.557   1.066   1.257 -0.2500 -0.2291  0.3340
 6857TIP3    H142062   3.593   1.077   1.169 -1.5252 -1.7224 -0.4042
 6857TIP3    H242063   3.615   1.119   1.312 -0.6239  2.4801 -1.6485
 6858TIP3   OH242064   0.243   0.556   1.051 -0.3401 -0.1011 -0.0108
 6858TIP3    H142065   0.195   0.561   1.134  1.0447 -0.2084  0.8357
 6858TIP3    H242066   0.266   0.463   1.044  1.3961  0.2540  0.6078
 6859TIP3   OH242067   5.899   6.034  13.961  0.0163 -0.5497 -0.1634
 6859TIP3    H142068   5.824   6.039  13.901  0.2795  2.1872 -0.4072
 6859TIP3    H242069   5.973   6.009  13.905 -0.3871 -1.5652 -0.2519
 6860TIP3   OH242070   0.114   2.543  16.867  0.2751  0.2617 -0.2994
 6860TIP3    H142071   0.039   2.486  16.884  0.2864  0.5691  0.8378
 6860TIP3    H242072   0.102   2.570  16.776 -2.1505  1.9267  0.3934
 6861TIP3   OH242073   6.726   3.194   4.344  0.3847 -0.2366 -0.0169
 6861TIP3    H142074   6.783   3.261   4.307  0.1758 -0.3230 -0.5126
 6861TIP3    H242075   6.639   3.233   4.342  0.3288 -0.3543  0.1152
 6862TIP3   OH242076   0.332   0.863  13.721  0.5221 -0.3622 -0.1458
 6862TIP3    H142077   0.397   0.891  13.657  0.8077 -0.1879  0.2147
 6862TIP3    H242078   0.384   0.837  13.798  0.1267  0.7959  0.5381
 6863TIP3   OH242079   4.790   2.420   4.744  0.6903  0.2271  0.7424
 6863TIP3    H142080   4.704   2.432   4.704  1.5689 -0.5028 -1.4963
 6863TIP3    H242081   4.834   2.505   4.735  1.5317 -0.3824 -1.6203
 6864TIP3   OH242082   2.647   4.588   3.464  0.3810  0.1790  0.1871
 6864TIP3    H142083   2.607   4.508   3.431  1.2363 -1.3778  2.6488
 6864TIP3    H242084   2.576   4.653   3.463 -0.4283 -0.6731 -1.5026
 6865TIP3   OH242085   5.283   0.079  10.964  0.4843  0.0697 -0.4458
 6865TIP3    H142086   5.276   0.150  11.028 -1.7332  2.4052 -2.9882
 6865TIP3    H242087   5.362   0.099  10.915  1.7910 -1.3135  1.0157
 6866TIP3   OH242088   1.904   4.435  13.296 -0.2127 -0.4000  0.2496
 6866TIP3    H142089   1.999   4.422  13.286 -0.2072 -0.8104  0.8045
 6866TIP3    H242090   1.868   4.416  13.209  0.3006  0.6796 -0.2176
 6867TIP3   OH242091   3.406   0.368   3.771 -1.1305  0.2635 -0.4097
 6867TIP3    H142092   3.498   0.397   3.769  0.2941 -3.6889 -2.2555
 6867TIP3    H242093   3.370   0.397   3.688 -1.2127  0.7799 -0.1993
 6868TIP3   OH242094   6.111   3.985  13.364  0.8292 -0.3592 -0.6289
 6868TIP3    H142095   6.040   4.042  13.393  1.7726  1.0373 -0.9836
 6868TIP3    H242096   6.127   3.926  13.438 -0.0527 -0.0746 -0.2028
 6869TIP3   OH242097   3.207   3.277   4.388 -0.7275 -0.0315 -0.3130
 6869TIP3    H142098   3.165   3.258   4.304 -0.0102  0.8440 -0.8968
 6869TIP3    H242099   3.265   3.351   4.369 -0.0888 -0.2229  0.8154
 6870TIP3   OH242100   0.267   1.169   3.707 -0.0723  0.6088  0.0467
 6870TIP3    H142101   0.270   1.117   3.627  1.8860  1.5799 -0.5804
 6870TIP3    H242102   0.218   1.247   3.683 -1.1610  0.0495  0.3814
 6871TIP3   OH242103   2.149   4.338   1.870  0.0067 -0.0958 -0.2973
 6871TIP3    H142104   2.145   4.249   1.905  0.3001 -0.2283 -0.5904
 6871TIP3    H242105   2.169   4.326   1.777 -0.6150  0.2558 -0.4816
 6872TIP3   OH242106   1.095   6.295   1.265 -0.4864  0.5460 -0.2704
 6872TIP3    H142107   1.137   6.232   1.323 -1.4771  0.2853  0.1766
 6872TIP3    H242108   1.019   6.249   1.229 -0.8068  1.2389 -0.5094
 6873TIP3   OH242109   4.813   3.481   0.068  0.0302  0.3667 -0.7476
 6873TIP3    H142110   4.818   3.406   0.127 -1.9210  0.1107 -0.8524
 6873TIP3    H242111   4.839   3.556   0.121 -3.4861  0.4595  1.1164
 6874TIP3   OH242112   3.551   1.053  13.415 -0.0246 -0.2941 -0.3810
 6874TIP3    H142113   3.617   1.003  13.463 -0.9848 -1.3252 -0.0988
 6874TIP3    H242114   3.555   1.141  13.453 -1.2856 -1.2411  2.2144
 6875TIP3   OH242115   5.958   0.011  15.693  0.4620  0.5045  0.1975
 6875TIP3    H142116   5.980   0.003  15.786  0.1644  1.2374  0.3367
 6875TIP3    H242117   6.042   0.030  15.651  0.6115  0.0921  0.2997
 6876TIP3   OH242118   2.796   5.740  15.018 -0.8216  0.0274  0.3859
 6876TIP3    H142119   2.781   5.647  15.034 -1.4776 -0.0754 -0.7522
 6876TIP3    H242120   2.710   5.775  14.999 -0.8746  1.2681  2.5679
 6877TIP3   OH242121   6.407   4.586   1.914 -0.1443  0.2947 -0.3890
 6877TIP3    H142122   6.377   4.571   1.825  1.9684 -0.6011 -1.0116
 6877TIP3    H242123   6.503   4.592   1.907  0.3206 -1.9697  2.0298
 6878TIP3   OH242124   3.185   6.533  14.751  0.0124 -0.3869  0.6763
 6878TIP3    H142125   3.145   6.521  14.837  0.4978 -1.8168  0.7282
 6878TIP3    H242126   3.194   6.445  14.716 -1.4779  0.2228 -1.4741
 6879TIP3   OH242127   1.919   4.944  16.973 -0.1032  0.1398 -0.2625
 6879TIP3    H142128   1.865   5.022  16.969 -1.5098 -0.7830 -0.2155
 6879TIP3    H242129   1.880   4.891  17.044  1.4159 -0.1778  0.3789
 6880TIP3   OH242130   2.138   0.179  11.742 -0.7094 -0.1144  0.0488
 6880TIP3    H142131   2.161   0.264  11.706 -1.0296  0.6713  1.5939
 6880TIP3    H242132   2.064   0.197  11.800 -1.2836 -1.5772 -0.1901
 6881TIP3   OH242133   1.412   1.545   0.965  0.1235 -0.1024  0.1901
 6881TIP3    H142134   1.321   1.572   0.979  0.1629  0.3439 -0.3900
 6881TIP3    H242135   1.435   1.497   1.045 -0.8595 -0.8841  0.0322
 6882TIP3   OH242136   4.749   5.817   2.170  0.4845 -0.5847 -0.4127
 6882TIP3    H142137   4.718   5.874   2.099 -1.0876 -2.5294 -1.3851
 6882TIP3    H242138   4.820   5.767   2.131  1.2851  0.0503  0.1832
 6883TIP3   OH242139   3.978   4.035  11.252  0.3477 -0.1649 -0.1350
 6883TIP3    H142140   4.034   3.986  11.313  0.8194 -0.0804 -0.4950
 6883TIP3    H242141   4.005   4.126  11.261 -0.7564  0.0912  0.7763
 6884TIP3   OH242142   6.690   4.594  11.938 -0.3129 -0.2447 -0.0853
 6884TIP3    H142143   6.640   4.658  11.887 -1.6895 -1.6192 -0.5708
 6884TIP3    H242144   6.625   4.552  11.994  0.1075 -2.4594 -1.1048
 6885TIP3   OH242145   4.174   5.621   5.677  0.1183  0.1551  0.5793
 6885TIP3    H142146   4.251   5.677   5.684 -0.0401  0.4211  0.2273
 6885TIP3    H242147   4.209   5.534   5.658  0.2541  0.8947 -3.2654
 6886TIP3   OH242148   2.230   0.924   3.335  0.4182 -0.2096 -0.4200
 6886TIP3    H142149   2.225   0.906   3.428  3.1740 -1.5573 -0.4221
 6886TIP3    H242150   2.174   1.000   3.322 -0.0586  0.0066  2.3053
 6887TIP3   OH242151   0.435   0.610   5.480 -0.8187  0.1889  0.2475
 6887TIP3    H142152   0.435   0.675   5.551 -1.7453 -0.1625  0.5826
 6887TIP3    H242153   0.483   0.536   5.516  0.1292  0.6316 -0.0884
 6888TIP3   OH242154   3.373   1.344   0.988  0.7609  0.0756 -0.2002
 6888TIP3    H142155   3.354   1.253   0.964  0.2815 -0.1398  0.9391
 6888TIP3    H242156   3.289   1.388   0.983  0.5078 -0.1198  1.6074
 6889TIP3   OH242157   5.216   0.647   4.202  0.2542 -0.1266  0.1502
 6889TIP3    H142158   5.285   0.615   4.260  0.4266  0.3667  0.2166
 6889TIP3    H242159   5.191   0.570   4.149  0.0930 -0.5793  0.8742
 6890TIP3   OH242160   5.844   5.456   5.101 -0.3239 -0.3072 -0.0015
 6890TIP3    H142161   5.807   5.420   5.182  0.1849  0.5352  0.6326
 6890TIP3    H242162   5.868   5.546   5.125 -0.0301 -0.0959 -1.0573
 6891TIP3   OH242163   5.576   4.352  10.682 -0.1158  0.1214  0.6005
 6891TIP3    H142164   5.663   4.322  10.705 -0.2315  0.4961  1.5651
 6891TIP3    H242165   5.579   4.447  10.695  0.0227  0.4820 -1.6587
 6892TIP3   OH242166   2.058   5.134  15.264 -0.0258 -0.7896 -0.2876
 6892TIP3    H142167   2.125   5.202  15.267 -0.5616 -0.2794  0.5527
 6892TIP3    H242168   2.081   5.074  15.336 -2.0419  0.9528  1.9745
 6893TIP3   OH242169   6.215   4.652  16.912  0.1219 -0.2434  0.5709
 6893TIP3    H142170   6.270   4.730  16.920 -0.4147  0.2302 -0.2394
 6893TIP3    H242171   6.174   4.643  16.998  0.4753  0.1477  0.7862
 6894TIP3   OH242172   2.893   2.932  13.941  0.1268  0.4428  0.4600
 6894TIP3    H142173   2.873   3.010  13.994  0.7769  0.5748  0.5243
 6894TIP3    H242174   2.858   2.859  13.992 -0.5820  0.6991  0.3485
 6895TIP3   OH242175   0.218   5.526   0.676  0.3860 -0.3025 -0.0099
 6895TIP3    H142176   0.139   5.478   0.653 -0.7113  0.9324  0.9748
 6895TIP3    H242177   0.216   5.530   0.772  1.1831  0.4658 -0.0158
 6896TIP3   OH242178   4.011   5.270   1.022  0.0261  0.1627 -0.0239
 6896TIP3    H142179   3.996   5.293   0.930 -1.1556  1.5325  0.4666
 6896TIP3    H242180   4.010   5.354   1.068  1.6822 -0.3959  1.1350
 6897TIP3   OH242181   5.087   5.675  15.992  0.3918 -0.3015  0.0583
 6897TIP3    H142182   5.073   5.588  15.954 -0.7207 -0.0954 -0.0341
 6897TIP3    H242183   5.182   5.683  15.997  0.5172 -1.9067  0.9709
 6898TIP3   OH242184   5.745   2.249  12.392  0.7146 -0.8532 -0.5295
 6898TIP3    H142185   5.767   2.216  12.305  1.4169 -0.1262 -0.6400
 6898TIP3    H242186   5.661   2.208  12.413  0.2185 -0.5429 -1.8268
 6899TIP3   OH242187   0.449   2.376   3.764  0.5697 -0.0824 -0.2962
 6899TIP3    H142188   0.377   2.320   3.791  0.2658 -0.5585 -1.9852
 6899TIP3    H242189   0.500   2.389   3.844 -0.7287 -0.7041  0.6686
 6900TIP3   OH242190   5.571   1.041  15.093  0.2341  0.1852  0.0012
 6900TIP3    H142191   5.589   1.042  14.999  0.5969  1.9713  0.0528
 6900TIP3    H242192   5.618   1.117  15.128 -0.5200  0.0144  1.5058
 6901TIP3   OH242193   5.002   3.058  17.227  0.0572 -0.2813 -0.1667
 6901TIP3    H142194   4.923   3.083  17.178 -0.3265  0.2984  0.7171
 6901TIP3    H242195   5.016   2.967  17.204 -0.5257 -0.2177 -0.8110
 6902TIP3   OH242196   1.780   1.930  14.406  0.2004 -0.2673 -0.6593
 6902TIP3    H142197   1.688   1.954  14.418  0.2770  0.1960 -0.9749
 6902TIP3    H242198   1.819   2.006  14.361  0.9480 -0.0677  0.2986
 6903TIP3   OH242199   1.289   4.510   5.843 -0.2991  0.7064 -0.3143
 6903TIP3    H142200   1.288   4.426   5.798  0.5949  1.0262 -0.9597
 6903TIP3    H242201   1.224   4.501   5.913  1.2872 -1.2304  0.9898
 6904TIP3   OH242202   4.416   3.563  15.950  0.3189  1.0643 -0.5345
 6904TIP3    H142203   4.441   3.587  15.861 -2.9521  2.6887 -1.1256
 6904TIP3    H242204   4.415   3.645  15.999 -1.9065  0.8465 -0.1135
 6905TIP3   OH242205   5.789   2.907  11.184  0.2296  0.1999  0.4382
 6905TIP3    H142206   5.721   2.844  11.158  1.1476 -0.5570 -0.2240
 6905TIP3    H242207   5.800   2.892  11.278 -0.8869  0.7154  0.6677
 6906TIP3   OH242208   5.445   4.738  11.522 -0.2561  0.0828 -0.7718
 6906TIP3    H142209   5.493   4.789  11.457  0.4782 -1.0321 -1.1347
 6906TIP3    H242210   5.378   4.692  11.472  1.0056 -1.6375 -0.9616
 6907TIP3   OH242211   0.001   6.557   4.275 -0.2203 -0.4933 -0.0113
 6907TIP3    H142212   0.060   6.486   4.251  0.5824  0.3035 -0.4471
 6907TIP3    H242213  -0.008   6.610   4.195  0.9848  1.1333  0.8590
 6908TIP3   OH242214   1.860   3.530  11.709 -0.1717  0.0624  0.0607
 6908TIP3    H142215   1.816   3.525  11.794 -2.0502  0.4498 -0.8382
 6908TIP3    H242216   1.869   3.624  11.692 -0.0810 -0.0116 -0.3128
 6909TIP3   OH242217   2.927   0.441   1.251  0.3625  0.0097 -0.2403
 6909TIP3    H142218   2.861   0.425   1.319 -1.7950  1.8438 -1.7486
 6909TIP3    H242219   2.971   0.521   1.279  2.5325 -1.5156  1.0629
 6910TIP3   OH242220   6.115   3.615   0.107 -0.1220  0.0359 -0.4318
 6910TIP3    H142221   6.156   3.555   0.046  1.4607  0.2861  0.3316
 6910TIP3    H242222   6.128   3.575   0.193  1.1684  1.5105  0.1219
 6911TIP3   OH242223   3.170   6.353  12.360  0.0524  0.1298 -0.1821
 6911TIP3    H142224   3.204   6.437  12.391  0.8273 -0.0490 -0.5425
 6911TIP3    H242225   3.174   6.359  12.265 -0.8080  0.0489 -0.2356
 6912TIP3   OH242226   0.804   5.802   4.482  0.5303  0.0756 -0.0485
 6912TIP3    H142227   0.878   5.784   4.541  0.1631  1.3509  0.8463
 6912TIP3    H242228   0.763   5.880   4.519 -2.7896 -1.9464  0.9535
 6913TIP3   OH242229   3.372   3.517   0.830  0.2805  0.0380  0.6061
 6913TIP3    H142230   3.407   3.477   0.910  1.7190 -0.2644 -0.1306
 6913TIP3    H242231   3.362   3.609   0.851  1.1365  0.0528  0.9987
 6914TIP3   OH242232   4.644   5.913  15.580 -0.3113 -0.1157 -0.1646
 6914TIP3    H142233   4.722   5.858  15.591 -1.2471 -1.5275 -0.4550
 6914TIP3    H242234   4.600   5.910  15.664 -0.8653 -0.5911 -0.4694
 6915TIP3   OH242235   0.237   0.522   3.190  0.7192  0.4092 -0.1902
 6915TIP3    H142236   0.153   0.508   3.146  0.7750  1.3647 -0.6187
 6915TIP3    H242237   0.265   0.434   3.216 -0.0977  0.0087 -0.6143
 6916TIP3   OH242238   5.239   1.063   3.904  0.3261  0.0818  0.0873
 6916TIP3    H142239   5.302   1.129   3.932  0.9260 -0.4874  0.0888
 6916TIP3    H242240   5.286   1.010   3.840  0.2390 -1.0659  0.9449
 6917TIP3   OH242241   1.827   3.555   5.089  0.5041  0.2028  0.0955
 6917TIP3    H142242   1.840   3.634   5.036  4.5776 -0.5157 -0.3277
 6917TIP3    H242243   1.784   3.493   5.030 -2.3362  1.8311  0.3003
 6918TIP3   OH242244   0.102   4.899   0.970  0.6812 -0.0781 -0.4701
 6918TIP3    H142245   0.051   4.825   0.937 -1.3557  1.5297 -1.1332
 6918TIP3    H242246   0.096   4.892   1.066  1.0323 -1.0970 -0.5181
 6919TIP3   OH242247   5.756   4.606  11.698 -0.4259 -0.5652 -0.5817
 6919TIP3    H142248   5.751   4.643  11.786  1.2987 -0.0901 -0.6559
 6919TIP3    H242249   5.731   4.678  11.640 -1.3069 -0.8052 -0.5259
 6920TIP3   OH242250   4.819   2.718   2.120 -0.4551 -0.1616 -0.2730
 6920TIP3    H142251   4.875   2.796   2.121 -0.6696 -0.0074 -0.2301
 6920TIP3    H242252   4.752   2.735   2.186 -0.8552 -0.1191 -0.6804
 6921TIP3   OH242253   2.422   5.064  13.048 -0.5183  0.4027 -0.0789
 6921TIP3    H142254   2.472   4.989  13.082  0.2088 -0.2721 -2.4539
 6921TIP3    H242255   2.489   5.126  13.021 -0.9565  0.0456 -2.1024
 6922TIP3   OH242256   0.670   3.340   3.797 -0.1553  0.1456  0.5772
 6922TIP3    H142257   0.692   3.349   3.889 -0.8812 -0.6848  0.8476
 6922TIP3    H242258   0.754   3.352   3.751  0.2881  0.1378  1.3676
 6923TIP3   OH242259   3.540   5.197  15.651  0.0137  0.0546  0.2099
 6923TIP3    H142260   3.478   5.180  15.580 -0.9505  0.9535  0.8101
 6923TIP3    H242261   3.510   5.141  15.723  0.0982  0.2373  0.3891
 6924TIP3   OH242262   1.693   6.184  15.982 -0.2930 -0.4506 -0.2160
 6924TIP3    H142263   1.701   6.216  16.072 -3.8088 -0.6217  0.3003
 6924TIP3    H242264   1.632   6.244  15.941  1.3408 -0.3093 -2.6069
 6925TIP3   OH242265   6.513   5.548   5.712  0.0717  0.3786  1.0118
 6925TIP3    H142266   6.602   5.516   5.701  0.0099  0.4831  0.1113
 6925TIP3    H242267   6.524   5.640   5.739  0.2376 -0.1468  2.8893
 6926TIP3   OH242268   3.151   2.211  11.392  0.0309  0.3377  0.0097
 6926TIP3    H142269   3.234   2.163  11.388  0.0876  0.3907  0.4855
 6926TIP3    H242270   3.124   2.219  11.300 -0.1023 -0.8001 -0.0667
 6927TIP3   OH242271   0.404   5.478  12.346 -1.0276 -0.7801  0.5737
 6927TIP3    H142272   0.432   5.389  12.365  0.0839 -0.4291  0.6576
 6927TIP3    H242273   0.372   5.512  12.430  1.8819  0.0577  1.4692
 6928TIP3   OH242274   5.555   4.926  11.890 -0.3842 -0.1009 -0.5468
 6928TIP3    H142275   5.631   4.880  11.926 -1.7316 -1.4330  0.7565
 6928TIP3    H242276   5.591   5.007  11.855  1.8394 -1.2868 -1.2438
 6929TIP3   OH242277   0.659   3.489   6.210  0.2309  0.0296  0.3091
 6929TIP3    H142278   0.710   3.451   6.281  0.3748 -1.6844 -0.6591
 6929TIP3    H242279   0.652   3.582   6.232  4.7116  0.6590  0.0235
 6930TIP3   OH242280   6.219   3.983  12.376  0.5902 -0.1154 -0.4240
 6930TIP3    H142281   6.195   4.056  12.320  1.4402 -0.3708 -1.1418
 6930TIP3    H242282   6.138   3.934  12.388  0.1981  0.4811 -0.6273
 6931TIP3   OH242283   6.626   1.246  16.850  0.2567  0.7490 -0.0891
 6931TIP3    H142284   6.666   1.294  16.778 -1.7034  2.4997 -0.0879
 6931TIP3    H242285   6.614   1.311  16.919  1.5477 -0.7629  1.6460
 6932TIP3   OH242286   5.679   6.516  11.805  0.0995  0.3056  0.8880
 6932TIP3    H142287   5.638   6.555  11.728  0.3383 -1.1625 -0.0269
 6932TIP3    H242288   5.773   6.520  11.787  0.1772  0.2615  1.2621
 6933TIP3   OH242289   6.066   3.365   2.790  0.5223 -0.0490  0.6153
 6933TIP3    H142290   6.130   3.416   2.739 -0.5327  1.3872  0.6475
 6933TIP3    H242291   6.033   3.300   2.729  0.0642  0.9551 -0.2537
 6934TIP3   OH242292   1.430   0.792   5.543 -0.1019  0.2408  0.3926
 6934TIP3    H142293   1.449   0.725   5.477 -1.6653 -1.1906  1.2908
 6934TIP3    H242294   1.480   0.764   5.620 -0.8234  0.0350  0.7961
 6935TIP3   OH242295   3.103   5.708   6.495 -0.1131  0.2850 -0.2272
 6935TIP3    H142296   3.132   5.791   6.456  1.4801  0.1383  0.5753
 6935TIP3    H242297   3.117   5.719   6.589  1.0197 -1.2067 -0.1886
 6936TIP3   OH242298   4.678   3.635  14.205 -0.6439 -0.1009 -0.1217
 6936TIP3    H142299   4.741   3.663  14.271  0.7402  0.5193 -1.6168
 6936TIP3    H242300   4.598   3.615  14.254  0.3684  0.1548  1.7229
 6937TIP3   OH242301   0.224   0.403  16.124  0.5027 -0.0924  0.0663
 6937TIP3    H142302   0.251   0.409  16.215 -0.7200  0.8280  0.3980
 6937TIP3    H242303   0.137   0.444  16.122  0.7212  0.3778 -1.5949
 6938TIP3   OH242304   6.430   5.848  16.591  0.3092 -0.4963  0.3016
 6938TIP3    H142305   6.402   5.792  16.664 -0.5845 -0.9990 -0.4116
 6938TIP3    H242306   6.352   5.898  16.567  0.4097 -0.8104 -0.7240
 6939TIP3   OH242307   6.161   1.081   1.058  0.0335 -0.2316 -0.2512
 6939TIP3    H142308   6.140   1.114   1.145  2.2960  0.7376 -0.0014
 6939TIP3    H242309   6.080   1.041   1.027 -1.5350  1.5694  1.2962
 6940TIP3   OH242310   0.298   0.075  10.861  0.0661  0.4546  0.1232
 6940TIP3    H142311   0.390   0.091  10.881  0.3290  0.8232 -1.2819
 6940TIP3    H242312   0.281   0.128  10.784 -1.3410  0.4122  0.3870
 6941TIP3   OH242313   0.121   2.907  13.007 -0.1484  0.8548 -0.3737
 6941TIP3    H142314   0.169   2.824  13.005 -0.9429  0.3747 -0.0303
 6941TIP3    H242315   0.176   2.968  12.959  0.7598  0.2953 -0.0626
 6942TIP3   OH242316   6.276   0.791  12.326 -0.0565  0.2325  0.4506
 6942TIP3    H142317   6.245   0.809  12.237 -1.5838  1.0669  1.0947
 6942TIP3    H242318   6.368   0.816  12.325  0.1730 -0.5519 -1.0988
 6943TIP3   OH242319   1.693   6.693   3.454 -1.1152 -0.6474  0.1669
 6943TIP3    H142320   1.748   6.718   3.381 -0.3557  3.2568  1.8147
 6943TIP3    H242321   1.605   6.723   3.430 -1.0452 -0.1997  0.4550
 6944TIP3   OH242322   5.302   6.435  12.529 -0.2302 -0.9774  0.6820
 6944TIP3    H142323   5.373   6.454  12.468 -2.4416  0.2397 -1.7367
 6944TIP3    H242324   5.318   6.345  12.557  1.9712 -0.8871 -0.1038
 6945TIP3   OH242325   5.951   5.428   5.437  0.2401  0.3171  0.6846
 6945TIP3    H142326   6.034   5.389   5.410  0.6994  2.5585 -1.4894
 6945TIP3    H242327   5.970   5.468   5.522  1.3959  0.7338  0.2518
 6946TIP3   OH242328   0.420   2.141   1.956  0.2213 -0.1040 -0.2831
 6946TIP3    H142329   0.508   2.155   1.923  0.9786 -1.2837  1.1346
 6946TIP3    H242330   0.385   2.071   1.902  0.7036 -0.6321  0.0802
 6947TIP3   OH242331   2.164   2.391  12.386  0.1849  0.1861 -0.0978
 6947TIP3    H142332   2.208   2.318  12.429 -0.9185 -0.2159  0.3815
 6947TIP3    H242333   2.083   2.354  12.352 -0.3573  1.1625  0.0897
 6948TIP3   OH242334   4.259   1.284   5.925  0.1352 -0.4475  0.1196
 6948TIP3    H142335   4.341   1.290   5.876  0.3580 -1.8761  0.2720
 6948TIP3    H242336   4.196   1.250   5.862 -0.8769  2.3750 -0.5359
 6949TIP3   OH242337   2.425   5.140   0.596  0.4476 -0.1219 -0.5395
 6949TIP3    H142338   2.433   5.079   0.522  2.3414 -1.3743  0.6164
 6949TIP3    H242339   2.495   5.114   0.656 -0.4294  1.4719  1.2686
 6950TIP3   OH242340   4.381   5.662  14.449 -0.2913 -0.6418 -0.0632
 6950TIP3    H142341   4.447   5.703  14.394 -0.5021 -0.2362 -0.0149
 6950TIP3    H242342   4.404   5.690  14.538  0.3053 -1.6396  0.1171
 6951TIP3   OH242343   3.179   0.310   0.962 -0.5822 -0.1127 -0.1287
 6951TIP3    H142344   3.245   0.370   0.997 -0.3557  0.4419 -1.4320
 6951TIP3    H242345   3.097   0.359   0.970 -0.4374  0.2881 -0.9294
 6952TIP3   OH242346   6.570   4.960  13.890  0.1349  0.2385  0.5972
 6952TIP3    H142347   6.505   4.939  13.823  2.0151 -2.3739 -0.5919
 6952TIP3    H242348   6.549   4.900  13.962 -0.2017  1.0961  1.2248
 6953TIP3   OH242349   2.320   0.382   1.715  0.2233 -0.5839 -0.9357
 6953TIP3    H142350   2.277   0.315   1.769  0.1292  1.3547  1.5653
 6953TIP3    H242351   2.272   0.462   1.733  0.7672  0.3501 -3.3195
 6954TIP3   OH242352   2.144   4.124  14.461  0.5007 -0.3962  0.2582
 6954TIP3    H142353   2.134   4.090  14.372  0.7010 -1.5321  0.6549
 6954TIP3    H242354   2.062   4.100  14.505  0.8696 -0.8594  0.7025
 6955TIP3   OH242355   6.160   5.331   0.241  0.6797 -0.1176 -0.3669
 6955TIP3    H142356   6.112   5.275   0.180  2.9257 -0.6515 -1.7568
 6955TIP3    H242357   6.102   5.340   0.316 -1.0811 -1.6515 -1.4645
 6956TIP3   OH242358   0.710   4.009   3.841 -0.5484  0.5058 -0.4103
 6956TIP3    H142359   0.705   4.039   3.751 -1.3225 -0.6550 -0.7795
 6956TIP3    H242360   0.789   3.955   3.845 -0.5720  0.4710 -0.4148
 6957TIP3   OH242361   6.372   0.846   4.472  0.0130 -0.8090  0.2099
 6957TIP3    H142362   6.403   0.840   4.381  1.3883  1.5587  0.4086
 6957TIP3    H242363   6.277   0.853   4.465  0.0819 -0.8540 -1.0488
 6958TIP3   OH242364   3.163   2.328  13.462 -0.4270  0.7677 -0.1496
 6958TIP3    H142365   3.237   2.386  13.446 -1.6531  1.9856 -1.7517
 6958TIP3    H242366   3.087   2.378  13.434 -1.7560 -0.8483  0.4213
 6959TIP3   OH242367   1.769   4.124   1.961 -0.1498 -0.1114  0.2441
 6959TIP3    H142368   1.794   4.035   1.986 -2.4618 -0.7270  0.6348
 6959TIP3    H242369   1.779   4.175   2.042 -1.0675 -0.5622  0.6507
 6960TIP3   OH242370   6.029   2.539  16.072  0.1544  0.6439  0.1701
 6960TIP3    H142371   5.937   2.546  16.098 -0.1587  0.4976 -0.8407
 6960TIP3    H242372   6.078   2.545  16.154 -0.8103 -0.3226  0.8452
 6961TIP3   OH242373   3.560   2.049   1.281  0.0784 -0.1083 -0.3514
 6961TIP3    H142374   3.578   2.084   1.194  0.1494  0.8120  0.0224
 6961TIP3    H242375   3.485   1.991   1.270 -0.1415  0.2909 -0.9602
 6962TIP3   OH242376   4.812   6.764   4.433 -0.0817 -0.6054  0.0497
 6962TIP3    H142377   4.733   6.734   4.388 -0.5520 -1.2504  1.2707
 6962TIP3    H242378   4.816   6.712   4.513 -0.5505  2.0716  1.9403
 6963TIP3   OH242379   5.940   3.630  16.527 -0.3511 -0.1220 -0.0267
 6963TIP3    H142380   5.867   3.622  16.589 -0.6313 -0.8040 -0.4298
 6963TIP3    H242381   5.898   3.623  16.441  0.2598 -1.2334 -0.2563
 6964TIP3   OH242382   2.650   0.515  11.429 -0.1576  0.6640  0.0509
 6964TIP3    H142383   2.676   0.422  11.429  0.0517  0.7207 -0.2047
 6964TIP3    H242384   2.620   0.532  11.340  0.1681  0.9387 -0.0114
 6965TIP3   OH242385   2.223   2.193  13.717 -0.5132 -0.1377 -0.5189
 6965TIP3    H142386   2.250   2.247  13.642 -3.3610 -0.1048 -1.6775
 6965TIP3    H242387   2.184   2.256  13.778  2.6652 -0.0199  1.6025
 6966TIP3   OH242388   6.310   3.108  15.641 -0.5769  0.2510  0.1591
 6966TIP3    H142389   6.374   3.086  15.709  0.5460  0.2066 -0.8794
 6966TIP3    H242390   6.291   3.201  15.656  0.5805  0.5637 -0.1637
 6967TIP3   OH242391   6.793   6.724  11.805  0.4949  0.4861 -0.0858
 6967TIP3    H142392   6.876   6.719  11.757  0.2331  1.0359 -0.6123
 6967TIP3    H242393   6.802   6.659  11.875  0.6581 -0.7784 -1.2343
 6968TIP3   OH242394   3.565   2.525   3.805 -0.5138  0.2628 -0.3299
 6968TIP3    H142395   3.536   2.440   3.837  3.6983 -0.7864  1.2518
 6968TIP3    H242396   3.655   2.511   3.775  0.2824  4.1099 -0.2378
 6969TIP3   OH242397   4.646   1.753   3.527  0.7250  0.3621 -0.4095
 6969TIP3    H142398   4.633   1.843   3.497 -3.2151  0.3238  0.6240
 6969TIP3    H242399   4.641   1.700   3.447  0.7432  0.9083 -0.7796
 6970TIP3   OH242400   0.027   5.790   5.832 -0.0217  0.4724 -0.2901
 6970TIP3    H142401   0.068   5.873   5.810  2.3560 -0.3168  0.7544
 6970TIP3    H242402  -0.065   5.810   5.842  0.1456  2.5259 -2.1520
 6971TIP3   OH242403   6.739   1.916  13.532  0.0120 -0.3719  0.4086
 6971TIP3    H142404   6.821   1.930  13.484 -0.1936  1.6399  0.5773
 6971TIP3    H242405   6.718   1.824  13.516  2.2634 -0.9305  0.3255
 6972TIP3   OH242406   2.205   6.550   1.301 -0.1457  0.1151 -0.5236
 6972TIP3    H142407   2.216   6.645   1.301  0.5077  0.0436  0.0058
 6972TIP3    H242408   2.272   6.517   1.241  0.5502 -0.0987  0.3456
 6973TIP3   OH242409   2.485   3.339   2.099  0.4214  0.1364 -0.7543
 6973TIP3    H142410   2.452   3.427   2.080 -0.0850 -0.1579 -1.2739
 6973TIP3    H242411   2.560   3.354   2.156 -0.3340  0.8483  0.1042
 6974TIP3   OH242412   5.016   5.594   4.259 -0.2957  0.0480  0.1183
 6974TIP3    H142413   4.935   5.626   4.296 -1.3440  0.9274 -2.6624
 6974TIP3    H242414   4.990   5.549   4.179  1.8927 -0.3202 -0.4709
 6975TIP3   OH242415   0.459   1.280   0.401 -0.7266  0.5100 -0.6359
 6975TIP3    H142416   0.366   1.299   0.414 -0.6514  0.6400 -0.2850
 6975TIP3    H242417   0.501   1.309   0.482 -0.0343  2.8690 -1.7531
 6976TIP3   OH242418   3.070   5.785  15.201 -0.6030 -0.8890  0.2988
 6976TIP3    H142419   3.058   5.879  15.213  1.1071 -0.8521  2.3295
 6976TIP3    H242420   2.990   5.746  15.236 -2.5241 -0.2081 -2.9546
 6977TIP3   OH242421   0.438   4.859   0.315  0.7549 -0.4695 -0.4338
 6977TIP3    H142422   0.409   4.768   0.319 -0.1001 -0.1791  0.2529
 6977TIP3    H242423   0.430   4.891   0.405  0.8188  0.3498 -0.7104
 6978TIP3   OH242424   5.049   1.926  14.635 -0.4053  0.4061  0.1235
 6978TIP3    H142425   5.118   1.978  14.677  0.6829 -1.0808  0.2572
 6978TIP3    H242426   4.995   1.895  14.708 -1.3181  1.6376  0.0130
 6979TIP3   OH242427   5.631   0.227  14.291  0.0535  0.1903  0.6146
 6979TIP3    H142428   5.687   0.181  14.353  0.6188  0.6883  0.4858
 6979TIP3    H242429   5.647   0.320  14.308 -2.3817  0.4244  2.0600
 6980TIP3   OH242430   0.067   2.488  13.986 -0.2453  0.1755 -0.1565
 6980TIP3    H142431   0.089   2.581  13.983  0.6476  0.0421  1.1101
 6980TIP3    H242432   0.152   2.443  13.981 -0.3215 -0.4435  2.5087
 6981TIP3   OH242433   1.176   6.407  16.280  0.6098 -0.0447 -0.3445
 6981TIP3    H142434   1.153   6.435  16.369 -1.0803 -1.4408 -0.2870
 6981TIP3    H242435   1.095   6.371  16.245  1.5839 -0.7224 -1.9983
 6982TIP3   OH242436   0.331   3.552  16.260  0.4774 -0.2363  0.4787
 6982TIP3    H142437   0.399   3.606  16.218 -0.8076  0.4203 -0.8547
 6982TIP3    H242438   0.355   3.462  16.238  0.8672 -0.0062 -0.0819
 6983TIP3   OH242439   2.058   2.135   1.412 -0.3062 -0.0559 -0.0546
 6983TIP3    H142440   2.020   2.048   1.404  1.0195 -1.0162  2.7079
 6983TIP3    H242441   2.137   2.133   1.358 -0.7557 -0.2258 -0.7148
 6984TIP3   OH242442   4.949   6.761  15.548 -0.4631  0.6524  0.2052
 6984TIP3    H142443   4.960   6.749  15.643  2.7800  1.3220  0.0162
 6984TIP3    H242444   4.968   6.675  15.511  3.4584  1.4489 -0.0170
 6985TIP3   OH242445   2.645   2.108  13.926  0.2460 -0.0780  0.3597
 6985TIP3    H142446   2.739   2.117  13.907  0.3123 -0.2195  0.6143
 6985TIP3    H242447   2.642   2.081  14.018 -0.0125 -0.7955  0.1519
 6986TIP3   OH242448   2.098   6.107  15.374 -0.2671 -0.6176 -0.0794
 6986TIP3    H142449   2.057   6.135  15.456 -0.1470  2.0307 -0.8295
 6986TIP3    H242450   2.050   6.154  15.306  0.7037 -1.4591 -1.3869
 6987TIP3   OH242451   6.559   4.988   0.369 -0.3913  0.4805 -0.2990
 6987TIP3    H142452   6.575   4.896   0.350 -1.3461  0.2650 -0.0920
 6987TIP3    H242453   6.612   5.036   0.305  1.7565 -0.1627  0.8844
 6988TIP3   OH242454   4.396   5.662  16.244 -0.2335  0.6574 -0.0002
 6988TIP3    H142455   4.316   5.714  16.245 -0.6829  0.0093 -0.8258
 6988TIP3    H242456   4.403   5.630  16.154 -0.9076 -2.0732  0.8013
 6989TIP3   OH242457   4.688   0.907   3.831  0.5469 -0.0905 -0.6611
 6989TIP3    H142458   4.669   0.999   3.812  0.2383 -0.1792 -0.7876
 6989TIP3    H242459   4.621   0.859   3.783  0.5111 -0.3694 -0.3306
 6990TIP3   OH242460   2.811   3.038   3.893 -0.0205 -0.0200 -0.4732
 6990TIP3    H142461   2.900   3.001   3.892 -0.1190 -0.3876  1.2342
 6990TIP3    H242462   2.762   2.984   3.831  0.5822 -0.8197 -0.2759
 6991TIP3   OH242463   4.440   5.163  17.077 -0.2756  0.0501 -0.4553
 6991TIP3    H142464   4.470   5.233  17.135  0.2764  0.8193 -1.6318
 6991TIP3    H242465   4.353   5.191  17.049 -0.8452 -0.6694  0.5246
 6992TIP3   OH242466   4.868   2.248   3.296 -0.4680  0.4822  0.0893
 6992TIP3    H142467   4.920   2.212   3.224 -0.7929  1.5479 -0.6918
 6992TIP3    H242468   4.903   2.205   3.374 -0.4560 -1.0919 -0.7371
 6993TIP3   OH242469   4.583   1.824  11.638 -0.2360 -0.2265 -0.3574
 6993TIP3    H142470   4.633   1.750  11.673 -0.3524 -1.7012 -3.0611
 6993TIP3    H242471   4.493   1.793  11.634 -1.2630  1.7964  2.7796
 6994TIP3   OH242472   3.199   1.954   3.372  0.5596  0.2505 -0.0706
 6994TIP3    H142473   3.185   1.971   3.279  1.5168  0.6349 -0.1579
 6994TIP3    H242474   3.111   1.943   3.408  0.2137 -1.4210 -1.2868
 6995TIP3   OH242475   4.180   3.356   4.497  0.3663 -0.1730 -0.0400
 6995TIP3    H142476   4.153   3.312   4.578  5.4475 -1.3402  1.3907
 6995TIP3    H242477   4.177   3.449   4.519 -1.6341 -0.2307  0.1558
 6996TIP3   OH242478   5.005   0.178  11.009  0.2970  0.5254  0.3967
 6996TIP3    H142479   5.098   0.167  10.994  1.1000  2.6594  2.9847
 6996TIP3    H242480   4.976   0.238  10.940  1.2555  1.2564  0.6195
 6997TIP3   OH242481   0.564   6.352  11.121  0.0569 -0.4213  0.1519
 6997TIP3    H142482   0.468   6.350  11.119  0.0585 -0.4927 -1.5391
 6997TIP3    H242483   0.589   6.379  11.033  1.6142 -1.4864  0.2253
 6998TIP3   OH242484   2.356   1.050   2.500 -0.1700 -0.4214  0.0248
 6998TIP3    H142485   2.346   1.011   2.587 -0.6988  1.5689  0.9218
 6998TIP3    H242486   2.439   1.097   2.503  2.2163 -3.9964 -2.1727
 6999TIP3   OH242487   5.842   6.338   1.639 -0.0609 -0.2211 -0.1083
 6999TIP3    H142488   5.784   6.262   1.637  1.7048 -1.6367 -0.2707
 6999TIP3    H242489   5.919   6.308   1.688  1.3168  0.9568 -1.4418
 7000TIP3   OH242490   4.780   5.928  16.547 -0.0937 -0.1137  0.1382
 7000TIP3    H142491   4.818   5.978  16.475 -1.0355 -1.4811 -1.3940
 7000TIP3    H242492   4.689   5.958  16.551 -0.8974 -2.1127 -1.3175
 7001TIP3   OH242493   2.837   1.461   5.216 -0.1270 -0.2663 -0.2083
 7001TIP3    H142494   2.867   1.438   5.304 -1.4382 -1.2474  0.0080
 7001TIP3    H242495   2.845   1.380   5.166 -0.4628 -0.0009 -0.6982
 7002TIP3   OH242496   4.145   4.037   2.502  0.4954  0.3258 -0.0726
 7002TIP3    H142497   4.136   3.943   2.485 -0.6734  0.6130 -1.1400
 7002TIP3    H242498   4.105   4.079   2.426  2.3011  1.7150 -0.3302
 7003TIP3   OH242499   2.005   4.079   1.750 -0.0028  0.5520 -0.8629
 7003TIP3    H142500   1.935   4.025   1.714 -0.4150  1.6247 -1.7399
 7003TIP3    H242501   1.962   4.163   1.769  0.4002  0.3279  1.3168
 7004TIP3   OH242502   5.015   1.587   5.176 -0.0527  0.7840  0.1051
 7004TIP3    H142503   5.069   1.578   5.097 -1.6251  1.0947 -1.0577
 7004TIP3    H242504   5.070   1.553   5.246  0.8111 -1.0509 -1.3641
 7005TIP3   OH242505   4.299   1.885   1.294 -0.0553  0.1671 -0.1940
 7005TIP3    H142506   4.250   1.819   1.244  0.5557 -1.6306  1.4403
 7005TIP3    H242507   4.276   1.968   1.252 -1.0428 -1.0298 -2.2158
 7006TIP3   OH242508   1.053   6.752  11.379 -0.2540  0.5365  0.2379
 7006TIP3    H142509   0.984   6.817  11.389 -0.0288  0.7471  0.4520
 7006TIP3    H242510   1.062   6.713  11.466 -0.8590 -0.2679 -0.0508
 7007TIP3   OH242511   0.375   4.631   4.081  0.2805  0.3308 -0.1017
 7007TIP3    H142512   0.466   4.604   4.091 -0.3340 -1.6753  0.4842
 7007TIP3    H242513   0.331   4.597   4.158 -1.1695  0.3207 -0.9011
 7008TIP3   OH242514   4.122   6.055  11.277 -0.1953 -0.2037  0.4749
 7008TIP3    H142515   4.058   6.082  11.212  2.1370  2.6284 -0.8988
 7008TIP3    H242516   4.073   6.003  11.340 -3.1287 -0.7294 -2.0669
 7009TIP3   OH242517   2.644   2.652   2.435  0.6860  0.3779  0.2941
 7009TIP3    H142518   2.716   2.659   2.498  1.3299  0.5151 -0.4386
 7009TIP3    H242519   2.624   2.742   2.411  0.7091  0.3078  0.0079
 7010TIP3   OH242520   2.255   0.898   0.022 -0.3402 -1.1855  0.2933
 7010TIP3    H142521   2.342   0.865   0.046  0.6158  0.9878  0.1128
 7010TIP3    H242522   2.273   0.970  -0.039 -2.2521 -0.5128  0.4495
 7011TIP3   OH242523   3.916   4.258  17.184  0.1803 -0.2460 -0.4064
 7011TIP3    H142524   3.971   4.191  17.224 -0.6584  0.0431  1.3231
 7011TIP3    H242525   3.939   4.339  17.229 -1.6060 -0.1077  0.3595
 7012TIP3   OH242526   2.479   3.547  16.342 -0.0230  0.1853 -0.1098
 7012TIP3    H142527   2.403   3.496  16.314 -0.6030  0.1946  1.3566
 7012TIP3    H242528   2.443   3.631  16.370  0.1630 -0.5323  2.6094
 7013TIP3   OH242529   0.343   2.069  16.395  0.1567 -0.1426 -0.9593
 7013TIP3    H142530   0.394   2.150  16.397  0.1291 -0.1293 -0.7897
 7013TIP3    H242531   0.352   2.033  16.483 -0.5236  0.1040 -0.7830
 7014TIP3   OH242532   6.579   5.492   4.244 -0.1207 -0.1211 -0.1920
 7014TIP3    H142533   6.485   5.476   4.255 -0.4293  1.9745  0.8573
 7014TIP3    H242534   6.619   5.406   4.254 -1.7328 -0.7029  2.4681
 7015TIP3   OH242535   1.408   3.371  16.947  0.4558 -0.1978 -0.0223
 7015TIP3    H142536   1.351   3.328  17.010 -0.0112 -2.1907 -1.7117
 7015TIP3    H242537   1.494   3.331  16.962  0.7043  0.4486  0.3391
 7016TIP3   OH242538   2.207   0.980   6.454  0.0620  0.0899 -0.0672
 7016TIP3    H142539   2.224   0.925   6.378  0.4297  0.5186 -0.2991
 7016TIP3    H242540   2.277   0.958   6.516 -1.8157 -2.3520  1.3488
 7017TIP3   OH242541   3.885   2.189  15.657  0.3037  0.2227  0.2426
 7017TIP3    H142542   3.935   2.259  15.699  2.3645  0.0633 -1.7706
 7017TIP3    H242543   3.908   2.110  15.706  2.1255  0.1526 -0.6491
 7018TIP3   OH242544   1.151   2.697   4.218  0.0036 -0.0693 -0.1184
 7018TIP3    H142545   1.170   2.640   4.293 -0.8505  0.6499  0.6847
 7018TIP3    H242546   1.055   2.705   4.218  0.0314  0.4102 -0.9346
 7019TIP3   OH242547   0.291   3.425   4.368 -0.0402 -0.0345  0.0419
 7019TIP3    H142548   0.237   3.490   4.415 -0.8299 -0.1132 -0.7308
 7019TIP3    H242549   0.236   3.397   4.295  0.6852 -0.8522 -0.2016
 7020TIP3   OH242550   6.040   0.047   2.812  0.4966  0.0008 -0.3859
 7020TIP3    H142551   6.069   0.129   2.772 -0.7091  1.9033  2.3620
 7020TIP3    H242552   6.071  -0.021   2.752  3.6502  2.2690 -1.5713
 7021TIP3   OH242553   6.753   6.290   4.902 -0.3834 -0.3134 -0.3196
 7021TIP3    H142554   6.687   6.360   4.897 -1.1488 -1.1032 -2.4954
 7021TIP3    H242555   6.836   6.336   4.896 -0.8311  0.5175 -0.4193
 7022TIP3   OH242556   1.078   4.722  12.555  0.1816 -0.5982  0.5312
 7022TIP3    H142557   1.083   4.757  12.466 -0.3195 -1.6915  0.0501
 7022TIP3    H242558   1.061   4.798  12.610  0.6831  0.1215 -0.2849
 7023TIP3   OH242559   6.622   4.436   6.644  0.3868 -0.1214 -0.7861
 7023TIP3    H142560   6.571   4.504   6.601 -0.1202 -1.3422 -2.1798
 7023TIP3    H242561   6.621   4.362   6.583  1.1195 -1.3094  0.5745
 7024TIP3   OH242562   2.460   1.771  10.328  0.2673  0.5076  0.4989
 7024TIP3    H142563   2.472   1.830  10.402  1.0638  0.9043  0.0643
 7024TIP3    H242564   2.392   1.709  10.357 -0.3107  1.4025  1.0930
 7025TIP3   OH242565   3.424   2.408   5.566 -0.4014 -0.3704  0.7104
 7025TIP3    H142566   3.350   2.349   5.555  0.5629 -1.3215 -1.1946
 7025TIP3    H242567   3.433   2.451   5.480  2.1625 -1.4382  0.3662
 7026TIP3   OH242568   6.796   5.111   2.819 -0.0414  0.4977  0.0611
 7026TIP3    H142569   6.752   5.037   2.776  1.0699 -0.3633  0.3876
 7026TIP3    H242570   6.740   5.131   2.894 -1.4861  1.3901 -1.1854
 7027TIP3   OH242571   5.476   0.293   3.430 -0.5216 -0.0318 -0.4907
 7027TIP3    H142572   5.394   0.336   3.451 -0.2419  0.1735  0.1930
 7027TIP3    H242573   5.486   0.304   3.335 -0.0613  2.1047 -0.2284
 7028TIP3   OH242574   3.422   1.634   3.318 -0.1901  1.5257  0.1480
 7028TIP3    H142575   3.344   1.579   3.325  0.6304  0.3583  0.4037
 7028TIP3    H242576   3.406   1.707   3.378 -1.5518  1.9174 -0.6457
 7029TIP3   OH242577   0.797   2.489   0.333  0.5181  0.3194 -0.1848
 7029TIP3    H142578   0.798   2.569   0.386 -0.4165  0.5082 -0.4477
 7029TIP3    H242579   0.880   2.492   0.284  0.6014  0.9942 -0.0104
 7030TIP3   OH242580   4.158   3.108  14.079  0.2758  0.1089 -0.2406
 7030TIP3    H142581   4.188   3.056  14.153  0.0757  0.1767 -0.1131
 7030TIP3    H242582   4.078   3.064  14.049  0.2900  0.1508 -0.3414
 7031TIP3   OH242583   1.803   5.990  13.440  0.4815  0.4947  0.3547
 7031TIP3    H142584   1.792   5.956  13.529  0.5994 -2.1467 -0.5446
 7031TIP3    H242585   1.843   5.917  13.392 -0.8104  1.3624 -2.1742
 7032TIP3   OH242586   6.669   3.664  16.760 -0.1012  0.0504  0.3015
 7032TIP3    H142587   6.737   3.597  16.763 -0.3958 -0.2313  1.3564
 7032TIP3    H242588   6.649   3.681  16.852 -1.1098  0.4824  0.0168
 7033TIP3   OH242589   4.393   3.854   2.363  0.1918 -0.4184  0.1347
 7033TIP3    H142590   4.451   3.786   2.329 -1.9430 -2.2736 -0.0274
 7033TIP3    H242591   4.341   3.882   2.288  1.2456  1.6993  0.1297
 7034TIP3   OH242592   3.044   6.237  16.013  0.5188 -0.4879  0.4087
 7034TIP3    H142593   3.029   6.184  16.091  0.4279 -1.6815 -0.3848
 7034TIP3    H242594   2.957   6.270  15.990  0.1619 -1.8400 -0.3337
 7035TIP3   OH242595   5.681   6.649  14.348  0.3701  0.2031  0.2216
 7035TIP3    H142596   5.657   6.694  14.267 -1.2449  0.4078  0.7932
 7035TIP3    H242597   5.729   6.716  14.398 -0.6584  0.8141  0.4094
 7036TIP3   OH242598   1.987   4.208   4.922 -0.4244 -0.3100  0.0012
 7036TIP3    H142599   2.074   4.167   4.916  0.0572  0.8634 -2.0441
 7036TIP3    H242600   1.994   4.267   4.997  0.1105 -1.1404  0.6307
 7037TIP3   OH242601   0.350   0.272   0.175  0.0907 -0.2398  0.6208
 7037TIP3    H142602   0.341   0.298   0.267  1.1345  0.9042  0.4302
 7037TIP3    H242603   0.443   0.251   0.166 -0.1400 -1.0188 -0.0185
 7038TIP3   OH242604   4.898   4.121   5.227  0.1452  0.8677  0.2225
 7038TIP3    H142605   4.979   4.162   5.258  0.2214  1.7765 -1.0831
 7038TIP3    H242606   4.890   4.150   5.136 -1.8295  1.1110  0.4248
 7039TIP3   OH242607   1.036   4.285   2.728  0.3120 -0.7846  0.3856
 7039TIP3    H142608   1.076   4.250   2.808 -0.3683  0.7244  1.4363
 7039TIP3    H242609   0.991   4.364   2.757  0.8839  0.3587 -1.6847
 7040TIP3   OH242610   4.950   5.486  13.245  0.6103 -0.1525  0.0040
 7040TIP3    H142611   4.968   5.557  13.307  1.3594 -0.3462  0.0147
 7040TIP3    H242612   4.859   5.500  13.220  0.5285  0.3866  0.5574
 7041TIP3   OH242613   6.451   4.901  10.820 -0.3154  0.4242  0.6135
 7041TIP3    H142614   6.522   4.863  10.871  0.4102 -0.5215 -1.0159
 7041TIP3    H242615   6.452   4.994  10.842  1.2425  0.3740  0.8316
 7042TIP3   OH242616   5.143   4.828   2.334  0.0972  0.0499 -0.0169
 7042TIP3    H142617   5.203   4.828   2.408  1.1226  2.8102 -0.7134
 7042TIP3    H242618   5.199   4.841   2.257 -1.1822  0.2295 -0.9632
 7043TIP3   OH242619   1.004   5.757  12.077 -0.3143 -0.7974  0.3147
 7043TIP3    H142620   1.003   5.829  12.140  1.7290  1.5359 -2.0608
 7043TIP3    H242621   0.945   5.786  12.007  0.0228 -1.7450 -0.3865
 7044TIP3   OH242622   1.077   4.665  16.656  0.1950  0.2149 -0.1222
 7044TIP3    H142623   1.110   4.613  16.729  0.5272 -0.6060 -0.8341
 7044TIP3    H242624   1.036   4.601  16.598 -0.4615  0.9107 -0.4453
 7045TIP3   OH242625   4.585   5.891   4.739  0.2479 -0.5899  0.1796
 7045TIP3    H142626   4.541   5.946   4.804  0.8376 -0.0428  0.1234
 7045TIP3    H242627   4.538   5.807   4.743 -0.4243 -0.2047  0.5233
 7046TIP3   OH242628   1.654   2.823   5.269 -0.2486  0.3127  0.5408
 7046TIP3    H142629   1.686   2.910   5.249 -0.0255  0.3171  0.9090
 7046TIP3    H242630   1.559   2.833   5.276 -0.2780  0.4125  0.0322
 7047TIP3   OH242631   0.308   4.736   1.764 -0.1414  0.0615  0.5696
 7047TIP3    H142632   0.243   4.754   1.696 -1.5944  0.2340  1.9433
 7047TIP3    H242633   0.266   4.673   1.822  1.6838 -1.3606  0.4525
 7048TIP3   OH242634   1.358   4.420   0.232  0.3752 -0.2402  0.0636
 7048TIP3    H142635   1.382   4.370   0.154  0.2558  0.9196 -0.7538
 7048TIP3    H242636   1.299   4.362   0.280 -0.0267 -0.7617 -1.0167
 7049TIP3   OH242637   3.019   1.030  12.500 -0.1134 -0.3499  0.7715
 7049TIP3    H142638   3.011   1.087  12.576 -2.7896  0.1593  0.2321
 7049TIP3    H242639   2.940   0.976  12.502 -0.0624 -0.6245 -1.3773
 7050TIP3   OH242640   6.723   0.812  14.125  0.4484  0.0210  0.3073
 7050TIP3    H142641   6.817   0.793  14.137  0.6074 -0.1652 -1.0879
 7050TIP3    H242642   6.718   0.908  14.127  0.5316  0.0178  1.2294
 7051TIP3   OH242643   0.229   1.977   3.326 -0.3280 -0.4756 -0.1101
 7051TIP3    H142644   0.190   1.916   3.389  0.7936 -2.3766 -1.1574
 7051TIP3    H242645   0.171   1.973   3.250  0.1509 -0.8420 -0.4630
 7052TIP3   OH242646   5.312   5.428  16.243 -0.4408  0.0198 -0.5329
 7052TIP3    H142647   5.251   5.358  16.220  0.2348 -0.3338 -1.3166
 7052TIP3    H242648   5.265   5.481  16.306 -1.7504  0.0554 -1.5052
 7053TIP3   OH242649   6.552   2.015   2.599  0.4211 -0.1648 -0.2456
 7053TIP3    H142650   6.516   2.087   2.650  0.2957 -0.2336 -0.2338
 7053TIP3    H242651   6.621   2.054   2.546 -0.5895  0.2464 -1.3067
 7054TIP3   OH242652   3.799   1.087   4.882  1.3324  0.6755  0.6473
 7054TIP3    H142653   3.802   0.991   4.884  1.6961  0.6680 -0.2024
 7054TIP3    H242654   3.821   1.110   4.792 -1.0331  1.4832  0.2048
 7055TIP3   OH242655   6.663   5.646   6.160 -0.3313 -0.3162  0.1799
 7055TIP3    H142656   6.618   5.674   6.081 -0.4446  0.4161  0.4997
 7055TIP3    H242657   6.740   5.703   6.166 -0.5629 -0.0532  0.8318
 7056TIP3   OH242658   4.381   3.583   4.712  0.4283  0.1143  0.0908
 7056TIP3    H142659   4.353   3.617   4.797 -1.7487 -0.1240 -0.4742
 7056TIP3    H242660   4.310   3.607   4.652  0.8470 -1.6700 -1.2035
 7057TIP3   OH242661   3.982   6.761  15.733  0.1701 -1.0637 -0.2309
 7057TIP3    H142662   3.983   6.721  15.820  0.2686 -0.9805 -0.1929
 7057TIP3    H242663   4.017   6.849  15.747 -1.3473 -0.4659 -0.0686
 7058TIP3   OH242664   1.986   6.492  12.705 -0.2906 -0.3589  0.1932
 7058TIP3    H142665   1.916   6.550  12.674  0.3106  0.2129 -0.1214
 7058TIP3    H242666   2.058   6.506  12.644  0.7239  0.3821  1.4975
 7059TIP3   OH242667   6.690   3.646  14.718 -0.4394 -0.8374 -0.5183
 7059TIP3    H142668   6.753   3.632  14.789  0.5529 -0.7571 -1.3520
 7059TIP3    H242669   6.609   3.671  14.761  0.7966  1.6799  0.4886
 7060TIP3   OH242670   5.562   3.715   5.093  0.0591 -0.0009 -0.3107
 7060TIP3    H142671   5.505   3.728   5.168  1.0696  0.2718  0.4286
 7060TIP3    H242672   5.509   3.744   5.018 -1.5661 -1.8437  0.0431
 7061TIP3   OH242673   1.402   5.528  13.716  0.2672  0.2780  0.2778
 7061TIP3    H142674   1.438   5.449  13.757  1.0832  0.8959  0.7767
 7061TIP3    H242675   1.319   5.499  13.678  0.1277 -0.6114  1.2217
 7062TIP3   OH242676   5.457   0.877  13.467 -0.0343  0.1115 -0.0677
 7062TIP3    H142677   5.388   0.902  13.529 -0.4030  0.3376 -0.5513
 7062TIP3    H242678   5.452   0.944  13.398  0.5893  0.0579 -0.1725
 7063TIP3   OH242679   5.373   3.791   0.531  0.3385  0.1453 -0.4547
 7063TIP3    H142680   5.324   3.873   0.532  0.5738  0.3068 -1.3320
 7063TIP3    H242681   5.460   3.813   0.564  0.7154  0.4717 -1.6216
 7064TIP3   OH242682   4.228   2.046  12.579 -0.1849  0.1186 -0.2437
 7064TIP3    H142683   4.296   2.109  12.605  0.9197 -0.8745 -0.6066
 7064TIP3    H242684   4.157   2.099  12.544  1.0088  1.1281 -1.2094
 7065TIP3   OH242685   5.277   5.685   3.820  0.4875 -0.1747  0.2046
 7065TIP3    H142686   5.263   5.756   3.883  0.9868  1.8512 -1.8027
 7065TIP3    H242687   5.213   5.702   3.750  1.5427 -0.8538 -0.9769
 7066TIP3   OH242688   4.936   6.268   4.036 -0.0315 -0.2827 -0.6482
 7066TIP3    H142689   5.003   6.208   4.067 -0.4071 -0.6970 -0.6314
 7066TIP3    H242690   4.873   6.213   3.990  0.7414  0.3762 -2.5914
 7067TIP3   OH242691   4.767   1.796  14.744  0.1200  0.0652  0.0770
 7067TIP3    H142692   4.731   1.765  14.661  3.3442  1.3214 -2.0164
 7067TIP3    H242693   4.790   1.887  14.727  1.9805  0.0227  1.9544
 7068TIP3   OH242694   0.318   5.386  14.042  0.2238  0.1594  0.1299
 7068TIP3    H142695   0.377   5.452  14.005 -0.0330 -0.2210 -0.9996
 7068TIP3    H242696   0.333   5.308  13.989 -0.5866 -0.2322  0.4589
 7069TIP3   OH242697   3.596   5.653   5.065  0.2951 -0.1777 -0.1914
 7069TIP3    H142698   3.650   5.728   5.041  0.4346  0.0805  0.8639
 7069TIP3    H242699   3.599   5.652   5.161 -0.8732 -0.6820 -0.1525
 7070TIP3   OH242700   1.132   0.296   3.137 -0.1637 -0.1626  0.1268
 7070TIP3    H142701   1.055   0.315   3.084 -0.9228 -0.7255  0.9917
 7070TIP3    H242702   1.111   0.330   3.223  1.1477  0.9492  0.0449
 7071TIP3   OH242703   0.800   6.535   1.223 -0.1930 -0.1498  0.5911
 7071TIP3    H142704   0.850   6.455   1.211  0.1581  0.3846 -2.1748
 7071TIP3    H242705   0.718   6.519   1.176  0.3667  1.4653 -1.0611
 7072TIP3   OH242706   1.953   4.852  12.529  0.5717 -0.1646  0.3115
 7072TIP3    H142707   1.923   4.855  12.439 -1.5677 -1.6905  0.8983
 7072TIP3    H242708   1.943   4.941  12.561  0.2943  0.1500 -0.6267
 7073TIP3   OH242709   1.739   1.651  15.077  0.4560 -0.2697  0.1301
 7073TIP3    H142710   1.714   1.559  15.067 -0.0084 -0.2018  0.6303
 7073TIP3    H242711   1.823   1.658  15.033 -0.2510 -0.5772 -1.3193
 7074TIP3   OH242712   2.930   4.171  13.201  0.4060 -0.4512 -0.3212
 7074TIP3    H142713   2.927   4.248  13.258 -2.3604  0.4723 -1.5039
 7074TIP3    H242714   3.002   4.188  13.141  1.8438 -0.3325  1.3542
 7075TIP3   OH242715   1.155   0.187   2.296 -0.2918  0.2600  0.2587
 7075TIP3    H142716   1.111   0.260   2.338 -0.2374  0.3290  0.1958
 7075TIP3    H242717   1.221   0.227   2.240  0.4639  0.1245  1.0410
 7076TIP3   OH242718   2.928   0.237  15.147 -0.2699  0.6423  0.1648
 7076TIP3    H142719   2.871   0.197  15.082 -1.3364  0.4298  1.1905
 7076TIP3    H242720   2.887   0.321  15.167 -1.1060 -0.1678  2.0232
 7077TIP3   OH242721   1.894   1.660  16.444  0.5032 -0.2429  0.0304
 7077TIP3    H142722   1.984   1.688  16.434  0.6660 -0.8720 -0.3729
 7077TIP3    H242723   1.900   1.567  16.465 -0.0543 -0.3911 -0.4196
 7078TIP3   OH242724   4.270   5.514   2.807 -0.4106  0.2571  0.2986
 7078TIP3    H142725   4.255   5.600   2.847 -1.6337 -0.3343  1.1926
 7078TIP3    H242726   4.329   5.469   2.868 -1.6801 -0.3738  1.1068
 7079TIP3   OH242727   3.917   5.487  13.494 -0.5495 -0.5772 -0.7232
 7079TIP3    H142728   3.910   5.545  13.418  0.1929 -0.0890 -0.4267
 7079TIP3    H242729   3.865   5.410  13.470 -0.8849 -0.1375 -1.4453
 7080TIP3   OH242730   2.660   1.455  11.811 -1.2458  0.2268  0.2678
 7080TIP3    H142731   2.717   1.518  11.856 -1.0143  0.9639 -1.0188
 7080TIP3    H242732   2.678   1.372  11.855  1.8024  0.1516 -0.9002
 7081TIP3   OH242733   5.355   5.943  12.472 -0.3002 -0.3583  0.6427
 7081TIP3    H142734   5.262   5.949  12.451 -0.0951 -0.1376 -0.2178
 7081TIP3    H242735   5.384   5.862  12.431 -0.1497 -0.5181  1.0604
 7082TIP3   OH242736   6.463   1.469   1.621 -0.0961 -0.1128 -0.8758
 7082TIP3    H142737   6.524   1.453   1.693 -0.5579  0.1660 -0.4134
 7082TIP3    H242738   6.466   1.390   1.568 -1.0765 -1.0714  0.4385
 7083TIP3   OH242739   6.242   1.132   2.112 -0.5556  0.0893 -0.4394
 7083TIP3    H142740   6.202   1.212   2.144 -0.0415  0.2930 -0.2979
 7083TIP3    H242741   6.280   1.155   2.027  1.2825  0.5219  0.4608
 7084TIP3   OH242742   3.910   2.623  13.012  0.1229 -0.2997 -0.4583
 7084TIP3    H142743   3.859   2.547  13.037  0.4641 -0.4417 -0.1948
 7084TIP3    H242744   3.973   2.590  12.947  0.1749 -0.2129 -0.4521
 7085TIP3   OH242745   3.966   3.840   2.038  0.0491  0.1436 -0.5936
 7085TIP3    H142746   3.890   3.842   2.096  0.9604 -0.0961  0.6531
 7085TIP3    H242747   3.961   3.754   1.996 -0.2263  0.0210 -0.3168
 7086TIP3   OH242748   6.733   5.078  15.037  0.0413 -0.6898  0.0151
 7086TIP3    H142749   6.754   5.166  15.005 -2.4085  0.1658  0.5295
 7086TIP3    H242750   6.760   5.020  14.966 -0.2149  0.6781 -1.2637
 7087TIP3   OH242751   6.131   0.237   6.637  0.3823 -0.0708 -0.4253
 7087TIP3    H142752   6.222   0.220   6.660  0.6396  1.5519 -0.1668
 7087TIP3    H242753   6.128   0.229   6.542  0.9194  0.3996 -0.4838
 7088TIP3   OH242754   2.204   1.496  14.900 -0.5937 -0.8416  0.0857
 7088TIP3    H142755   2.273   1.430  14.903  0.6175  0.4148  2.2468
 7088TIP3    H242756   2.187   1.509  14.806  2.3521 -0.9593 -0.5376
 7089TIP3   OH242757   0.001   5.678  15.140 -0.0990  0.1510  0.5120
 7089TIP3    H142758  -0.082   5.724  15.145  1.3566  2.8853  1.5065
 7089TIP3    H242759   0.045   5.698  15.223  1.9406 -0.4153 -0.3635
 7090TIP3   OH242760   3.044   2.843   4.359  0.0764 -0.4102 -0.2128
 7090TIP3    H142761   3.086   2.861   4.275 -0.5932  0.9710 -0.2759
 7090TIP3    H242762   2.950   2.838   4.338 -0.2679  1.6048  0.6748
 7091TIP3   OH242763   1.757   6.594   2.970  0.0214  0.3648  0.0990
 7091TIP3    H142764   1.834   6.605   2.914  0.7175  1.7313  1.2739
 7091TIP3    H242765   1.683   6.593   2.909  0.9318 -1.0078 -1.0523
 7092TIP3   OH242766   6.214   0.556   4.691  0.2742 -0.2760  0.4591
 7092TIP3    H142767   6.176   0.569   4.777  1.7883 -0.5268  1.2069
 7092TIP3    H242768   6.161   0.487   4.651 -0.5645 -0.0125  1.0997
 7093TIP3   OH242769   4.203   6.092   3.179 -0.1508  0.0114 -0.9025
 7093TIP3    H142770   4.139   6.100   3.108  1.9621  0.8051 -2.8199
 7093TIP3    H242771   4.169   6.020   3.233 -2.9504  0.8072 -1.4546
 7094TIP3   OH242772   6.407   5.331   0.415 -0.2345  0.2656 -0.2244
 7094TIP3    H142773   6.396   5.362   0.325 -0.7659  1.5296  0.2518
 7094TIP3    H242774   6.318   5.332   0.451  0.2379  2.2976  1.0842
 7095TIP3   OH242775   6.763   2.441   3.750 -0.7253 -0.3095 -0.4201
 7095TIP3    H142776   6.743   2.514   3.690  0.0569 -0.9155 -1.4590
 7095TIP3    H242777   6.796   2.372   3.692 -0.1899 -1.0120  0.7018
 7096TIP3   OH242778   3.504   3.130  11.963  0.7305  0.1312  0.1070
 7096TIP3    H142779   3.544   3.134  11.876  0.3010  0.6016 -0.0710
 7096TIP3    H242780   3.504   3.037  11.985 -0.4276 -0.1487 -0.9917
 7097TIP3   OH242781   0.847   5.396  13.196 -0.2452  0.5017 -0.0121
 7097TIP3    H142782   0.886   5.313  13.169 -1.7733 -0.1362 -0.3776
 7097TIP3    H242783   0.870   5.457  13.126  0.8555  0.3878  0.2392
 7098TIP3   OH242784   4.140   5.545  10.953 -0.6030 -0.3851 -0.0227
 7098TIP3    H142785   4.094   5.502  10.882  0.4458  1.5297 -1.9633
 7098TIP3    H242786   4.134   5.639  10.934  3.6263  0.0578 -0.2573
 7099TIP3   OH242787   4.821   3.681   1.348  0.0795 -0.1231 -0.5731
 7099TIP3    H142788   4.860   3.644   1.269 -1.4730 -0.9624 -0.9799
 7099TIP3    H242789   4.842   3.619   1.418 -1.2549 -1.0585 -0.9696
 7100TIP3   OH242790   6.667   6.364  15.068 -0.0709 -0.2468 -0.2010
 7100TIP3    H142791   6.615   6.441  15.093 -0.4360 -0.4075 -0.4638
 7100TIP3    H242792   6.688   6.321  15.151 -1.9980 -1.2515 -0.1880
 7101TIP3   OH242793   0.216   3.134  11.111  0.0615  0.0407  0.4504
 7101TIP3    H142794   0.197   3.073  11.040  1.2624 -0.3300  0.4208
 7101TIP3    H242795   0.142   3.125  11.171 -0.3039 -0.6393 -0.0905
 7102TIP3   OH242796   4.683   6.518   0.112 -0.0701  0.1061  0.2884
 7102TIP3    H142797   4.707   6.463   0.038  0.8280 -0.0011  0.6543
 7102TIP3    H242798   4.614   6.469   0.157  0.8977 -0.8410  0.7568
 7103TIP3   OH242799   2.023   3.267   0.582 -0.0295  0.0883  0.1301
 7103TIP3    H142800   1.994   3.221   0.660 -0.8555  2.4931  1.3498
 7103TIP3    H242801   1.946   3.269   0.525  0.3716 -1.0720 -0.4701
 7104TIP3   OH242802   1.474   4.370   1.228  0.0685 -0.1901  0.0458
 7104TIP3    H142803   1.461   4.276   1.238  1.5656 -0.2927  1.4628
 7104TIP3    H242804   1.528   4.379   1.149 -0.1241 -0.5011 -0.1231
 7105TIP3   OH242805   2.860   5.999   2.150 -0.0084 -0.0315  0.0372
 7105TIP3    H142806   2.784   6.055   2.131  0.5551  0.3120 -1.2816
 7105TIP3    H242807   2.879   5.955   2.067 -0.1833 -1.9072  0.9275
 7106TIP3   OH242808   2.364   0.893   4.846 -0.1450  0.4493  0.2693
 7106TIP3    H142809   2.435   0.927   4.900  0.0437 -1.7024  1.4826
 7106TIP3    H242810   2.377   0.935   4.761  0.8388  2.2936  1.2711
 7107TIP3   OH242811   6.592   3.694  16.267  0.0677 -0.0629  0.5110
 7107TIP3    H142812   6.500   3.714  16.251 -0.2120 -0.9510  0.9751
 7107TIP3    H242813   6.594   3.659  16.356  1.0741  1.3499  1.0722
 7108TIP3   OH242814   4.014   2.675   1.454 -0.3248  0.1587 -0.0285
 7108TIP3    H142815   4.073   2.693   1.527 -2.3046 -0.3797  1.8069
 7108TIP3    H242816   3.943   2.738   1.464 -2.2763 -1.9701  0.5392
 7109TIP3   OH242817   4.300   2.162   0.210  0.8235  0.1250 -0.4980
 7109TIP3    H142818   4.292   2.241   0.156  0.1304  0.2141 -0.2645
 7109TIP3    H242819   4.332   2.096   0.149 -0.6370  0.0367 -1.2151
 7110TIP3   OH242820   0.381   2.229  14.783  0.3387 -0.0479  0.3021
 7110TIP3    H142821   0.375   2.210  14.689 -0.4757  0.6297  0.2078
 7110TIP3    H242822   0.338   2.154  14.825  0.5380 -0.2619  0.1297
 7111TIP3   OH242823   2.186   0.532  10.221  0.3158  0.0026 -0.3474
 7111TIP3    H142824   2.207   0.459  10.163  1.8154  0.4011 -0.3492
 7111TIP3    H242825   2.205   0.498  10.309  1.9072  0.6610 -0.4181
 7112TIP3   OH242826   5.809   1.773   5.288 -0.1527  0.2330 -0.0559
 7112TIP3    H142827   5.826   1.688   5.246  1.7220  0.1100  0.8678
 7112TIP3    H242828   5.780   1.830   5.217  0.6133 -0.6185 -1.0691
 7113TIP3   OH242829   0.141   0.212   5.139 -0.0931 -0.3591  0.1088
 7113TIP3    H142830   0.165   0.126   5.176  3.2209  2.0227  4.4500
 7113TIP3    H242831   0.213   0.233   5.080 -0.5493 -0.2942 -0.4231
 7114TIP3   OH242832   2.199   1.979  14.197 -0.1388  0.3052 -0.2537
 7114TIP3    H142833   2.229   1.994  14.287  1.2765  1.3023 -0.8660
 7114TIP3    H242834   2.268   1.926  14.157 -0.3094  0.6584 -1.0261
 7115TIP3   OH242835   2.797   1.744  13.885 -0.0136 -0.2397  0.6430
 7115TIP3    H142836   2.731   1.774  13.823  0.8994 -0.8236 -0.6759
 7115TIP3    H242837   2.825   1.822  13.931 -0.4300  0.2873  0.0132
 7116TIP3   OH242838   4.314   3.452   2.550  0.2130 -0.0721  0.1650
 7116TIP3    H142839   4.325   3.399   2.471 -1.3824  1.2188 -0.9902
 7116TIP3    H242840   4.273   3.392   2.613 -0.0684 -0.6574 -0.5612
 7117TIP3   OH242841   3.853   3.707  11.142 -0.1491 -0.2163 -0.2096
 7117TIP3    H142842   3.857   3.678  11.051 -1.7398 -0.3315 -0.2756
 7117TIP3    H242843   3.821   3.797  11.138  1.7607  0.5247  0.1620
 7118TIP3   OH242844   3.277   5.725   2.210 -0.3015 -0.4045 -0.2389
 7118TIP3    H142845   3.308   5.639   2.240 -1.4270 -1.0361 -0.8041
 7118TIP3    H242846   3.219   5.755   2.280 -0.1240 -0.2347 -0.1658
 7119TIP3   OH242847   4.917   0.334  11.492 -0.1098 -0.2313 -0.2922
 7119TIP3    H142848   4.967   0.287  11.425 -1.8603 -0.7544 -1.3006
 7119TIP3    H242849   4.876   0.406  11.444  0.7268  1.0111  0.7904
 7120TIP3   OH242850   2.372   1.724   3.081 -0.1449 -0.1806  0.3706
 7120TIP3    H142851   2.279   1.731   3.101  0.1727  1.1326  1.4858
 7120TIP3    H242852   2.416   1.757   3.158  1.2205  0.7282 -0.7537
 7121TIP3   OH242853   4.612   5.750  12.255 -0.2808 -0.1381 -0.0773
 7121TIP3    H142854   4.692   5.735  12.205 -0.1325 -0.3927  0.2340
 7121TIP3    H242855   4.550   5.686  12.219  0.0583 -0.8585  0.5842
 7122TIP3   OH242856   6.608   2.308  11.453 -0.0259  0.2663  0.0087
 7122TIP3    H142857   6.549   2.294  11.379 -1.0763  1.8494  0.4903
 7122TIP3    H242858   6.695   2.296  11.416 -0.5601 -0.0154 -1.2344
 7123TIP3   OH242859   4.662   6.685   4.852 -0.3202  0.4216  0.1986
 7123TIP3    H142860   4.694   6.773   4.872 -0.1002  0.8528 -1.8185
 7123TIP3    H242861   4.568   6.697   4.834 -0.0994  0.4527 -1.0348
 7124TIP3   OH242862   4.392   0.188   0.311 -0.2490 -0.0186  0.2968
 7124TIP3    H142863   4.359   0.156   0.227 -1.4740  1.2826  0.2308
 7124TIP3    H242864   4.430   0.111   0.353  1.2854 -0.5048 -1.8418
 7125TIP3   OH242865   3.228   5.780  14.798 -0.0485  0.5520 -0.1641
 7125TIP3    H142866   3.312   5.735  14.787 -0.8646 -0.9039 -0.6450
 7125TIP3    H242867   3.174   5.719  14.847 -0.7161  1.6594  0.5334
 7126TIP3   OH242868   1.586   5.290  10.583  0.7767 -0.5584 -0.1703
 7126TIP3    H142869   1.513   5.321  10.637  1.4553 -0.0777  0.4881
 7126TIP3    H242870   1.544   5.248  10.508 -0.2035 -1.4119  0.8084
 7127TIP3   OH242871   6.308   6.336  11.454 -0.2454  0.8032 -0.2244
 7127TIP3    H142872   6.398   6.346  11.420  0.5915 -0.1834  1.5724
 7127TIP3    H242873   6.273   6.260  11.406  0.8776 -0.5033  0.9384
 7128TIP3   OH242874   5.523   2.849   2.649 -0.0272 -0.1727  0.4525
 7128TIP3    H142875   5.546   2.906   2.723  0.2109  0.7563 -0.3151
 7128TIP3    H242876   5.444   2.889   2.613 -0.7583 -1.2338  0.8347
 7129TIP3   OH242877   2.381   5.306   4.918  0.6665  0.1587 -0.5856
 7129TIP3    H142878   2.373   5.229   4.862  0.9954 -0.3265  0.0271
 7129TIP3    H242879   2.399   5.271   5.005 -1.0879  0.8390  0.1086
 7130TIP3   OH242880   5.669   2.257  13.104 -0.0644 -0.1926 -0.5655
 7130TIP3    H142881   5.698   2.225  13.190 -0.6585  0.7776  0.0185
 7130TIP3    H242882   5.575   2.239  13.102  0.0437 -0.6685 -1.2202
 7131TIP3   OH242883   2.392   4.268   6.281 -0.4625  0.2865  0.0915
 7131TIP3    H142884   2.330   4.195   6.277 -0.6475  0.4047 -3.8327
 7131TIP3    H242885   2.341   4.345   6.257  1.0354  0.2921 -3.9111
 7132TIP3   OH242886   4.575   0.390   4.464 -0.0533  0.1728 -0.4094
 7132TIP3    H142887   4.555   0.410   4.373 -1.9174 -0.6174 -0.2241
 7132TIP3    H242888   4.562   0.295   4.471  0.1701  0.2046  0.6381
 7133TIP3   OH242889   5.517   2.328  16.542  0.7024  0.4350  0.3044
 7133TIP3    H142890   5.464   2.257  16.506  0.4688  1.2158 -0.9310
 7133TIP3    H242891   5.560   2.367  16.466  0.1638  2.1521  0.8542
 7134TIP3   OH242892   0.138   5.673   2.872 -0.3538 -0.2030 -0.0555
 7134TIP3    H142893   0.120   5.682   2.779 -2.9932 -1.3931  0.2462
 7134TIP3    H242894   0.086   5.597   2.900 -0.6678  0.8712  2.6332
 7135TIP3   OH242895   6.217   0.079  17.176  0.3349 -0.3062  0.7364
 7135TIP3    H142896   6.311   0.089  17.192  0.5274 -0.4573 -0.2746
 7135TIP3    H242897   6.209  -0.003  17.128 -0.1359  0.5013 -0.6310
 7136TIP3   OH242898   3.349   4.929   5.354  0.7411 -0.8384 -0.5001
 7136TIP3    H142899   3.320   4.980   5.279  2.5981 -0.8094 -1.2595
 7136TIP3    H242900   3.339   4.838   5.327 -1.4573 -0.9351  0.4149
 7137TIP3   OH242901   5.859   4.886  15.738  0.4465  0.2221  0.1285
 7137TIP3    H142902   5.807   4.912  15.662  1.8101  1.9299 -0.2855
 7137TIP3    H242903   5.827   4.942  15.809  0.3249 -0.1889  0.4031
 7138TIP3   OH242904   1.037   2.405  16.079 -0.1969  0.1528  0.0636
 7138TIP3    H142905   1.124   2.407  16.038 -0.0791 -0.1049  0.3014
 7138TIP3    H242906   0.976   2.417  16.006 -0.0180 -0.9412 -0.2771
 7139TIP3   OH242907   0.317   1.301  16.725  0.0216 -0.3504  0.1913
 7139TIP3    H142908   0.234   1.294  16.678 -0.8520 -0.0795  1.6317
 7139TIP3    H242909   0.296   1.349  16.805  1.5175 -0.5026  0.7224
 7140TIP3   OH242910   0.970   0.622  12.797 -0.1300 -0.0817  0.9374
 7140TIP3    H142911   0.885   0.644  12.835 -0.3407 -0.6555  0.8097
 7140TIP3    H242912   0.989   0.694  12.737 -1.3390 -0.7966 -0.3442
 7141TIP3   OH242913   5.430   0.485  13.768 -0.4573  0.5944  0.2436
 7141TIP3    H142914   5.431   0.431  13.847 -0.0603 -1.0392 -0.8230
 7141TIP3    H242915   5.521   0.512  13.756 -0.1213 -0.7980 -0.6674
 7142TIP3   OH242916   6.468   5.356   5.095 -0.1908 -0.9760  0.3008
 7142TIP3    H142917   6.534   5.345   5.026 -0.2517  2.1200 -0.4087
 7142TIP3    H242918   6.387   5.324   5.056  0.2159 -1.3851 -0.2248
 7143TIP3   OH242919   0.131   6.348   3.349 -0.1924 -0.9384 -0.0076
 7143TIP3    H142920   0.123   6.417   3.283 -0.9343  0.1791  1.1923
 7143TIP3    H242921   0.041   6.335   3.381  0.3254 -0.4399  1.7479
 7144TIP3   OH242922   4.144   0.613  11.455  0.2593 -0.1272 -0.2740
 7144TIP3    H142923   4.180   0.606  11.543 -0.2596  0.1720 -0.0347
 7144TIP3    H242924   4.075   0.547  11.451  0.6515 -0.5261 -0.6488
 7145TIP3   OH242925   1.147   1.765  10.614  0.0564  0.6581 -0.1578
 7145TIP3    H142926   1.196   1.721  10.683 -0.0460  0.4416 -0.2200
 7145TIP3    H242927   1.145   1.857  10.640  0.1995  0.6114  0.0186
 7146TIP3   OH242928   0.742   1.041  10.902  0.8318  0.1403  0.0322
 7146TIP3    H142929   0.817   1.008  10.853  0.4483 -1.6511  0.5791
 7146TIP3    H242930   0.756   1.136  10.906  3.8746 -0.2578  1.4425
 7147TIP3   OH242931   3.708   2.227   5.480  0.6601  0.5194 -0.0038
 7147TIP3    H142932   3.801   2.220   5.457  1.0765  0.2505  1.6567
 7147TIP3    H242933   3.690   2.149   5.533  0.0126  1.5514  1.3543
 7148TIP3   OH242934   2.483   6.175   4.898  0.2368  0.2442  0.0960
 7148TIP3    H142935   2.507   6.083   4.910 -0.3242 -0.0055 -0.6092
 7148TIP3    H242936   2.566   6.223   4.901  0.4932 -0.2433  0.8251
 7149TIP3   OH242937   1.328   2.779   3.890  0.3573  0.0198  0.1931
 7149TIP3    H142938   1.263   2.832   3.935 -2.2994 -0.5263 -2.6951
 7149TIP3    H242939   1.397   2.841   3.866 -0.7135  1.3595  0.4607
 7150TIP3   OH242940   4.571   5.330  13.034 -0.9945 -0.2055 -0.0497
 7150TIP3    H142941   4.609   5.361  13.116 -1.4762 -0.5873  0.3279
 7150TIP3    H242942   4.566   5.408  12.978 -0.9954  0.1277  0.4142
 7151TIP3   OH242943   6.007   0.110  12.455  0.2815  0.1508  0.0761
 7151TIP3    H142944   6.033   0.023  12.424  1.2804 -0.2255  1.8727
 7151TIP3    H242945   6.089   0.156  12.469 -0.0868  0.1951  2.3961
 7152TIP3   OH242946   5.603   6.661  17.170 -0.3982 -0.3342  0.1377
 7152TIP3    H142947   5.665   6.694  17.104  0.3774  0.1788  1.0907
 7152TIP3    H242948   5.527   6.718  17.161  0.3821  0.8660  0.8179
 7153TIP3   OH242949   4.703   2.260  16.793 -0.1271 -0.6686  0.2772
 7153TIP3    H142950   4.786   2.251  16.840  0.5251 -0.3668 -0.7813
 7153TIP3    H242951   4.636   2.256  16.862  0.7891 -0.2929  1.2185
 7154TIP3   OH242952   0.020   2.580  17.221 -0.5004  0.3785  0.2897
 7154TIP3    H142953  -0.027   2.566  17.138  0.8369  1.2333 -0.6435
 7154TIP3    H242954   0.094   2.520  17.216 -0.8398 -0.1418  1.2484
 7155TIP3   OH242955   6.817   2.213  16.432 -0.2120 -0.3634 -0.1776
 7155TIP3    H142956   6.726   2.224  16.404  0.1874  1.6637 -0.8802
 7155TIP3    H242957   6.836   2.121  16.414 -0.8152  0.0887 -4.3003
 7156TIP3   OH242958   2.260   2.666   2.432  0.1372 -0.2244 -0.1849
 7156TIP3    H142959   2.234   2.633   2.519  3.6411  0.0454  1.1256
 7156TIP3    H242960   2.292   2.755   2.449 -0.0799  0.2282 -1.9639
 7157TIP3   OH242961   3.737   4.664  14.669 -0.3087 -0.2377 -0.4531
 7157TIP3    H142962   3.680   4.643  14.742  1.9511 -0.9409  1.2150
 7157TIP3    H242963   3.798   4.729  14.704  1.1805 -1.0097 -1.5173
 7158TIP3   OH242964   3.582   1.570  15.368  0.2626  0.3451  0.0669
 7158TIP3    H142965   3.492   1.550  15.394 -0.1967  2.0389 -0.1063
 7158TIP3    H242966   3.579   1.577  15.273  0.1891  2.0089  0.1610
 7159TIP3   OH242967   2.846   1.667   0.802  0.0211  0.0695  0.3854
 7159TIP3    H142968   2.766   1.661   0.750 -0.8750  1.4891  1.5211
 7159TIP3    H242969   2.912   1.702   0.743 -0.8241  1.1130  0.0438
 7160TIP3   OH242970   1.757   2.039   1.263 -0.1476  0.0747  0.5255
 7160TIP3    H142971   1.838   2.075   1.226 -0.5793 -0.5583 -1.1627
 7160TIP3    H242972   1.786   1.968   1.320  0.5557  1.0974  1.4738
 7161TIP3   OH242973   2.224   0.094  16.007 -0.1852  0.5825 -0.1856
 7161TIP3    H142974   2.269   0.042  16.073 -1.4629  0.1523  0.3717
 7161TIP3    H242975   2.265   0.180  16.012  2.9290 -0.6149 -2.0582
 7162TIP3   OH242976   2.908   4.159   2.638 -0.4484  0.2753  0.1473
 7162TIP3    H142977   2.950   4.124   2.559 -1.7180  1.6034 -1.1912
 7162TIP3    H242978   2.827   4.199   2.605 -1.8804 -0.6242  2.3628
 7163TIP3   OH242979   6.247   3.404  15.733 -1.1470 -0.2734 -0.6463
 7163TIP3    H142980   6.295   3.486  15.728  2.1820 -2.0583 -1.4718
 7163TIP3    H242981   6.235   3.387  15.826 -3.7961  2.0032 -0.4505
 7164TIP3   OH242982   6.169   4.705  11.523 -0.1636 -0.5395 -0.0760
 7164TIP3    H142983   6.232   4.760  11.570  0.0264 -0.6753 -0.1664
 7164TIP3    H242984   6.145   4.756  11.446 -2.6224  0.9198  1.5200
 7165TIP3   OH242985   0.194   5.371  10.776  0.0810 -0.2725 -0.5696
 7165TIP3    H142986   0.264   5.401  10.835 -0.5344  0.8060 -0.3749
 7165TIP3    H242987   0.115   5.412  10.810 -0.7394 -1.7897 -0.5639
 7166TIP3   OH242988   5.728   4.939   5.039  0.3635 -0.6132  0.3490
 7166TIP3    H142989   5.731   5.019   4.987 -2.8229 -0.7144 -0.2071
 7166TIP3    H242990   5.657   4.955   5.102 -0.1750 -2.8784  0.3894
 7167TIP3   OH242991   3.269   1.461  14.255  0.5284  0.2803  0.4745
 7167TIP3    H142992   3.239   1.523  14.322 -2.1171  0.4852 -0.7865
 7167TIP3    H242993   3.205   1.390  14.258  1.9435 -1.0751 -0.0056
 7168TIP3   OH242994   3.847   5.503   1.097  0.3426  0.4501  0.1597
 7168TIP3    H142995   3.810   5.495   1.185  1.4918  0.4184  0.6651
 7168TIP3    H242996   3.773   5.527   1.042 -0.5747 -0.4010  0.9745
 7169TIP3   OH242997   1.121   2.860  10.968 -0.3593  0.3302  0.1115
 7169TIP3    H142998   1.139   2.946  11.006 -1.6726  1.0491 -0.8224
 7169TIP3    H242999   1.033   2.869  10.930 -0.7192 -1.5710  0.4220
 7170TIP3   OH243000   1.632   0.672   5.680 -0.3460 -0.3007 -0.8962
 7170TIP3    H143001   1.691   0.746   5.668  1.5200 -0.9972  2.7003
 7170TIP3    H243002   1.668   0.604   5.622  2.7897 -0.7957  1.3462
 7171TIP3   OH243003   1.826   2.389   5.019 -1.0654 -0.0830 -0.2432
 7171TIP3    H143004   1.777   2.415   5.097 -0.5368 -2.1031  0.8214
 7171TIP3    H243005   1.773   2.320   4.979 -1.2931  0.8760 -1.6902
 7172TIP3   OH243006   6.460   2.736   3.438  0.0121 -0.0539  0.2519
 7172TIP3    H143007   6.538   2.764   3.487  0.3745 -2.5536  1.2925
 7172TIP3    H243008   6.492   2.663   3.384 -1.2894 -0.0533 -0.5502
 7173TIP3   OH243009   2.599   5.253  11.105 -0.1885  0.1822  0.1674
 7173TIP3    H143010   2.693   5.238  11.093 -0.5415 -1.5828 -0.8237
 7173TIP3    H243011   2.573   5.301  11.026  0.0038  1.3307  0.7969
 7174TIP3   OH243012   5.582   0.351  15.855  0.6318 -0.0198 -0.5367
 7174TIP3    H143013   5.560   0.373  15.764 -1.2067  0.5739  0.0230
 7174TIP3    H243014   5.551   0.425  15.906  1.3840 -0.4795  0.6215
 7175TIP3   OH243015   3.957   6.134   2.075  0.0802 -0.2033 -0.2046
 7175TIP3    H143016   3.983   6.167   1.989  1.9481 -2.9419 -0.8297
 7175TIP3    H243017   3.876   6.086   2.058 -0.6242  0.8727 -0.0001
 7176TIP3   OH243018   5.843   2.729   5.312  0.7387  0.2411  0.3902
 7176TIP3    H143019   5.938   2.724   5.320  0.8249  2.3090  1.4822
 7176TIP3    H243020   5.821   2.815   5.348 -1.3340  0.8447 -2.0623
 7177TIP3   OH243021   6.330   5.012  11.389  0.2399 -0.1456  0.4236
 7177TIP3    H143022   6.353   4.996  11.297 -0.7718 -0.2602  0.1865
 7177TIP3    H243023   6.235   5.017  11.390  0.2904  1.2085  1.2459
 7178TIP3   OH243024   5.455   0.608  13.282 -0.3422  0.8449 -0.4597
 7178TIP3    H143025   5.455   0.702  13.264  2.1733  0.9519 -0.3023
 7178TIP3    H243026   5.480   0.602  13.374 -2.4978  0.0160  0.1306
 7179TIP3   OH243027   4.799   3.503   2.893 -0.0124 -0.1368 -0.0598
 7179TIP3    H143028   4.863   3.463   2.952  1.1827  0.3075 -1.0097
 7179TIP3    H243029   4.738   3.549   2.952  1.2205  0.4087  0.8390
 7180TIP3   OH243030   4.512   2.930  12.700  0.2067 -0.0752 -0.2702
 7180TIP3    H143031   4.495   2.930  12.606 -2.1822 -2.4283  0.0568
 7180TIP3    H243032   4.427   2.946  12.740  1.6004  4.1709  1.6488
 7181TIP3   OH243033   2.444   0.308   5.191 -0.0553  0.2410 -0.0107
 7181TIP3    H143034   2.533   0.342   5.188 -0.5661  1.5818 -0.8296
 7181TIP3    H243035   2.395   0.363   5.130 -1.2298 -1.1310 -0.3651
 7182TIP3   OH243036   6.770   4.783  16.980 -0.2361  0.2833  0.0829
 7182TIP3    H143037   6.710   4.837  16.929  0.2842  0.5298 -0.2737
 7182TIP3    H243038   6.800   4.840  17.051  0.4216  0.5155 -0.3744
 7183TIP3   OH243039   4.571   4.664  11.618 -0.1501  0.2503  0.3814
 7183TIP3    H143040   4.563   4.744  11.672  0.3578  1.5549 -1.3878
 7183TIP3    H243041   4.546   4.692  11.530 -0.0162 -1.5909 -0.2859
 7184TIP3   OH243042   1.263   0.446  16.487  0.0168 -0.0533  0.1621
 7184TIP3    H143043   1.282   0.380  16.554  0.8769  2.1965  2.2710
 7184TIP3    H243044   1.230   0.395  16.413  1.1051 -2.8844  1.4591
 7185TIP3   OH243045   4.999   0.276   2.439 -0.2731 -0.4349  0.1231
 7185TIP3    H143046   5.006   0.345   2.373 -0.2630  0.7535  1.3289
 7185TIP3    H243047   4.972   0.198   2.390  1.3626 -0.0238 -1.5298
 7186TIP3   OH243048   5.576   5.924   5.767 -0.5833 -0.3560  0.5414
 7186TIP3    H143049   5.490   5.912   5.806 -1.4441 -0.7581 -1.3723
 7186TIP3    H243050   5.565   5.995   5.703  0.8805  0.6001  1.2750
 7187TIP3   OH243051   2.696   0.773   2.233  0.1100 -0.1453 -0.5422
 7187TIP3    H143052   2.662   0.808   2.150  0.7414 -0.3140 -0.8715
 7187TIP3    H243053   2.790   0.763   2.219  0.4551  1.0706  0.6226
 7188TIP3   OH243054   6.630   3.443  15.715 -0.0364 -0.0572 -0.0934
 7188TIP3    H143055   6.642   3.535  15.738  0.1411 -0.2782  0.7416
 7188TIP3    H243056   6.556   3.443  15.655 -0.4590  0.5740  0.4075
 7189TIP3   OH243057   6.260   1.372  15.951 -0.4516 -0.2501  0.4802
 7189TIP3    H143058   6.344   1.343  15.987  0.2267 -0.7443 -1.3753
 7189TIP3    H243059   6.215   1.411  16.025  0.9956 -0.8888  1.7685
 7190TIP3   OH243060   6.220   6.410  16.795  0.9375 -0.0388 -0.0855
 7190TIP3    H143061   6.301   6.436  16.839  0.7838 -0.0033  0.1806
 7190TIP3    H243062   6.186   6.339  16.849  1.5767 -1.1023 -1.0377
 7191TIP3   OH243063   5.718   5.616   5.798 -0.4094 -0.1903 -0.2676
 7191TIP3    H143064   5.665   5.695   5.788  0.6790  0.6908  0.5867
 7191TIP3    H243065   5.755   5.600   5.711 -1.2960 -0.2496 -0.6377
 7192TIP3   OH243066   3.068   5.928   4.288 -0.8109  0.1259 -0.3713
 7192TIP3    H143067   3.085   5.950   4.380  1.3382 -0.2318 -0.6185
 7192TIP3    H243068   3.025   6.005   4.252 -0.0054  1.0095  0.5105
 7193TIP3   OH243069   2.171   1.657  13.307  0.1454  0.5445  0.9633
 7193TIP3    H143070   2.230   1.722  13.343  1.5546  0.1482 -0.5333
 7193TIP3    H243071   2.146   1.603  13.383  0.8974  1.3151  1.7812
 7194TIP3   OH243072   2.061   3.608  13.339  0.1113 -0.1733 -0.5105
 7194TIP3    H143073   1.973   3.614  13.377  1.1301  0.7042  1.9154
 7194TIP3    H243074   2.078   3.514  13.331 -1.3529 -0.3624 -1.9321
 7195TIP3   OH243075   4.052   0.775  15.389 -0.5511 -0.4492 -0.3811
 7195TIP3    H143076   4.088   0.711  15.451 -0.7416 -0.7872 -0.6166
 7195TIP3    H243077   3.961   0.747  15.376 -1.2101  0.9300  0.9213
 7196TIP3   OH243078   6.684   3.274   3.490  0.3438  0.0029 -0.2373
 7196TIP3    H143079   6.654   3.362   3.467 -3.0154 -0.3056  2.2489
 7196TIP3    H243080   6.620   3.215   3.449  3.3441 -1.5868 -3.1251
 7197TIP3   OH243081   4.346   4.712  13.599  0.3530 -0.6738  0.3396
 7197TIP3    H143082   4.346   4.805  13.575  1.5975 -0.4595  1.0794
 7197TIP3    H243083   4.331   4.711  13.693  2.3546 -1.0689  0.6961
 7198TIP3   OH243084   4.222   5.775  15.857 -0.1198 -0.0463  0.1828
 7198TIP3    H143085   4.140   5.780  15.808 -0.2512 -0.2562  0.3776
 7198TIP3    H243086   4.244   5.866  15.876  0.0374  0.0494 -0.4389
 7199TIP3   OH243087   3.104   3.402   6.492  0.1899 -0.3164 -0.0689
 7199TIP3    H143088   3.173   3.380   6.554 -1.6072  1.8632  2.9555
 7199TIP3    H243089   3.036   3.336   6.508  1.2371 -2.2529 -2.7998
 7200TIP3   OH243090   4.273   6.198  13.738 -0.5276  0.6091 -0.1648
 7200TIP3    H143091   4.265   6.247  13.657 -0.1169  1.1447  0.1101
 7200TIP3    H243092   4.336   6.128  13.719  0.1475  1.1910 -0.0983
 7201TIP3   OH243093   0.528   6.189   1.142 -0.0526  0.0271  0.0466
 7201TIP3    H143094   0.493   6.176   1.054 -2.6178  0.1356  0.9657
 7201TIP3    H243095   0.503   6.111   1.190 -0.3362  0.7760  1.1508
 7202TIP3   OH243096   3.564   0.298   3.210  0.0050 -0.2422 -0.1212
 7202TIP3    H143097   3.601   0.349   3.283  1.5039  0.9175 -1.5923
 7202TIP3    H243098   3.477   0.335   3.196  0.1111  0.2248  0.4257
 7203TIP3   OH243099   5.834   6.440  13.198 -0.3054  0.1528 -0.0251
 7203TIP3    H143100   5.803   6.529  13.178 -2.0549 -0.2538  0.6268
 7203TIP3    H243101   5.904   6.453  13.262 -1.9331  1.0514  1.6949
 7204TIP3   OH243102   1.844   6.069   2.707 -0.1575 -0.1333  0.0867
 7204TIP3    H143103   1.790   6.143   2.737 -0.2928  0.3081 -1.1965
 7204TIP3    H243104   1.838   6.006   2.779  0.2013  1.2030  1.3558
 7205TIP3   OH243105   3.479   3.187   3.378  0.0528 -0.3216 -0.1881
 7205TIP3    H143106   3.459   3.147   3.294 -1.1315  1.4537 -0.8125
 7205TIP3    H243107   3.556   3.242   3.361  1.3175 -1.8053  0.5203
 7206TIP3   OH243108   4.308   0.907  12.910  0.1287  0.2665  0.3875
 7206TIP3    H143109   4.306   0.990  12.863  1.3729  0.3998  0.5352
 7206TIP3    H243110   4.217   0.877  12.910 -0.1011  0.8835 -0.9837
 7207TIP3   OH243111   2.622   3.420   5.143  0.2477 -0.3684 -0.4788
 7207TIP3    H143112   2.714   3.406   5.118  0.6039 -0.3605  0.7643
 7207TIP3    H243113   2.623   3.417   5.239 -1.3446 -2.2412 -0.4633
 7208TIP3   OH243114   3.479   6.456  12.374 -0.2524 -0.0567  0.2422
 7208TIP3    H143115   3.460   6.465  12.281 -0.5482 -0.6437  0.2404
 7208TIP3    H243116   3.574   6.467  12.381 -0.2072 -0.2178 -0.1493
 7209TIP3   OH243117   2.044   0.412   4.205 -0.4716 -0.0131  0.1816
 7209TIP3    H143118   2.106   0.466   4.157  0.0743  0.6907  1.6159
 7209TIP3    H243119   2.017   0.344   4.143  1.1544  0.1147 -0.6993
 7210TIP3   OH243120   1.525   4.809   3.161  0.2760 -0.2218 -0.1333
 7210TIP3    H143121   1.530   4.845   3.250 -1.2567  1.0981 -0.5348
 7210TIP3    H243122   1.551   4.718   3.171  1.1638  0.1638  1.4926
 7211TIP3   OH243123   6.019   1.335   0.112  0.1687  0.5969  0.1493
 7211TIP3    H143124   5.992   1.269   0.048  1.4153  0.9879 -0.8188
 7211TIP3    H243125   6.104   1.366   0.080 -0.4879  2.8489  0.4353
 7212TIP3   OH243126   4.767   4.622  14.116  0.2848  0.1410  0.1948
 7212TIP3    H143127   4.838   4.598  14.175 -0.2086 -0.1534  0.6713
 7212TIP3    H243128   4.791   4.580  14.033  1.8393  1.9235 -0.3337
 7213TIP3   OH243129   4.698   3.509   1.744  0.0491 -0.2000  0.0142
 7213TIP3    H143130   4.645   3.584   1.718 -1.3997 -1.6935 -1.6152
 7213TIP3    H243131   4.756   3.543   1.812 -0.3093  2.4493 -0.8937
 7214TIP3   OH243132   0.088   1.643   4.238  0.0246  0.1137  0.0814
 7214TIP3    H143133   0.163   1.643   4.178  1.6100  0.2229  1.9932
 7214TIP3    H243134   0.069   1.550   4.252 -1.7342  0.0356 -2.1178
 7215TIP3   OH243135   3.871   2.284  17.175  0.2330 -0.2577 -0.4479
 7215TIP3    H143136   3.954   2.281  17.222  0.5984 -1.1782 -1.0972
 7215TIP3    H243137   3.879   2.359  17.116  1.2215 -1.1823 -1.5471
 7216TIP3   OH243138   1.881   5.622   3.460 -0.4911  0.0628  0.6570
 7216TIP3    H143139   1.880   5.575   3.377  2.3305  1.2904 -0.1815
 7216TIP3    H243140   1.796   5.665   3.465 -0.4064  0.7056 -2.0778
 7217TIP3   OH243141   6.514   2.948   3.046 -0.0716 -0.2329 -0.2574
 7217TIP3    H143142   6.537   3.011   3.114  0.6339 -1.4524  0.6898
 7217TIP3    H243143   6.594   2.898   3.031 -1.4748 -3.5233  1.9384
 7218TIP3   OH243144   4.546   0.944  15.712  0.6723 -0.0245  0.1778
 7218TIP3    H143145   4.454   0.936  15.685  0.6973 -0.5305  0.2293
 7218TIP3    H243146   4.595   0.903  15.642  0.8515  0.1363  0.2097
 7219TIP3   OH243147   5.742   4.163  13.085  0.3838  0.0600  0.2796
 7219TIP3    H143148   5.775   4.075  13.068 -0.4800 -0.2521  0.1768
 7219TIP3    H243149   5.654   4.163  13.049 -0.3964  0.3289  2.1197
 7220TIP3   OH243150   6.104   1.288   1.768 -0.6402 -0.0737 -0.2232
 7220TIP3    H143151   6.058   1.316   1.847  1.6622 -0.3276  1.2910
 7220TIP3    H243152   6.055   1.211   1.738 -0.8951 -0.6798  1.6379
 7221TIP3   OH243153   0.290   5.496  15.013 -0.3608  0.4170  0.2684
 7221TIP3    H143154   0.320   5.523  14.926 -2.5367 -1.5199 -1.2300
 7221TIP3    H243155   0.257   5.576  15.053  2.0383  1.6317 -0.0042
 7222TIP3   OH243156   4.975   4.301  16.033  0.2424 -0.0831  0.4115
 7222TIP3    H143157   4.957   4.375  15.975  1.5547 -0.3968 -0.4405
 7222TIP3    H243158   5.026   4.339  16.105  0.4089 -0.0584  0.2803
 7223TIP3   OH243159   0.831   3.509   6.001 -0.0383  0.3535  0.6335
 7223TIP3    H143160   0.912   3.530   6.048 -0.3239  0.7671  0.9322
 7223TIP3    H243161   0.764   3.503   6.068 -0.3726  0.5657  0.3221
 7224TIP3   OH243162   4.607   6.099   2.851  0.5717 -0.3156  0.2628
 7224TIP3    H143163   4.617   6.039   2.777 -1.0376 -2.2824  1.5357
 7224TIP3    H243164   4.541   6.162   2.822 -1.7338 -2.4000  0.6993
 7225TIP3   OH243165   0.762   2.645   4.472 -0.4923  0.3234 -0.2928
 7225TIP3    H143166   0.703   2.589   4.420  1.0476 -0.4684 -1.2536
 7225TIP3    H243167   0.703   2.703   4.520 -2.1335 -1.4961  0.0334
 7226TIP3   OH243168   6.684   2.672  15.494  0.0244  0.1388 -0.0303
 7226TIP3    H143169   6.673   2.602  15.558  1.1820 -1.4148 -1.4521
 7226TIP3    H243170   6.779   2.683  15.486 -0.1263  2.5154  0.7896
 7227TIP3   OH243171   6.249   0.823  12.634  0.0175  0.5983 -0.2306
 7227TIP3    H143172   6.337   0.820  12.671 -0.7029 -1.5630  1.5466
 7227TIP3    H243173   6.263   0.825  12.539  1.9373  1.6427  0.0243
 7228TIP3   OH243174   6.075   6.605  16.693 -0.4232  0.1478  0.0978
 7228TIP3    H143175   6.096   6.630  16.604  0.6243  1.2938  0.6403
 7228TIP3    H243176   6.144   6.544  16.718 -0.1818  0.5548  0.4335
 7229TIP3   OH243177   4.700   4.881   1.162 -0.0002 -0.1923 -0.0270
 7229TIP3    H143178   4.750   4.821   1.106 -0.3606  0.4146 -1.0230
 7229TIP3    H243179   4.678   4.954   1.105  1.6264  1.6094  1.5286
 7230TIP3   OH243180   5.829   5.558   4.246  0.2852  0.7263  1.2011
 7230TIP3    H143181   5.752   5.519   4.288  0.6872  0.1283  1.3944
 7230TIP3    H243182   5.797   5.640   4.209 -0.9986 -0.5364 -0.6593
 7231TIP3   OH243183   3.175   2.934  13.530 -0.1979 -0.4491  0.1014
 7231TIP3    H143184   3.197   3.010  13.476  1.1435 -1.0727 -0.2795
 7231TIP3    H243185   3.099   2.961  13.581  0.8733  1.5029  0.7291
 7232TIP3   OH243186   6.448   2.571  12.235  0.1881 -0.7484  0.1498
 7232TIP3    H143187   6.520   2.510  12.220 -0.3561 -1.5494  0.7112
 7232TIP3    H243188   6.482   2.635  12.297  0.5731 -0.8316  0.0230
 7233TIP3   OH243189   4.558   3.532  17.205 -0.8010  0.0275  0.3084
 7233TIP3    H143190   4.623   3.522  17.275 -1.0137  0.0088  0.5042
 7233TIP3    H243191   4.597   3.596  17.146  0.1637 -1.2403 -0.4870
 7234TIP3   OH243192   6.290   3.986   0.460  0.1966 -0.4408  0.7061
 7234TIP3    H143193   6.236   3.907   0.460 -1.0728  0.1645 -3.3713
 7234TIP3    H243194   6.232   4.055   0.492 -0.7489 -0.2366 -1.2959
 7235TIP3   OH243195   0.220   1.844  12.173  0.4078 -0.0622  0.1891
 7235TIP3    H143196   0.133   1.878  12.152  0.4751 -0.8756 -1.6450
 7235TIP3    H243197   0.209   1.803  12.258 -1.4340 -1.4758 -0.6443
 7236TIP3   OH243198   0.167   3.111   5.429 -0.3219  0.2389 -0.2943
 7236TIP3    H143199   0.253   3.105   5.471 -1.4722 -0.3821  2.1678
 7236TIP3    H243200   0.126   3.025   5.445 -2.1723  1.2004  0.5218
 7237TIP3   OH243201   2.736   4.212   2.851  0.1227  0.0745  0.0001
 7237TIP3    H143202   2.781   4.177   2.775 -0.6539 -0.3404 -0.2739
 7237TIP3    H243203   2.643   4.198   2.834 -0.0081 -2.3485  2.1368
 7238TIP3   OH243204   4.476   5.286  11.544 -0.5231  0.4643 -0.2987
 7238TIP3    H143205   4.540   5.227  11.584 -1.8396 -0.9359 -0.1231
 7238TIP3    H243206   4.509   5.374  11.562  1.2505 -0.1952 -0.1104
 7239TIP3   OH243207   6.199   1.438   2.547 -0.0437  0.1283  0.0910
 7239TIP3    H143208   6.239   1.401   2.626  0.2681 -2.0097 -1.0021
 7239TIP3    H243209   6.273   1.454   2.489 -0.4849 -0.8652 -0.7633
 7240TIP3   OH243210   5.518   5.381   4.011  0.5796 -0.4976  0.0349
 7240TIP3    H143211   5.595   5.325   3.999  0.5785 -0.2125 -1.5736
 7240TIP3    H243212   5.473   5.344   4.087  2.1873 -0.7848  0.8947
 7241TIP3   OH243213   1.973   1.649  14.907 -0.2407 -0.4337  0.1917
 7241TIP3    H143214   2.048   1.590  14.899 -0.3916 -0.6480  0.3457
 7241TIP3    H243215   1.959   1.682  14.818  0.4493  0.1203  0.2859
 7242TIP3   OH243216   6.340   5.729  14.414 -0.2588  0.0950 -0.0729
 7242TIP3    H143217   6.363   5.814  14.450 -0.4821 -0.3580  1.2028
 7242TIP3    H243218   6.411   5.708  14.353  0.1336  0.8941  0.0995
 7243TIP3   OH243219   2.568   5.219  12.514 -0.1000  0.2223  0.1832
 7243TIP3    H143220   2.529   5.167  12.584  1.7870  0.3321  1.3862
 7243TIP3    H243221   2.604   5.154  12.453 -1.6393  0.1278 -0.6672
 7244TIP3   OH243222   4.478   3.795   1.835  0.6170 -0.0582 -0.5958
 7244TIP3    H143223   4.412   3.730   1.861  0.4931  0.6326  0.8860
 7244TIP3    H243224   4.558   3.767   1.879  0.3552  1.2431  0.7932
 7245TIP3   OH243225   6.256   6.795   0.558  0.2512 -0.0328  0.8250
 7245TIP3    H143226   6.168   6.769   0.584  0.5047 -0.7126  1.0281
 7245TIP3    H243227   6.244   6.846   0.478 -0.1952 -1.9156 -0.3853
 7246TIP3   OH243228   4.750   5.209  12.550 -0.2434  0.1461 -0.2464
 7246TIP3    H143229   4.802   5.205  12.630 -0.7775  0.5674  0.1265
 7246TIP3    H243230   4.664   5.175  12.576 -0.0662 -0.8846 -0.9405
 7247TIP3   OH243231   5.994   3.240  16.648 -0.3934 -0.2185  0.2140
 7247TIP3    H143232   6.071   3.293  16.628 -1.1699  1.3805  1.2191
 7247TIP3    H243233   5.929   3.303  16.680 -2.8761 -1.1846 -2.4836
 7248TIP3   OH243234   0.008   4.586   4.204  0.1077 -0.1915  0.3424
 7248TIP3    H143235   0.058   4.615   4.280  3.0422  1.6175 -2.0629
 7248TIP3    H243236  -0.034   4.665   4.171 -1.1076 -0.9410  0.0098
 7249TIP3   OH243237   0.968   0.931  11.491 -0.4956 -0.6417 -0.0827
 7249TIP3    H143238   0.904   0.891  11.550 -1.0045 -1.6636 -1.2834
 7249TIP3    H243239   0.942   0.901  11.404  0.2240  0.8442 -0.8388
 7250TIP3   OH243240   2.983   1.093  16.124 -0.4449  0.0289 -0.4255
 7250TIP3    H143241   3.047   1.136  16.181 -1.5855 -0.8100  1.5978
 7250TIP3    H243242   2.985   1.001  16.151 -2.4599 -0.0216 -0.3285
 7251TIP3   OH243243   5.620   1.298  14.980 -0.0701 -0.0854 -0.0414
 7251TIP3    H143244   5.606   1.392  14.983  0.0808  0.0529 -2.1736
 7251TIP3    H243245   5.555   1.266  14.917  0.6778 -1.2305 -0.2678
 7252TIP3   OH243246   6.694   4.475   2.155 -0.1000  0.1948 -0.7190
 7252TIP3    H143247   6.653   4.558   2.178  0.1854  0.8171 -2.3591
 7252TIP3    H243248   6.620   4.416   2.137 -0.2901  0.3943 -0.5977
 7253TIP3   OH243249   5.094   4.632   1.825 -0.0104 -0.0725  0.6470
 7253TIP3    H143250   5.180   4.599   1.801 -0.0989 -1.3854  2.0120
 7253TIP3    H243251   5.032   4.579   1.775 -0.0668  0.3222  0.2879
 7254TIP3   OH243252   5.888   1.239   4.992 -0.6735 -0.1074 -0.0163
 7254TIP3    H143253   5.939   1.319   4.978 -0.5836 -0.2257 -0.3674
 7254TIP3    H243254   5.934   1.172   4.942 -0.5300 -0.4690  0.5912
 7255TIP3   OH243255   6.036   6.810  11.712  0.3043  0.5576  0.8346
 7255TIP3    H143256   6.119   6.856  11.722  1.5935 -1.6983  0.9899
 7255TIP3    H243257   6.049   6.753  11.637 -2.0365  1.9710 -0.7995
 7256TIP3   OH243258   0.637   2.291  16.605  0.1123 -0.5936  0.3412
 7256TIP3    H143259   0.712   2.257  16.557 -0.0839 -0.4715 -0.0556
 7256TIP3    H243260   0.633   2.238  16.685  0.6251 -0.5901  0.3683
 7257TIP3   OH243261   1.377   2.230  16.011 -0.2783 -0.0914  0.1033
 7257TIP3    H143262   1.367   2.136  15.996  2.4865 -0.2129 -1.5442
 7257TIP3    H243263   1.466   2.239  16.045 -0.4990  1.9447  0.2147
 7258TIP3   OH243264   3.773   4.022   0.703 -0.0966 -0.3692 -0.0434
 7258TIP3    H143265   3.748   4.052   0.790 -1.2975  2.4126 -1.2227
 7258TIP3    H243266   3.710   3.953   0.683 -2.0152  1.2352  0.0945
 7259TIP3   OH243267   1.493   3.367   5.435  0.1461  0.4157  0.0772
 7259TIP3    H143268   1.485   3.272   5.444 -0.2865  0.3854 -0.5518
 7259TIP3    H243269   1.586   3.382   5.418  0.0912  0.0388 -0.5616
 7260TIP3   OH243270   6.180   2.584  16.309  0.1236  0.6915  0.2976
 7260TIP3    H143271   6.244   2.655  16.314  1.8583 -0.7587 -0.2846
 7260TIP3    H243272   6.199   2.529  16.385 -0.3035  0.1284  0.0055
 7261TIP3   OH243273   0.899   5.392  11.354 -0.2732 -0.5333  0.5539
 7261TIP3    H143274   0.865   5.320  11.302  0.5741  0.1890 -1.0766
 7261TIP3    H243275   0.887   5.469  11.299  0.9312  0.2309  1.3029
 7262TIP3   OH243276   4.606   6.278   5.878  0.2733 -0.3808 -0.1107
 7262TIP3    H143277   4.622   6.372   5.867  4.0243 -0.7487  0.9208
 7262TIP3    H243278   4.652   6.255   5.959 -1.7321 -2.9250  0.4594
 7263TIP3   OH243279   2.213   4.187   2.254  0.0221  0.2982  0.2162
 7263TIP3    H143280   2.299   4.216   2.224 -0.5562  0.9782 -0.8760
 7263TIP3    H243281   2.180   4.132   2.182  0.0062 -0.9049  1.1234
 7264TIP3   OH243282   0.936   0.535   4.822  0.1672 -0.0533 -0.8375
 7264TIP3    H143283   0.981   0.582   4.752 -0.4594  0.1353 -1.1134
 7264TIP3    H243284   1.005   0.483   4.864  0.6599  0.3048 -1.1974
 7265TIP3   OH243285   0.201   6.154   2.247  0.3502 -0.1031  0.2297
 7265TIP3    H143286   0.190   6.132   2.155 -1.2309 -0.0195  0.3652
 7265TIP3    H243287   0.187   6.072   2.294 -1.1152  0.2571  0.4876
 7266TIP3   OH243288   3.281   0.825  16.316  1.0066 -0.4217 -0.4016
 7266TIP3    H143289   3.232   0.762  16.369  0.7737 -0.1247 -0.2697
 7266TIP3    H243290   3.267   0.909  16.358 -0.0771  0.0019 -1.5422
 7267TIP3   OH243291   4.649   0.029  14.630  0.1173  0.2954 -0.2972
 7267TIP3    H143292   4.677  -0.016  14.550 -2.1877  1.0607 -1.6237
 7267TIP3    H243293   4.603   0.107  14.599 -1.0921  0.4702  1.7605
 7268TIP3   OH243294   1.999   0.960   1.343  0.2317  0.0693 -0.1045
 7268TIP3    H143295   2.068   0.979   1.406  0.8078  0.9352 -0.9657
 7268TIP3    H243296   1.949   0.888   1.382  0.5810  0.5702  1.3147
 7269TIP3   OH243297   2.257   2.569  14.520 -0.5752 -0.3073  0.1667
 7269TIP3    H143298   2.331   2.536  14.570  0.5760 -1.2654 -2.0768
 7269TIP3    H243299   2.260   2.522  14.437 -2.2475  1.3935 -0.9489
 7270TIP3   OH243300   4.366   6.669   4.470 -0.4720  0.1033 -0.3408
 7270TIP3    H143301   4.297   6.698   4.411 -1.1876 -1.5381 -0.3729
 7270TIP3    H243302   4.333   6.690   4.558 -0.8893 -0.3864 -0.3734
 7271TIP3   OH243303   2.924   0.264   5.821  0.2034  0.3389  0.6780
 7271TIP3    H143304   2.978   0.343   5.825 -1.3833  1.6604 -1.5293
 7271TIP3    H243305   2.945   0.225   5.736 -0.2881 -0.6881  1.0119
 7272TIP3   OH243306   4.179   2.912   4.097  0.1292  0.1522  0.5658
 7272TIP3    H143307   4.085   2.911   4.117  0.0573  0.1625  0.2370
 7272TIP3    H243308   4.183   2.922   4.002  0.4657  0.4338  0.6071
 7273TIP3   OH243309   4.216   0.686  17.062 -0.1720  0.5000  0.2426
 7273TIP3    H143310   4.213   0.610  17.120 -3.6298  1.4870  1.5946
 7273TIP3    H243311   4.279   0.745  17.103  0.7212 -0.6295  0.5264
 7274TIP3   OH243312   1.264   1.865   4.810 -0.5291 -0.1145 -0.0622
 7274TIP3    H143313   1.256   1.770   4.799 -0.6435 -0.0628 -0.4337
 7274TIP3    H243314   1.184   1.891   4.855 -1.0034 -0.0457 -0.9260
 7275TIP3   OH243315   4.868   1.442   0.498 -0.1131 -1.0969 -0.3219
 7275TIP3    H143316   4.828   1.407   0.419  0.7407 -2.5976 -0.1147
 7275TIP3    H243317   4.870   1.369   0.559 -1.4632  0.2197  1.4131
 7276TIP3   OH243318   2.846   1.246   1.970  0.0901 -0.5570 -0.5206
 7276TIP3    H143319   2.769   1.211   1.924 -0.9010  0.2283  0.5012
 7276TIP3    H243320   2.865   1.181   2.038 -0.3939 -0.1881 -0.0293
 7277TIP3   OH243321   0.816   6.226   4.421 -0.3625 -0.4098 -0.8070
 7277TIP3    H143322   0.811   6.183   4.335 -0.6081 -1.4214 -0.2961
 7277TIP3    H243323   0.756   6.300   4.413 -0.2552 -0.3894 -1.5603
 7278TIP3   OH243324   3.005   3.780   2.012 -0.3459  0.2367 -0.3805
 7278TIP3    H143325   3.058   3.841   2.063 -0.1630 -1.2164  1.2348
 7278TIP3    H243326   2.994   3.704   2.068 -2.2375 -0.4484 -1.5715
 7279TIP3   OH243327   5.073   2.658  16.847  0.1730 -0.5005 -0.0203
 7279TIP3    H143328   5.107   2.710  16.774  0.9304 -1.4378 -0.3589
 7279TIP3    H243329   4.992   2.620  16.814  0.1585 -0.3716 -0.1347
 7280TIP3   OH243330   1.978   2.420  11.306  0.3911 -0.7034  0.0978
 7280TIP3    H143331   1.967   2.493  11.246 -0.5265 -1.6277 -0.9121
 7280TIP3    H243332   1.893   2.412  11.350  0.6067 -0.9185  0.4806
 7281TIP3   OH243333   5.578   5.218  14.267  0.2480 -0.0529  0.0279
 7281TIP3    H143334   5.648   5.278  14.239  0.0304 -0.6489 -1.9917
 7281TIP3    H243335   5.513   5.275  14.309  0.7229  0.9225 -0.5221
 7282TIP3   OH243336   6.612   4.187   2.000 -0.4009 -0.4352 -0.2338
 7282TIP3    H143337   6.545   4.218   2.060 -1.1939  0.3741 -1.4920
 7282TIP3    H243338   6.588   4.096   1.982 -0.5043 -0.4949  0.1894
 7283TIP3   OH243339   0.393   4.667  15.165 -0.0157  0.3341  0.4515
 7283TIP3    H143340   0.360   4.577  15.155  0.3780  0.1583  0.6790
 7283TIP3    H243341   0.373   4.710  15.082  0.5781 -0.2264  0.0081
 7284TIP3   OH243342   0.736   4.110  11.281  0.2301  0.2698  1.0938
 7284TIP3    H143343   0.773   4.037  11.232 -0.2950 -0.2091  1.3934
 7284TIP3    H243344   0.784   4.187  11.250 -1.2388  0.2611 -1.4851
 7285TIP3   OH243345   4.421   1.708   5.892 -0.0506  0.1316 -0.1327
 7285TIP3    H143346   4.410   1.799   5.921  0.2863 -0.4704  2.0732
 7285TIP3    H243347   4.343   1.663   5.923  0.6924 -0.7057  0.5900
 7286TIP3   OH243348   6.793   3.417   2.733  0.5993 -0.0885  0.4653
 7286TIP3    H143349   6.729   3.457   2.674  1.7842  3.4880  1.3274
 7286TIP3    H243350   6.754   3.334   2.759 -3.1089  1.3381  0.0140
 7287TIP3   OH243351   5.190   4.046   3.995  0.0877  0.6404 -0.3024
 7287TIP3    H143352   5.160   3.964   3.956  1.4456  0.0219 -0.0746
 7287TIP3    H243353   5.219   4.022   4.083  0.6315  1.3360 -0.2865
 7288TIP3   OH243354   5.797   4.741   5.922 -0.7198  0.1023  0.5742
 7288TIP3    H143355   5.705   4.744   5.948 -0.8105 -0.3285  0.3209
 7288TIP3    H243356   5.802   4.668   5.860  0.0707 -0.7955  1.6490
 7289TIP3   OH243357   6.711   1.065   6.468 -0.1491 -0.2017  0.2011
 7289TIP3    H143358   6.662   1.145   6.451 -1.1368 -1.1176 -1.4523
 7289TIP3    H243359   6.646   1.004   6.503  0.2599 -0.7844 -0.0390
 7290TIP3   OH243360   3.362   4.790  12.629 -0.6171 -0.0476  0.0835
 7290TIP3    H143361   3.372   4.743  12.712 -1.5960  1.1535  0.9011
 7290TIP3    H243362   3.267   4.791  12.613 -0.6639  1.9724  0.2937
 7291TIP3   OH243363   4.905   3.062  14.849  0.1322 -0.1522 -0.3653
 7291TIP3    H143364   4.822   3.015  14.853  0.1623 -0.3945 -1.7744
 7291TIP3    H243365   4.920   3.074  14.755  2.4754 -1.5293 -0.2396
 7292TIP3   OH243366   3.591   1.628  13.868 -0.1962  0.1571  0.8259
 7292TIP3    H143367   3.548   1.679  13.799  0.1339  0.5589  0.9126
 7292TIP3    H243368   3.520   1.600  13.925 -0.3750  0.6055  0.8281
 7293TIP3   OH243369   5.807   4.342   6.429 -0.3702  0.0579 -0.1427
 7293TIP3    H143370   5.832   4.256   6.396 -0.8252  0.1863 -0.8438
 7293TIP3    H243371   5.826   4.338   6.523 -0.5899 -0.8797 -0.1239
 7294TIP3   OH243372   5.773   2.770   0.627 -0.3083 -0.6029  0.0324
 7294TIP3    H143373   5.754   2.836   0.693  0.3443  1.2863 -1.5530
 7294TIP3    H243374   5.734   2.805   0.546  2.2307 -0.8344 -1.4040
 7295TIP3   OH243375   6.337   6.627  16.031  0.1653 -0.6051 -0.1275
 7295TIP3    H143376   6.399   6.623  16.104 -1.6480  0.4700  1.5790
 7295TIP3    H243377   6.357   6.710  15.988 -1.6126  1.0609  2.0078
 7296TIP3   OH243378   1.048   6.040  11.112 -0.0813 -0.0109 -0.4120
 7296TIP3    H143379   1.073   5.951  11.137 -1.8274 -0.1511  1.0261
 7296TIP3    H243380   1.034   6.036  11.018  0.3926 -1.1104 -0.4468
 7297TIP3   OH243381   2.935   4.479  13.986  0.2108  0.1098 -0.2327
 7297TIP3    H143382   2.858   4.431  14.017 -0.1055  1.1341  0.6312
 7297TIP3    H243383   2.969   4.523  14.063  1.2615  0.2388 -0.7537
 7298TIP3   OH243384   0.681   6.795  16.597  0.0367 -0.1416  0.6235
 7298TIP3    H143385   0.729   6.877  16.608 -0.3150  0.1644 -0.0268
 7298TIP3    H243386   0.591   6.822  16.580 -0.3414 -0.6997  1.6551
 7299TIP3   OH243387   5.353   3.911   3.277 -0.4246 -0.3095 -0.1509
 7299TIP3    H143388   5.344   3.846   3.346  1.5523 -1.0969 -0.5600
 7299TIP3    H243389   5.371   3.860   3.198  0.7683  0.6844 -0.5631
 7300TIP3   OH243390   2.842   1.881  17.272  0.3416 -0.0609 -0.6171
 7300TIP3    H143391   2.866   1.959  17.222  0.1880  0.2994 -0.1430
 7300TIP3    H243392   2.914   1.820  17.256  0.4141  0.1393 -1.0768
 7301TIP3   OH243393   4.416   6.588  11.998 -0.2676  0.5576 -0.0778
 7301TIP3    H143394   4.387   6.497  12.009  1.7678 -0.1137  0.0741
 7301TIP3    H243395   4.341   6.632  11.957 -1.0172 -1.3681 -0.8990
 7302TIP3   OH243396   3.961   5.059  12.106  0.1455 -0.1035  0.9277
 7302TIP3    H143397   3.964   5.131  12.168  0.0930 -0.3658  1.2364
 7302TIP3    H243398   3.896   4.999  12.142  0.5119 -0.5170  0.9090
 7303TIP3   OH243399   6.336   1.227  14.295 -0.5590 -0.4192  0.7425
 7303TIP3    H143400   6.330   1.318  14.268  1.9614  0.1703  1.8209
 7303TIP3    H243401   6.246   1.194  14.291 -1.0775  0.8815 -3.5688
 7304TIP3   OH243402   4.067   2.461  15.019 -0.7500  0.4858 -0.5237
 7304TIP3    H143403   4.133   2.396  15.042 -1.5814 -0.7980 -1.6210
 7304TIP3    H243404   4.105   2.544  15.047  2.3410  0.1155 -3.0455
 7305TIP3   OH243405   4.817   1.133  13.046  0.1213  0.6274  0.2493
 7305TIP3    H143406   4.801   1.187  13.124 -0.0614 -1.3559  1.6689
 7305TIP3    H243407   4.730   1.111  13.014  0.1923  0.8324 -0.0934
 7306TIP3   OH243408   0.669   1.565  14.953  0.1624  0.1830 -0.0928
 7306TIP3    H143409   0.707   1.477  14.959  0.1815  0.0978 -1.3901
 7306TIP3    H243410   0.581   1.555  14.991  0.2141 -0.3575 -0.1078
 7307TIP3   OH243411   3.198   4.458   3.550 -0.0091 -0.1307 -0.0572
 7307TIP3    H143412   3.260   4.530   3.547  0.0936 -0.2251 -0.2530
 7307TIP3    H243413   3.123   4.492   3.599 -0.5613  0.5900 -1.3629
 7308TIP3   OH243414   3.858   5.396  14.497 -0.3841  0.2497 -0.2056
 7308TIP3    H143415   3.818   5.472  14.454  0.1142  0.6212 -0.0233
 7308TIP3    H243416   3.952   5.413  14.494  0.0816 -2.0955 -3.4421
 7309TIP3   OH243417   1.661   2.941   0.769 -0.0159  0.7172 -0.4790
 7309TIP3    H143418   1.585   2.941   0.827  1.0532  0.2540  0.9963
 7309TIP3    H243419   1.640   2.877   0.701  0.5728 -2.4622  2.1001
 7310TIP3   OH243420   5.512   2.979   5.529 -0.0090 -0.4310  0.0610
 7310TIP3    H143421   5.439   2.919   5.512 -0.1384 -0.4457  0.6659
 7310TIP3    H243422   5.583   2.922   5.560  0.4389 -0.4857 -0.9995
 7311TIP3   OH243423   3.826   6.739   1.259 -0.2882 -0.0307  0.2146
 7311TIP3    H143424   3.850   6.728   1.351  0.6610  2.0172  0.2643
 7311TIP3    H243425   3.907   6.722   1.210 -0.4846  0.0687 -0.1509
 7312TIP3   OH243426   5.547   0.824   2.686  0.2285 -0.0921 -0.2766
 7312TIP3    H143427   5.604   0.757   2.725  0.5537  0.9091  1.0425
 7312TIP3    H243428   5.474   0.774   2.649  2.3713 -1.5510 -3.0051
 7313TIP3   OH243429   1.585   2.651  12.844  0.3403 -0.0525  0.1292
 7313TIP3    H143430   1.640   2.709  12.791 -0.5193  1.4202  0.7794
 7313TIP3    H243431   1.623   2.656  12.932 -0.3979  0.4473  0.4329
 7314TIP3   OH243432   0.177   4.368   3.167  0.6364  0.6298 -0.8686
 7314TIP3    H143433   0.112   4.432   3.194  0.1628 -1.5299  4.0952
 7314TIP3    H243434   0.126   4.294   3.134  0.6373 -0.0424  0.5639
 7315TIP3   OH243435   6.016   0.647  16.226 -0.8492  0.1902  0.4023
 7315TIP3    H143436   5.986   0.736  16.208 -0.0441  0.1420 -1.3871
 7315TIP3    H243437   5.945   0.607  16.276 -1.8607  1.3904 -0.0212
 7316TIP3   OH243438   1.710   5.387   2.278  0.0307 -0.4961 -0.1483
 7316TIP3    H143439   1.743   5.416   2.364  1.6004 -0.6414 -0.6655
 7316TIP3    H243440   1.765   5.433   2.215 -1.0266 -0.4852 -1.0923
 7317TIP3   OH243441   2.048   4.996  13.884  0.4239  0.6570 -0.4326
 7317TIP3    H143442   2.014   4.984  13.796  0.2823  2.3859 -0.6412
 7317TIP3    H243443   1.995   4.938  13.938 -0.8740  1.0808 -1.1950
 7318TIP3   OH243444   3.513   1.294  12.693 -0.2059  0.0341 -0.6211
 7318TIP3    H143445   3.523   1.357  12.621 -0.0304  0.0093 -0.6179
 7318TIP3    H243446   3.457   1.225  12.656 -0.0084 -0.0447 -0.7766
 7319TIP3   OH243447   2.100   5.891   0.539  0.2939 -0.2775 -0.0875
 7319TIP3    H143448   2.042   5.856   0.607 -1.2682 -0.4119 -1.4202
 7319TIP3    H243449   2.186   5.892   0.580 -0.1104 -2.7599  1.0651
 7320TIP3   OH243450   0.911   1.945  17.053  0.0154  0.3868 -0.2220
 7320TIP3    H143451   0.874   1.874  17.105  1.4160  0.8300  1.4720
 7320TIP3    H243452   0.858   1.946  16.973 -3.6205  0.9953  1.9555
 7321TIP3   OH243453   2.727   6.703   0.703 -0.7453 -0.2790 -0.5466
 7321TIP3    H143454   2.812   6.740   0.726 -0.8852  0.3736 -1.0553
 7321TIP3    H243455   2.724   6.619   0.750 -0.3176  0.2221  0.4001
 7322TIP3   OH243456   1.562   1.190   2.814 -0.0370 -0.3183  0.3409
 7322TIP3    H143457   1.614   1.255   2.767 -0.6806  0.6277  0.9254
 7322TIP3    H243458   1.593   1.106   2.779 -0.5979  0.3345 -1.8954
 7323TIP3   OH243459   4.926   2.463  12.493  0.0258  0.3276 -0.2264
 7323TIP3    H143460   4.913   2.453  12.587 -0.6325  0.9045 -0.2470
 7323TIP3    H243461   4.985   2.391  12.469  1.6585  1.2108  0.9153
 7324TIP3   OH243462   4.271   6.574   4.991 -0.3368 -0.3705  0.1649
 7324TIP3    H143463   4.214   6.510   5.035 -0.2092 -0.2752  0.4731
 7324TIP3    H243464   4.359   6.541   5.007  0.0550  1.7923  3.5849
 7325TIP3   OH243465   1.733   5.714   0.888 -0.3282 -0.3464  0.0889
 7325TIP3    H143466   1.747   5.751   0.975 -0.6444 -0.9254  0.3917
 7325TIP3    H243467   1.684   5.782   0.841 -0.0644  0.0132  0.3248
 7326TIP3   OH243468   2.881   4.429  14.458 -0.6490 -0.3692 -0.3916
 7326TIP3    H143469   2.903   4.362  14.393  1.0427 -0.3776  0.1625
 7326TIP3    H243470   2.825   4.490  14.410  0.4909 -0.4235 -1.8532
 7327TIP3   OH243471   3.276   2.401   1.984  0.6084 -0.1968  0.1510
 7327TIP3    H143472   3.245   2.376   2.071  1.0794  0.5716  0.5478
 7327TIP3    H243473   3.198   2.394   1.928  0.5040 -1.5807  0.4324
 7328TIP3   OH243474   0.258   2.690   0.879 -0.6128  0.1939 -0.0343
 7328TIP3    H143475   0.227   2.635   0.807 -0.9461  0.7571 -0.3252
 7328TIP3    H243476   0.179   2.715   0.926 -0.4839  0.5918 -0.0240
 7329TIP3   OH243477   0.958   1.561   4.916  0.6718 -0.4853  0.0132
 7329TIP3    H143478   0.946   1.639   4.862 -0.5057  0.4450  1.5259
 7329TIP3    H243479   0.886   1.503   4.891  1.0045 -0.7009 -0.4562
 7330TIP3   OH243480   0.782   0.585  16.029  0.0297 -0.4880  0.3235
 7330TIP3    H143481   0.860   0.621  16.071  0.1226  0.5747 -0.6967
 7330TIP3    H243482   0.734   0.542  16.099  0.5122  0.6397  1.3710
 7331TIP3   OH243483   3.493   0.255  11.928  0.3223  0.0825 -0.1361
 7331TIP3    H143484   3.469   0.346  11.949  0.4789  0.0929  0.0027
 7331TIP3    H243485   3.538   0.261  11.844  1.8156  0.3613  0.6433
 7332TIP3   OH243486   5.394   3.774  16.543  0.3880 -0.3879  0.4358
 7332TIP3    H143487   5.312   3.822  16.529  1.6379  2.5583  2.2709
 7332TIP3    H243488   5.366   3.684  16.560 -2.1785 -0.2626 -2.2616
 7333TIP3   OH243489   4.645   5.661   0.355  0.0717 -1.0750 -0.1777
 7333TIP3    H143490   4.659   5.579   0.307  1.1058  0.3471 -2.4563
 7333TIP3    H243491   4.732   5.696   0.369 -0.3977  1.4574 -2.7288
 7334TIP3   OH243492   3.842   6.695   2.281  0.8195 -0.1889  0.3615
 7334TIP3    H143493   3.773   6.761   2.278 -1.5035 -2.5074 -1.0913
 7334TIP3    H243494   3.852   6.675   2.374 -0.5414  0.1157  0.5888
 7335TIP3   OH243495   0.743   6.766  14.552 -0.2543  0.1887 -0.1502
 7335TIP3    H143496   0.672   6.779  14.489 -0.3987 -1.0400 -0.2539
 7335TIP3    H243497   0.761   6.854  14.586 -0.6569  0.7702 -1.3759
 7336TIP3   OH243498   5.768   3.193   1.691  0.6217  0.3008 -0.1596
 7336TIP3    H143499   5.770   3.105   1.653  0.8510 -0.0756  0.7019
 7336TIP3    H243500   5.827   3.189   1.765  0.8733  1.2806 -0.2910
 7337TIP3   OH243501   5.288   4.215  15.923 -0.6793  0.0873 -0.2362
 7337TIP3    H143502   5.198   4.203  15.953 -0.9367 -0.9289 -1.3416
 7337TIP3    H243503   5.331   4.132  15.942 -0.3810  0.0494 -1.0215
 7338TIP3   OH243504   3.141   3.918   2.308 -0.4080 -1.0642  0.1332
 7338TIP3    H143505   3.224   3.870   2.299  1.0007  1.2967 -0.4840
 7338TIP3    H243506   3.124   3.953   2.221 -0.8360  0.3154  0.7386
 7339TIP3   OH243507   4.005   5.811   3.782 -0.3548  0.1484  0.7902
 7339TIP3    H143508   4.011   5.890   3.728 -0.6462 -0.0284  0.5071
 7339TIP3    H243509   3.949   5.837   3.855  1.1042  0.8118  1.7507
 7340TIP3   OH243510   3.590   3.775  14.871  0.9188  0.6691  0.3743
 7340TIP3    H143511   3.531   3.712  14.829  0.0560  0.7736  1.3893
 7340TIP3    H243512   3.640   3.723  14.934  1.5135  0.6874 -0.0697
 7341TIP3   OH243513   0.948   2.354   1.147  0.1763  0.3039  0.0404
 7341TIP3    H143514   0.860   2.389   1.130 -0.1724 -0.7212 -0.3562
 7341TIP3    H243515   0.932   2.266   1.181  1.0644 -0.1485 -0.6716
 7342TIP3   OH243516   5.102   2.926  11.086  0.0789  0.1437 -0.3591
 7342TIP3    H143517   5.078   2.976  11.008 -0.0822 -0.1219 -0.4832
 7342TIP3    H243518   5.144   2.989  11.144  1.5555  0.0400 -1.2673
 7343TIP3   OH243519   3.715   6.682   5.575 -0.0511  0.3420  0.2528
 7343TIP3    H143520   3.647   6.750   5.576  1.2905  1.7648 -0.5171
 7343TIP3    H243521   3.695   6.627   5.650 -1.9663  0.7992  0.1267
 7344TIP3   OH243522   3.838   3.912   1.679 -0.4507 -0.4100  0.8847
 7344TIP3    H143523   3.835   3.994   1.630  4.4393  0.7745  1.9623
 7344TIP3    H243524   3.904   3.859   1.633 -0.3778 -1.9099  2.6079
 7345TIP3   OH243525   6.772   3.000   1.287  0.2415 -0.3720  0.3625
 7345TIP3    H143526   6.773   3.047   1.204 -0.4058 -1.7674 -0.4668
 7345TIP3    H243527   6.822   3.056   1.347  2.9090 -0.4885 -1.5852
 7346TIP3   OH243528   0.985   0.230   2.753  0.4881  0.1760  0.1513
 7346TIP3    H143529   0.989   0.262   2.843 -1.1059 -1.2872  0.7919
 7346TIP3    H243530   1.045   0.155   2.751 -0.2769 -0.4400  0.2829
 7347TIP3   OH243531   6.670   2.265   0.083 -0.3815 -0.9392 -0.6103
 7347TIP3    H143532   6.665   2.253  -0.012 -2.1297 -0.7331 -0.5770
 7347TIP3    H243533   6.599   2.211   0.118 -0.5387 -0.0861  0.4680
 7348TIP3   OH243534   5.858   0.616   5.087 -0.6123 -0.2158  0.1467
 7348TIP3    H143535   5.931   0.674   5.064  0.8687 -1.7047  0.8731
 7348TIP3    H243536   5.793   0.632   5.018 -0.7442  3.0001  0.8493
 7349TIP3   OH243537   1.631   2.566  11.563 -0.5269  0.2925  0.0431
 7349TIP3    H143538   1.542   2.568  11.528  0.0228 -0.5973 -1.5397
 7349TIP3    H243539   1.671   2.490  11.519  1.1891  1.0559  0.2339
 7350TIP3   OH243540   0.679   4.617   5.798 -0.0664 -0.7065 -0.3384
 7350TIP3    H143541   0.591   4.642   5.769  0.1478  1.9716  0.9808
 7350TIP3    H243542   0.708   4.692   5.850  3.4986 -0.9441 -1.7548
 7351TIP3   OH243543   0.566   6.365   2.453 -0.6945  0.2765 -0.4552
 7351TIP3    H143544   0.611   6.432   2.401  1.0235 -1.5894 -1.5073
 7351TIP3    H243545   0.552   6.407   2.538  0.9438  1.7527 -0.8472
 7352TIP3   OH243546   6.425   2.928  13.702 -0.1282  0.4060  0.3329
 7352TIP3    H143547   6.439   2.869  13.628  0.1500 -0.1852  0.8497
 7352TIP3    H243548   6.366   2.995  13.668 -2.9379 -1.8029  0.5715
 7353TIP3   OH243549   5.619   6.234  14.723 -0.3942 -1.0688  0.1478
 7353TIP3    H143550   5.578   6.319  14.709 -1.3981 -0.7417  3.9504
 7353TIP3    H243551   5.547   6.171  14.717 -0.8103 -0.9442  2.7601
 7354TIP3   OH243552   5.065   0.488  12.809  0.2903  0.5990 -0.2726
 7354TIP3    H143553   5.002   0.533  12.865 -0.9315 -0.7393 -0.4956
 7354TIP3    H243554   5.061   0.534  12.726 -0.1919  0.6982 -0.1981
 7355TIP3   OH243555   3.338   2.346   1.241  0.0506 -0.2073 -0.1965
 7355TIP3    H143556   3.317   2.320   1.330 -1.6763 -1.6060 -0.9498
 7355TIP3    H243557   3.266   2.312   1.188  2.7456 -2.7255 -2.6176
 7356TIP3   OH243558   0.463   2.948  14.141 -0.1925  0.1686 -0.3390
 7356TIP3    H143559   0.467   3.024  14.199 -2.3502  0.4430 -0.4479
 7356TIP3    H243560   0.551   2.911  14.144 -0.1154  0.3093  2.8986
 7357TIP3   OH243561   4.398   0.869   5.265  0.3189  0.2660 -0.1115
 7357TIP3    H143562   4.327   0.933   5.271 -1.3120 -1.2511 -1.8209
 7357TIP3    H243563   4.454   0.900   5.194  0.6802  0.7978  0.3936
 7358TIP3   OH243564   1.321   3.504   3.792  0.3473 -0.0415 -0.0708
 7358TIP3    H143565   1.272   3.423   3.777  0.2798 -0.0931  0.4397
 7358TIP3    H243566   1.273   3.550   3.860  1.1877 -0.2558  0.6975
 7359TIP3   OH243567   2.095   6.761  15.620 -0.3950 -0.2229 -0.0952
 7359TIP3    H143568   2.031   6.757  15.691  0.3118 -0.0056  0.5691
 7359TIP3    H243569   2.152   6.834  15.644  0.7035 -1.0343 -0.1577
 7360TIP3   OH243570   1.322   6.283  14.101 -0.0822 -0.6819  0.5146
 7360TIP3    H143571   1.394   6.230  14.066 -1.3903 -1.5782 -0.9803
 7360TIP3    H243572   1.247   6.223  14.101 -1.2573  0.7403  0.2595
 7361TIP3   OH243573   0.971   2.237  15.639  0.7591  0.4236 -0.1416
 7361TIP3    H143574   1.002   2.256  15.550 -1.5331  2.4057 -0.6222
 7361TIP3    H243575   0.921   2.156  15.630 -1.8172  2.0277 -1.3758
 7362TIP3   OH243576   6.019   1.185  10.848 -0.3060 -0.1464  0.1621
 7362TIP3    H143577   6.078   1.154  10.780  2.8442  0.3225  2.4646
 7362TIP3    H243578   6.037   1.279  10.854 -0.5992 -0.1502  1.4975
 7363TIP3   OH243579   6.508   5.933  15.995 -0.0006 -0.2583  0.1304
 7363TIP3    H143580   6.437   5.903  16.053  0.5093  0.5261  1.2002
 7363TIP3    H243581   6.587   5.895  16.033  0.5847  1.8665  1.1706
 7364TIP3   OH243582   3.630   6.787   4.088 -0.2806 -0.2141  0.2933
 7364TIP3    H143583   3.634   6.725   4.016  1.4050  0.3592 -0.1469
 7364TIP3    H243584   3.570   6.856   4.057 -0.6059 -0.6207 -0.0000
 7365TIP3   OH243585   5.864   4.168  10.519  0.1854 -0.6727 -0.1928
 7365TIP3    H143586   5.786   4.155  10.464  0.4053 -0.4964 -0.5515
 7365TIP3    H243587   5.835   4.227  10.588  0.1141 -0.2467 -0.5800
 7366TIP3   OH243588   1.196   4.004  11.840 -0.3200  0.6241 -0.2077
 7366TIP3    H143589   1.222   4.019  11.749 -2.0128  0.0752 -0.8236
 7366TIP3    H243590   1.106   3.972  11.834 -0.1856 -0.2325  1.6140
 7367TIP3   OH243591   0.567   0.252  17.156  0.0409 -0.2494  0.2130
 7367TIP3    H143592   0.652   0.285  17.185 -0.7636  0.8306  1.4939
 7367TIP3    H243593   0.565   0.271  17.062  0.8080  0.6788  0.3667
 7368TIP3   OH243594   0.960   4.304   2.386 -0.4316 -0.1728  0.3076
 7368TIP3    H143595   0.884   4.354   2.416 -0.4592 -1.0698  1.8504
 7368TIP3    H243596   0.923   4.228   2.342 -0.3892  1.0737 -2.0365
 7369TIP3   OH243597   4.105   2.698   3.773 -0.2544  0.2715  0.6278
 7369TIP3    H143598   4.066   2.758   3.710 -0.7452 -0.7898 -0.1171
 7369TIP3    H243599   4.031   2.666   3.825 -0.2192 -0.7519  0.0785
 7370TIP3   OH243600   6.456   0.149  11.252 -0.6055  0.5183 -0.2658
 7370TIP3    H143601   6.405   0.230  11.251 -2.6751 -0.7055 -1.7051
 7370TIP3    H243602   6.426   0.102  11.329 -1.2543  0.0578 -0.7885
 7371TIP3   OH243603   4.911   5.715  13.389  0.3768  0.2057 -0.1352
 7371TIP3    H143604   4.937   5.795  13.435 -0.0530 -0.4710  1.3449
 7371TIP3    H243605   4.821   5.699  13.416  0.0769 -0.1758 -1.3032
 7372TIP3   OH243606   6.300   2.581  13.141  0.4586 -0.8327 -0.3843
 7372TIP3    H143607   6.354   2.654  13.172 -0.1394 -0.7491  0.5348
 7372TIP3    H243608   6.332   2.562  13.053  0.7006  0.4696 -0.5991
 7373TIP3   OH243609   3.600   3.103  16.070  0.0670 -0.2215 -0.2710
 7373TIP3    H143610   3.637   3.025  16.028 -0.7574 -0.1772 -1.1092
 7373TIP3    H243611   3.554   3.069  16.147 -1.1903 -0.7270 -1.2027
 7374TIP3   OH243612   1.782   1.218  13.726  0.0873  0.7065 -0.2224
 7374TIP3    H143613   1.730   1.140  13.748 -0.4401  1.2146  0.4052
 7374TIP3    H243614   1.870   1.185  13.712 -0.1877 -0.0427 -0.2473
 7375TIP3   OH243615   2.820   5.448  15.437 -0.2555 -0.7800 -0.2905
 7375TIP3    H143616   2.738   5.402  15.418 -0.9441 -0.6059  2.0127
 7375TIP3    H243617   2.884   5.378  15.451 -0.5237 -0.9632  0.0231
 7376TIP3   OH243618   0.964   2.679  16.572  0.2137 -0.7289 -0.2544
 7376TIP3    H143619   0.995   2.629  16.497 -1.2527  0.1192 -1.5066
 7376TIP3    H243620   0.892   2.731  16.537  0.8620  1.3187  1.2548
 7377TIP3   OH243621   1.210   6.522  10.650  0.2740 -0.0424 -0.2684
 7377TIP3    H143622   1.270   6.596  10.646  0.2997 -0.0139  0.5262
 7377TIP3    H243623   1.123   6.559  10.631  0.5781 -0.2250 -2.3096
 7378TIP3   OH243624   2.977   1.603  16.045 -0.1213  0.0732 -0.2546
 7378TIP3    H143625   3.052   1.544  16.055  0.4711  0.7343 -0.7843
 7378TIP3    H243626   2.922   1.560  15.979  0.3655  0.1568 -0.7229
 7379TIP3   OH243627   6.141   4.665  12.605 -0.3406 -0.2559  0.1274
 7379TIP3    H143628   6.062   4.649  12.656 -1.8788  1.8599 -1.4149
 7379TIP3    H243629   6.192   4.725  12.659 -1.1134  0.5629 -0.0392
 7380TIP3   OH243630   1.888   4.695  16.813  0.1699 -0.8871  0.6673
 7380TIP3    H143631   1.815   4.727  16.866  0.0336 -2.0976  1.2522
 7380TIP3    H243632   1.860   4.608  16.784  0.6957 -0.6799 -0.5080
 7381TIP3   OH243633   6.421   5.327  16.992 -0.2575 -0.2928  0.0077
 7381TIP3    H143634   6.427   5.361  17.081 -1.9738  2.6928 -0.8669
 7381TIP3    H243635   6.355   5.258  16.996  0.6493 -1.1315  1.2195
 7382TIP3   OH243636   2.257   2.142  17.003  0.4589  0.4945  0.1938
 7382TIP3    H143637   2.238   2.195  17.080 -0.8844 -0.9082  0.8886
 7382TIP3    H243638   2.175   2.095  16.986  0.4305  1.3947 -2.6299
 7383TIP3   OH243639   5.780   4.351  14.307 -0.4961  0.1697 -0.3152
 7383TIP3    H143640   5.810   4.352  14.216  1.3535 -1.8676  0.1658
 7383TIP3    H243641   5.695   4.308  14.304 -1.7483  2.5247 -1.3037
 7384TIP3   OH243642   4.258   3.475  11.880  0.5495  0.2810 -0.1860
 7384TIP3    H143643   4.275   3.427  11.799  1.2819  2.2287 -1.2695
 7384TIP3    H243644   4.181   3.528  11.861  0.4549  0.4286  0.5612
 7385TIP3   OH243645   2.447   1.952  12.971  0.1086 -0.1771  0.3694
 7385TIP3    H143646   2.362   1.910  12.984 -1.4640  2.3808 -1.0230
 7385TIP3    H243647   2.485   1.904  12.896  0.1922 -1.6668  1.3165
 7386TIP3   OH243648   6.544   5.122  14.758 -0.2288  0.1824  0.4880
 7386TIP3    H143649   6.451   5.100  14.749 -0.2229  0.5724 -0.6935
 7386TIP3    H243650   6.550   5.214  14.732  0.4996  0.1289  0.4484
 7387TIP3   OH243651   3.487   0.190  15.496  0.2386  0.4348  0.5226
 7387TIP3    H143652   3.546   0.264  15.479 -0.2293  0.7583  0.2598
 7387TIP3    H243653   3.513   0.123  15.432 -0.6499  1.1520 -0.6439
 7388TIP3   OH243654   5.393   4.973   5.578  0.2733  0.7228 -0.5199
 7388TIP3    H143655   5.356   4.921   5.649  0.6177 -0.0586 -0.9032
 7388TIP3    H243656   5.468   5.017   5.618 -0.0649  0.9954 -0.1755
 7389TIP3   OH243657   4.730   3.462   5.917  0.2232 -0.2033  0.5882
 7389TIP3    H143658   4.747   3.549   5.955  1.0987  0.8121 -1.9033
 7389TIP3    H243659   4.651   3.474   5.864  1.4741 -0.3035 -1.4053
 7390TIP3   OH243660   4.085   5.457  15.050 -0.0494  0.8287  0.3558
 7390TIP3    H143661   4.004   5.457  14.999  0.2639 -3.0617 -0.4436
 7390TIP3    H243662   4.064   5.404  15.128  1.6267 -0.1016  0.2170
 7391TIP3   OH243663   3.685   5.999  15.666  0.0658  0.3881  0.3914
 7391TIP3    H143664   3.709   6.073  15.611  1.3757 -0.5683 -0.3754
 7391TIP3    H243665   3.591   6.008  15.678 -0.5803 -0.1615 -3.2246
 7392TIP3   OH243666   4.655   2.837  17.036  0.0581 -0.6981 -0.5261
 7392TIP3    H143667   4.684   2.770  16.975  2.0966 -0.4773  0.1235
 7392TIP3    H243668   4.613   2.903  16.981 -0.4830 -1.7187 -1.3606
 7393TIP3   OH243669   2.215   5.692   2.614 -0.0987  0.2986 -0.1176
 7393TIP3    H143670   2.271   5.616   2.596  1.5005  1.4408 -0.1810
 7393TIP3    H243671   2.202   5.690   2.709 -1.1426 -0.7450 -0.2572
 7394TIP3   OH243672   2.087   3.055   4.450 -0.5560  0.3355  0.5176
 7394TIP3    H143673   2.021   2.988   4.434  0.9645 -1.1068 -0.0086
 7394TIP3    H243674   2.037   3.136   4.458 -2.5456 -0.9557  2.1497
 7395TIP3   OH243675   5.470   6.381  15.161  0.0778 -0.3863  0.0395
 7395TIP3    H143676   5.468   6.288  15.139 -1.1403 -0.1208 -1.0720
 7395TIP3    H243677   5.545   6.390  15.220  1.2522 -1.7654 -1.1842
 7396TIP3   OH243678   4.508   6.133   4.913  0.3986 -0.3694 -0.4559
 7396TIP3    H143679   4.547   6.174   4.836  1.8510 -1.2148 -0.2113
 7396TIP3    H243680   4.486   6.205   4.971  1.3370  0.1516 -0.7369
 7397TIP3   OH243681   6.455   0.760   2.385  0.0900 -0.1828  0.3740
 7397TIP3    H143682   6.524   0.753   2.320 -0.2851 -0.9027  0.0346
 7397TIP3    H243683   6.487   0.709   2.459  0.1121 -0.1516  0.3859
 7398TIP3   OH243684   1.402   4.976  11.322 -0.4034  0.0780  0.0303
 7398TIP3    H143685   1.484   4.945  11.284 -0.5119  0.2173 -0.3250
 7398TIP3    H243686   1.426   5.054  11.371 -0.0271 -0.8950  1.4487
 7399TIP3   OH243687   0.673   1.198   5.574  0.3251 -0.1309  0.2246
 7399TIP3    H143688   0.662   1.174   5.666  1.1222 -0.1417  0.3263
 7399TIP3    H243689   0.631   1.284   5.566 -0.1879 -0.3546  0.4777
 7400TIP3   OH243690   4.571   4.466   0.443 -0.6465 -0.2277 -0.1686
 7400TIP3    H143691   4.528   4.419   0.371 -0.9632  1.4804 -1.1445
 7400TIP3    H243692   4.613   4.397   0.494  0.0841 -1.4825 -2.3078
 7401TIP3   OH243693   2.076   1.884   6.044  0.6076  0.4978 -0.5428
 7401TIP3    H143694   2.032   1.964   6.074 -2.8491 -1.4308 -0.0406
 7401TIP3    H243695   2.046   1.816   6.103  2.7505 -1.4000 -1.5014
 7402TIP3   OH243696   6.102   0.542  15.116  0.2929 -0.1562 -0.5962
 7402TIP3    H143697   6.164   0.489  15.064 -1.2647 -1.4381 -1.2443
 7402TIP3    H243698   6.147   0.557  15.199  2.0259  0.1670 -1.5474
 7403TIP3   OH243699   5.110   6.376   3.322 -0.1809 -0.5536 -0.0310
 7403TIP3    H143700   5.084   6.457   3.280 -0.5628 -1.9536 -2.6874
 7403TIP3    H243701   5.076   6.383   3.411  2.3745  3.3954  0.8706
 7404TIP3   OH243702   0.139   3.283   1.690 -0.7505  0.5578 -0.3370
 7404TIP3    H143703   0.212   3.303   1.748  0.0768  0.9925 -1.4690
 7404TIP3    H243704   0.066   3.334   1.724 -0.3900  0.4959  0.5418
 7405TIP3   OH243705   3.472   5.206   6.384 -0.7019 -0.0237 -0.0641
 7405TIP3    H143706   3.502   5.277   6.440  0.7411 -0.2841 -0.4599
 7405TIP3    H243707   3.385   5.184   6.417  0.5968 -1.0716  2.9790
 7406TIP3   OH243708   1.161   5.411  14.319 -0.1971 -0.3082 -0.0730
 7406TIP3    H143709   1.082   5.429  14.370  0.0412  2.3240 -0.4877
 7406TIP3    H243710   1.168   5.485  14.259  2.9948 -0.0327  0.4677
 7407TIP3   OH243711   0.148   5.630  12.269 -0.5273  0.6248 -0.3083
 7407TIP3    H143712   0.184   5.553  12.227 -0.9981 -0.3160  0.9423
 7407TIP3    H243713   0.147   5.697  12.201  1.9101  0.1845 -0.8484
 7408TIP3   OH243714   4.712   1.869  16.349 -0.5469  0.1637  0.7859
 7408TIP3    H143715   4.729   1.917  16.430  0.8895  0.3153  0.4105
 7408TIP3    H243716   4.744   1.780  16.367 -0.8662  0.0093  0.6060
 7409TIP3   OH243717   0.022   3.075  14.226 -0.2001 -0.3943  0.4171
 7409TIP3    H143718  -0.004   3.161  14.260 -1.9743 -0.3706 -0.8997
 7409TIP3    H243719   0.015   3.083  14.131  0.6816 -1.6950  0.2137
 7410TIP3   OH243720   3.091   1.622   5.905 -0.4192  0.3384 -0.3387
 7410TIP3    H143721   3.124   1.667   5.982  2.8292 -1.0639 -0.7431
 7410TIP3    H243722   3.032   1.555   5.939  0.3288  0.2826  0.9060
 7411TIP3   OH243723   6.735   5.932  17.299 -0.9685  0.2753  0.2679
 7411TIP3    H143724   6.829   5.944  17.316 -0.7675 -1.5684  0.6454
 7411TIP3    H243725   6.703   6.020  17.278  1.2692  0.6573 -2.0767
 7412TIP3   OH243726   0.388   3.709  16.549 -0.0118 -0.0072  0.4774
 7412TIP3    H143727   0.383   3.630  16.495 -2.5896 -0.3530  1.1100
 7412TIP3    H243728   0.407   3.677  16.637 -1.0807  0.0251  0.7396
 7413TIP3   OH243729   4.406   5.043   1.937 -0.0649  0.3942  0.0025
 7413TIP3    H143730   4.349   5.120   1.937  1.1791  1.3639  0.5606
 7413TIP3    H243731   4.493   5.079   1.916  0.5001 -0.8958  0.0724
 7414TIP3   OH243732   3.497   0.494  12.282 -0.2143 -0.2194 -0.3958
 7414TIP3    H143733   3.586   0.460  12.276 -0.6257 -1.1430 -1.5615
 7414TIP3    H243734   3.471   0.511  12.191 -1.1813  0.1594 -0.0640
 7415TIP3   OH243735   0.375   3.431  17.003  0.0347 -0.7334  0.0577
 7415TIP3    H143736   0.332   3.515  17.021 -1.5527 -1.3012 -0.8823
 7415TIP3    H243737   0.364   3.381  17.083  1.6501  0.1937  0.8942
 7416TIP3   OH243738   1.580   5.023   1.472 -0.1611  0.7419  0.1898
 7416TIP3    H143739   1.613   5.050   1.558  1.6580 -0.7297 -0.0015
 7416TIP3    H243740   1.613   5.090   1.412  1.5354 -0.0455  0.1871
 7417TIP3   OH243741   3.020   2.806  15.664  0.3478  0.0705  0.5934
 7417TIP3    H143742   2.925   2.811  15.668  0.3371 -0.3782  1.1039
 7417TIP3    H243743   3.039   2.713  15.676  0.8373  0.0987  0.1002
 7418TIP3   OH243744   6.227   0.617  15.355 -0.4354  0.2835 -0.2330
 7418TIP3    H143745   6.191   0.609  15.444 -1.3590 -1.7503 -0.7274
 7418TIP3    H243746   6.321   0.627  15.368 -0.7490  2.1858  1.0056
 7419TIP3   OH243747   0.245   2.629   2.359 -0.2485  0.5956 -0.0867
 7419TIP3    H143748   0.233   2.720   2.334 -0.1666  0.2793 -1.3670
 7419TIP3    H243749   0.297   2.632   2.439 -0.3514  1.6729 -0.0547
 7420TIP3   OH243750   0.673   5.063  12.256 -0.4704  0.0387  0.1010
 7420TIP3    H143751   0.740   5.126  12.230 -1.2400  0.3255 -1.2665
 7420TIP3    H243752   0.674   4.997  12.187  0.2746 -1.4618  1.4722
 7421TIP3   OH243753   4.085   2.040   5.964 -0.1002  0.3167  0.2840
 7421TIP3    H143754   4.127   2.102   6.023  1.8685  0.1661 -0.8839
 7421TIP3    H243755   4.014   2.091   5.923 -1.2283  0.5361  2.3702
 7422TIP3   OH243756   2.129   5.556   1.907 -0.2753 -0.4719  0.0854
 7422TIP3    H143757   2.080   5.579   1.828  0.2386 -0.8390 -0.3535
 7422TIP3    H243758   2.155   5.640   1.945 -0.3839 -0.2954 -0.2288
 7423TIP3   OH243759   4.007   2.682  14.078 -0.3096 -0.7674 -0.3659
 7423TIP3    H143760   4.096   2.682  14.042  0.5221 -0.8762  1.5700
 7423TIP3    H243761   4.002   2.762  14.129 -0.8984 -1.3361  0.4987
 7424TIP3   OH243762   3.366   3.984   1.828  0.4164 -0.2970 -0.2996
 7424TIP3    H143763   3.417   4.021   1.757 -0.5763 -0.8081 -1.3059
 7424TIP3    H243764   3.416   3.909   1.859  0.3147 -0.7519 -1.2282
 7425TIP3   OH243765   4.819   5.466   5.412  0.4108  0.9727  0.4953
 7425TIP3    H143766   4.873   5.390   5.432 -0.2232  0.5151  0.5091
 7425TIP3    H243767   4.872   5.518   5.352  1.1642  0.9147  1.1044
 7426TIP3   OH243768   3.759   2.178  15.966 -0.1540 -0.1265  0.3354
 7426TIP3    H143769   3.727   2.094  15.934  1.2770 -0.0911 -1.3231
 7426TIP3    H243770   3.760   2.234  15.889  0.8448  0.7893  0.9876
 7427TIP3   OH243771   2.702   6.583   3.312 -0.3071 -0.5610  0.0977
 7427TIP3    H143772   2.611   6.593   3.340 -0.3811 -1.8205  0.4020
 7427TIP3    H243773   2.710   6.489   3.292  1.0311 -0.5439  0.4875
 7428TIP3   OH243774   1.677   5.333  14.394  0.3734 -0.3160 -0.0861
 7428TIP3    H143775   1.669   5.385  14.314 -0.9353 -1.1863 -0.5583
 7428TIP3    H243776   1.607   5.366  14.451 -1.6278 -2.6200 -1.0583
 7429TIP3   OH243777   6.518   6.538   5.535 -0.3084  0.3948 -0.2014
 7429TIP3    H143778   6.470   6.621   5.534 -0.2014  0.4732  0.4027
 7429TIP3    H243779   6.495   6.499   5.620  1.0448  0.6454  0.2958
 7430TIP3   OH243780   0.594   2.987   2.947 -0.1188 -0.9418 -0.0345
 7430TIP3    H143781   0.516   3.042   2.938  0.6081  0.1553  0.1926
 7430TIP3    H243782   0.605   2.977   3.042  1.6255  1.3385  0.0855
 7431TIP3   OH243783   3.717   4.666  16.977  1.2641 -0.2275  0.0169
 7431TIP3    H143784   3.801   4.653  16.931  1.1488 -0.6832 -0.0671
 7431TIP3    H243785   3.678   4.579  16.980  0.6287  0.0433 -0.2576
 7432TIP3   OH243786   3.586   1.521   1.388 -0.0134 -0.5346  0.0917
 7432TIP3    H143787   3.679   1.543   1.389  0.1479 -1.1775 -0.0714
 7432TIP3    H243788   3.566   1.509   1.295 -0.2558 -0.4021  0.1276
 7433TIP3   OH243789   3.027   4.275  16.682 -0.0818 -0.0184  0.6834
 7433TIP3    H143790   3.053   4.219  16.756 -0.8316 -2.2873 -0.6680
 7433TIP3    H243791   2.935   4.253  16.666 -0.2255  1.1887 -0.2944
 7434TIP3   OH243792   2.754   4.855  16.709  0.1436 -0.0057 -0.2553
 7434TIP3    H143793   2.717   4.828  16.625 -0.3585  1.5534 -0.5516
 7434TIP3    H243794   2.680   4.889  16.759  0.6811  0.4134  0.2708
 7435TIP3   OH243795   0.130   0.287  11.087  0.2583 -0.0435 -0.0561
 7435TIP3    H143796   0.106   0.331  11.005  1.2265 -0.8273 -0.7877
 7435TIP3    H243797   0.087   0.201  11.080 -0.3658  0.2010  0.6654
 7436TIP3   OH243798   3.244   4.783   6.021 -0.6393  0.0065 -0.0085
 7436TIP3    H143799   3.263   4.749   5.934  0.0673  0.2479  0.0506
 7436TIP3    H243800   3.219   4.706   6.072 -0.7668 -0.1736 -0.3411
 7437TIP3   OH243801   6.196   3.268   4.681  0.3640 -0.0372  0.0228
 7437TIP3    H143802   6.284   3.250   4.715  0.5529  0.5840 -0.1283
 7437TIP3    H243803   6.156   3.325   4.746 -0.5337 -1.6089  0.9129
 7438TIP3   OH243804   0.937   2.664   2.144  0.0609  0.0174 -0.4646
 7438TIP3    H143805   0.914   2.660   2.237  0.4076  0.0116 -0.3771
 7438TIP3    H243806   1.016   2.611   2.137  0.0492  0.0374 -0.7622
 7439TIP3   OH243807   3.083   5.109   1.892  0.6589 -0.0311 -0.7488
 7439TIP3    H143808   3.177   5.120   1.879  0.8108 -0.7796 -0.3305
 7439TIP3    H243809   3.061   5.029   1.844 -0.1785  1.2418 -2.6360
 7440TIP3   OH243810   5.563   1.987  11.855 -0.1060  0.1892 -0.6960
 7440TIP3    H143811   5.507   1.912  11.834  0.1380 -0.6429  1.3411
 7440TIP3    H243812   5.516   2.063  11.822 -2.1922 -0.5301  0.4206
 7441TIP3   OH243813   2.432   5.319   1.734 -0.4890  0.1497 -0.1350
 7441TIP3    H143814   2.522   5.329   1.765 -0.9778  0.0330  1.3975
 7441TIP3    H243815   2.390   5.261   1.798 -1.9408  1.0578 -0.2130
 7442TIP3   OH243816   1.912   4.611  11.318  0.4560  0.2132  0.3557
 7442TIP3    H143817   1.932   4.528  11.360  0.0273 -0.0582  0.0242
 7442TIP3    H243818   1.960   4.609  11.235 -0.0289  0.0387  0.0747
 7443TIP3   OH243819   2.176   0.779  12.565  0.0594 -0.4969  0.4558
 7443TIP3    H143820   2.178   0.759  12.472 -0.7419 -1.3084  0.5927
 7443TIP3    H243821   2.135   0.865  12.571 -1.1615 -1.0385  0.1232
 7444TIP3   OH243822   6.265   0.357   5.071 -0.1290  0.6224  0.1575
 7444TIP3    H143823   6.271   0.298   4.996  0.1790  1.3652 -0.4187
 7444TIP3    H243824   6.176   0.390   5.069 -0.3014  0.1785  0.4806
 7445TIP3   OH243825   2.687   5.404  11.434 -1.0457 -0.4747 -0.0888
 7445TIP3    H143826   2.688   5.494  11.466  0.1828 -0.5218  0.0804
 7445TIP3    H243827   2.755   5.402  11.366 -0.7123 -1.3849  0.2581
 7446TIP3   OH243828   2.661   4.174  11.171  0.4794  0.4501 -0.5003
 7446TIP3    H143829   2.653   4.266  11.196 -0.6725  0.4637 -0.8608
 7446TIP3    H243830   2.605   4.165  11.094  0.0968 -0.6957 -0.1029
 7447TIP3   OH243831   6.232   4.558  14.130  0.3126 -0.1682 -0.3552
 7447TIP3    H143832   6.149   4.606  14.133 -0.4407 -1.3782 -0.9739
 7447TIP3    H243833   6.253   4.540  14.222  1.2560  2.3380 -0.0002
 7448TIP3   OH243834   3.442   3.990   1.025  0.3072 -0.5489 -0.2556
 7448TIP3    H143835   3.432   4.046   0.948 -0.8492 -0.6055 -0.1639
 7448TIP3    H243836   3.448   4.052   1.099 -1.7130 -0.5100 -0.0717
 7449TIP3   OH243837   2.312   5.125   1.010  0.4091 -0.2308 -0.7053
 7449TIP3    H143838   2.309   5.216   1.037  1.9514 -0.7840  1.5805
 7449TIP3    H243839   2.389   5.119   0.953  1.1538 -0.3494  0.2927
 7450TIP3   OH243840   1.866   2.371   2.301  0.0760  0.0770 -0.3443
 7450TIP3    H143841   1.806   2.311   2.257  1.2524 -0.4761 -1.2071
 7450TIP3    H243842   1.938   2.383   2.240  1.4936 -0.2895  1.1846
 7451TIP3   OH243843   6.675   6.628  12.238  0.5169  0.2594 -0.4774
 7451TIP3    H143844   6.624   6.567  12.185  0.7582  0.6654 -1.1966
 7451TIP3    H243845   6.698   6.579  12.317 -0.7571 -0.0057 -0.2530
 7452TIP3   OH243846   3.895   5.829  11.046 -0.4945  0.3546 -0.7547
 7452TIP3    H143847   3.906   5.915  11.006 -2.1315  0.3630 -1.2782
 7452TIP3    H243848   3.899   5.846  11.140  2.8232  0.4136 -0.7949
 7453TIP3   OH243849   1.529   3.549  15.662  0.6948 -0.0409  0.1458
 7453TIP3    H143850   1.621   3.571  15.648  0.6738  0.0299  0.1208
 7453TIP3    H243851   1.527   3.453  15.665  0.4894 -0.1334 -1.8571
 7454TIP3   OH243852   3.983   3.331  14.406  0.2037  0.0586 -0.1674
 7454TIP3    H143853   4.003   3.303  14.496  0.3592  1.9950  0.4640
 7454TIP3    H243854   3.921   3.267  14.373 -0.9696  0.0796  1.8556
 7455TIP3   OH243855   2.189   6.710  11.565  0.2009 -0.4666  0.8777
 7455TIP3    H143856   2.159   6.718  11.474 -2.1913 -1.2026  1.5233
 7455TIP3    H243857   2.164   6.793  11.606  1.7395  0.0710  0.7768
 7456TIP3   OH243858   3.314   2.411  14.997  0.1801 -0.4714 -0.6146
 7456TIP3    H143859   3.268   2.327  15.005  1.2112 -1.0724 -0.7792
 7456TIP3    H243860   3.347   2.411  14.907  0.0053  0.2135 -0.6816
 7457TIP3   OH243861   4.310   5.949   6.471 -0.3195  0.0902  0.7253
 7457TIP3    H143862   4.344   5.879   6.416 -1.1583  0.7105 -0.6356
 7457TIP3    H243863   4.231   5.912   6.510  0.1265 -0.2596  1.3054
 7458TIP3   OH243864   4.187   4.116  11.526  0.4116 -0.3394  0.1053
 7458TIP3    H143865   4.180   4.169  11.446 -0.0295  0.0200  0.3748
 7458TIP3    H243866   4.281   4.116  11.546  0.6707 -1.2895 -0.9667
 7459TIP3   OH243867   1.105   3.184  15.038  0.4385 -0.4935 -0.1214
 7459TIP3    H143868   1.167   3.184  15.111 -0.9146  0.4348  1.0971
 7459TIP3    H243869   1.079   3.092  15.029  0.7403 -0.6427  0.4842
 7460TIP3   OH243870   4.715   2.424  12.293 -0.5632  0.0198  0.5459
 7460TIP3    H143871   4.649   2.368  12.335 -2.1343  1.7918  0.5763
 7460TIP3    H243872   4.779   2.440  12.362 -0.8740 -0.5543  0.9804
 7461TIP3   OH243873   1.728   0.321  13.511 -0.3962 -0.2798  0.1475
 7461TIP3    H143874   1.653   0.272  13.546  0.7434 -1.9100  0.4174
 7461TIP3    H243875   1.804   0.265  13.529  1.0082  1.6449  0.5503
 7462TIP3   OH243876   6.756   5.175  10.932 -0.1656  0.1922 -0.6303
 7462TIP3    H143877   6.738   5.269  10.938 -0.7859  0.0523 -0.2174
 7462TIP3    H243878   6.762   5.158  10.838  0.5628  0.7526 -0.6932
 7463TIP3   OH243879   5.333   5.021  17.282 -0.1891 -0.5905  0.1455
 7463TIP3    H143880   5.264   5.029  17.217 -0.7622 -2.0177  0.5587
 7463TIP3    H243881   5.380   4.942  17.258  0.9001 -0.0064  0.2721
 7464TIP3   OH243882   2.392   6.357  15.961 -0.2657 -0.7343 -0.2969
 7464TIP3    H143883   2.471   6.378  16.011 -1.0774 -2.0231  1.6242
 7464TIP3    H243884   2.360   6.275  15.998 -2.0683 -0.6919 -1.5854
 7465TIP3   OH243885   0.323   3.893  11.854  0.3749  0.2401  0.0429
 7465TIP3    H143886   0.256   3.824  11.853  0.5391  0.0768 -0.6764
 7465TIP3    H243887   0.401   3.850  11.816  0.4720  0.8239 -0.4338
 7466TIP3   OH243888   4.946   3.785   5.879  0.0802  0.1433 -0.3220
 7466TIP3    H143889   4.970   3.810   5.968  0.0863 -1.8702  0.2776
 7466TIP3    H243890   4.850   3.779   5.881  0.0960 -0.1449 -0.3739
 7467TIP3   OH243891   5.421   5.199  12.373  0.2318 -0.0854 -0.0236
 7467TIP3    H143892   5.447   5.182  12.463  0.0481  0.1626  0.0762
 7467TIP3    H243893   5.375   5.120  12.346  0.3311 -0.1802  0.0839
 7468TIP3   OH243894   1.797   3.396  14.290  0.4957  0.0075  0.0677
 7468TIP3    H143895   1.821   3.362  14.376  0.6930 -0.1539 -0.0506
 7468TIP3    H243896   1.843   3.480  14.284 -1.2015  1.0580  0.9872
 7469TIP3   OH243897   5.442   5.906   3.802  0.9247 -0.2817 -0.1598
 7469TIP3    H143898   5.428   5.964   3.727  2.6499  0.0642 -0.2597
 7469TIP3    H243899   5.480   5.827   3.764  2.0524 -0.0051  0.3427
 7470TIP3   OH243900   3.571   6.253  10.776  0.6515 -0.0209  0.0484
 7470TIP3    H143901   3.544   6.212  10.694  0.3788  0.2779 -0.0118
 7470TIP3    H243902   3.533   6.196  10.844  1.1869 -0.4740 -0.0270
 7471TIP3   OH243903   4.371   5.697   0.108  0.3750 -0.1589  0.2886
 7471TIP3    H143904   4.399   5.767   0.049  1.2909 -0.4655  0.3323
 7471TIP3    H243905   4.291   5.663   0.069  0.5823  0.1075 -0.3923
 7472TIP3   OH243906   4.982   6.013   5.872  0.0003 -0.3279 -0.7231
 7472TIP3    H143907   5.043   6.037   5.942  1.2160 -1.3657 -1.3940
 7472TIP3    H243908   5.005   5.923   5.850 -1.3850 -0.5300 -1.4214
 7473TIP3   OH243909   5.224   1.729   1.394 -0.4912 -0.0219 -0.1783
 7473TIP3    H143910   5.254   1.806   1.344 -0.8874 -0.5194 -1.2050
 7473TIP3    H243911   5.129   1.734   1.392 -0.5145 -0.1893  0.3233
 7474TIP3   OH243912   0.191   3.303   2.995  0.6317 -0.1351  0.0126
 7474TIP3    H143913   0.232   3.313   3.081 -0.3162 -0.4134  0.5111
 7474TIP3    H243914   0.146   3.386   2.980 -0.4926 -0.6350  0.5000
 7475TIP3   OH243915   5.946   5.436  12.193  0.5065  0.8180 -0.0634
 7475TIP3    H143916   5.865   5.487  12.192 -0.2604 -0.3575 -0.7412
 7475TIP3    H243917   5.999   5.478  12.261 -1.7743 -0.0145  2.4474
 7476TIP3   OH243918   3.143   4.988   5.139 -0.4463  0.8382 -0.0812
 7476TIP3    H143919   3.059   5.034   5.142 -0.0055  1.7659 -1.1648
 7476TIP3    H243920   3.166   4.987   5.046  0.8334  0.7669  0.2223
 7477TIP3   OH243921   0.002   0.079   1.703 -0.7556  0.1686 -0.0676
 7477TIP3    H143922  -0.082   0.123   1.688 -0.3233  0.6754 -1.0427
 7477TIP3    H243923   0.015   0.085   1.798 -1.3329  0.9801 -0.0295
 7478TIP3   OH243924   1.995   6.332   4.019 -0.2338 -0.2050  0.1806
 7478TIP3    H143925   1.949   6.265   4.069  0.6142  0.5599  2.0706
 7478TIP3    H243926   1.946   6.338   3.936 -2.2290 -0.9060  1.2401
 7479TIP3   OH243927   5.071   4.249   1.225 -0.1934 -0.4555  0.3749
 7479TIP3    H143928   4.983   4.242   1.188  0.0938 -0.0417 -0.4129
 7479TIP3    H243929   5.061   4.222   1.316 -1.4591  1.1339  0.7463
 7480TIP3   OH243930   6.612   2.981   4.234  0.3199 -0.1883 -0.4437
 7480TIP3    H143931   6.677   3.047   4.257  0.1371 -0.4928  1.0901
 7480TIP3    H243932   6.601   2.930   4.315  0.8715 -2.4569 -1.7054
 7481TIP3   OH243933   6.251   0.226  12.501 -0.1527 -0.4984 -0.2487
 7481TIP3    H143934   6.225   0.303  12.552  0.5007  0.0711 -0.7593
 7481TIP3    H243935   6.301   0.172  12.562  0.6821  0.2104 -0.2855
 7482TIP3   OH243936   2.034   6.110  15.012 -0.1080  0.3918 -0.1494
 7482TIP3    H143937   2.117   6.081  14.975  0.2011  2.6518 -1.4182
 7482TIP3    H243938   1.969   6.051  14.974  0.6450  0.3347 -1.4239
 7483TIP3   OH243939   6.549   6.041   0.805 -0.6478  0.0131 -0.2304
 7483TIP3    H143940   6.492   6.057   0.880 -0.7366  0.2799 -0.3529
 7483TIP3    H243941   6.554   5.946   0.799  0.5001 -0.0326  0.9771
 7484TIP3   OH243942   6.194   5.518  14.521 -0.7233  0.2398 -0.3179
 7484TIP3    H143943   6.236   5.480  14.598  0.9310 -2.7751 -2.4993
 7484TIP3    H243944   6.254   5.587  14.492 -0.3634  0.0778  0.0402
 7485TIP3   OH243945   1.653   6.358  11.974 -0.2468  0.5361 -0.1873
 7485TIP3    H143946   1.709   6.401  12.038  0.6752 -1.1349  0.1913
 7485TIP3    H243947   1.648   6.419  11.901  0.4243  1.5572  0.5877
 7486TIP3   OH243948   2.786   4.330  11.612  0.0826 -0.1451 -0.5075
 7486TIP3    H143949   2.700   4.357  11.642 -0.7629 -0.4525 -2.5251
 7486TIP3    H243950   2.828   4.411  11.582  0.0354 -0.1642 -0.6252
 7487TIP3   OH243951   5.845   4.042  16.660 -0.2379  0.8341 -0.4677
 7487TIP3    H143952   5.809   4.131  16.662 -0.7818  0.5974  0.6499
 7487TIP3    H243953   5.786   3.994  16.602 -1.5690  0.5442  1.0586
 7488TIP3   OH243954   2.356   3.276  13.610  0.1658  0.4554  0.3076
 7488TIP3    H143955   2.413   3.337  13.562  1.4904 -1.2878 -0.4692
 7488TIP3    H243956   2.405   3.194  13.611 -1.7039 -0.7159  0.9751
 7489TIP3   OH243957   3.370   4.008  12.477  0.0507  0.5728 -0.3518
 7489TIP3    H143958   3.300   4.065  12.508 -0.9535 -0.2575 -1.0307
 7489TIP3    H243959   3.357   3.926  12.524 -1.9802 -0.9962 -3.2984
 7490TIP3   OH243960   0.275   1.197  17.083  0.1644  0.2645 -0.2526
 7490TIP3    H143961   0.191   1.196  17.038  0.0174 -0.8624  0.0217
 7490TIP3    H243962   0.265   1.264  17.152 -0.6483 -0.1600  0.0448
 7491TIP3   OH243963   5.638   6.267  12.831  0.2058 -0.0879 -0.1810
 7491TIP3    H143964   5.546   6.268  12.858  0.3336 -1.2350  0.3412
 7491TIP3    H243965   5.637   6.304  12.742 -1.0305 -1.8418 -0.9591
 7492TIP3   OH243966   1.354   0.290   1.464 -0.4455 -0.4896 -0.0454
 7492TIP3    H143967   1.423   0.344   1.504  0.4971 -2.5524  1.3324
 7492TIP3    H243968   1.275   0.343   1.470  0.2672  0.4479  2.0075
 7493TIP3   OH243969   3.986   5.563  14.738  0.0327 -0.2783  0.1603
 7493TIP3    H143970   4.075   5.594  14.721 -0.3815  1.1017  0.4556
 7493TIP3    H243971   3.947   5.630  14.794 -1.0701 -1.0716  0.3734
 7494TIP3   OH243972   3.968   1.975  16.939 -0.1813 -0.4785 -0.4790
 7494TIP3    H143973   3.952   1.917  17.013 -1.3156 -0.1151 -0.4103
 7494TIP3    H243974   4.005   1.919  16.871  2.8031 -0.4493  0.9968
 7495TIP3   OH243975   0.868   1.207   6.132 -0.4561  0.0465  0.1297
 7495TIP3    H143976   0.884   1.136   6.069 -1.5040  0.2162 -0.3423
 7495TIP3    H243977   0.920   1.280   6.099 -1.2542  0.2359 -0.7345
 7496TIP3   OH243978   3.932   1.011  16.218  0.5214  0.5057 -0.1525
 7496TIP3    H143979   3.982   1.016  16.300 -0.4198  0.3754  0.4544
 7496TIP3    H243980   3.897   0.922  16.217  1.4251  0.1474 -1.2620
 7497TIP3   OH243981   1.382   2.422   1.541 -0.2037  0.5203 -0.2284
 7497TIP3    H143982   1.394   2.350   1.602  2.1792  1.0744  0.0755
 7497TIP3    H243983   1.301   2.464   1.568 -0.1527 -0.3606  1.3847
 7498TIP3   OH243984   2.490   4.515  14.223 -0.1468  0.0039 -0.2611
 7498TIP3    H143985   2.433   4.592  14.231  0.2822  0.1292  2.4846
 7498TIP3    H243986   2.456   4.453  14.287  0.0374 -1.8081 -1.8353
 7499TIP3   OH243987   4.270   1.411  12.516  0.1128  0.1674 -0.5156
 7499TIP3    H143988   4.213   1.453  12.451  0.5647  1.4003 -0.1556
 7499TIP3    H243989   4.272   1.319  12.491 -3.0229 -0.2018  0.1806
 7500TIP3   OH243990   2.221   3.085  15.631  0.3791 -0.0775 -0.6232
 7500TIP3    H143991   2.241   3.096  15.724  0.3767  0.8830 -0.7228
 7500TIP3    H243992   2.239   3.171  15.593 -1.2789  0.0459 -1.1965
 7501TIP3   OH243993   0.034   3.532   2.964 -0.0581  0.5814  0.2314
 7501TIP3    H143994   0.008   3.514   2.874 -0.2052  1.0546  0.1796
 7501TIP3    H243995  -0.049   3.550   3.010  0.0578  0.7797  0.3624
 7502TIP3   OH243996   3.570   4.649  13.980  0.3059 -0.4645  0.5282
 7502TIP3    H143997   3.485   4.664  13.939  0.3513  0.9646  0.8992
 7502TIP3    H243998   3.567   4.559  14.011 -0.1360 -1.2665 -1.6370
 7503TIP3   OH243999   4.512   4.985   4.991  0.8007 -0.4707  0.2680
 7503TIP3    H144000   4.509   5.078   5.012  0.9668 -0.7139  1.3935
 7503TIP3    H244001   4.481   4.980   4.900 -0.2976  0.5601  0.5615
 7504TIP3   OH244002   2.597   3.382   0.520 -0.5170 -0.1475 -0.1369
 7504TIP3    H144003   2.585   3.477   0.525 -1.1069 -0.1057 -1.8028
 7504TIP3    H244004   2.596   3.353   0.611 -1.1037  1.3538  0.3640
 7505TIP3   OH244005   2.988   2.781  12.042 -0.9963  0.2808  0.2898
 7505TIP3    H144006   3.014   2.717  11.976  1.6148  1.9157 -0.4545
 7505TIP3    H244007   2.999   2.736  12.126 -0.0244 -0.5166 -0.2464
 7506TIP3   OH244008   0.956   0.465   3.304  0.1171  0.1545 -0.4070
 7506TIP3    H144009   0.898   0.391   3.285 -0.5252  0.8517 -1.2786
 7506TIP3    H244010   0.909   0.515   3.370  0.5175 -0.1656  0.1275
 7507TIP3   OH244011   4.252   2.357  14.658 -0.0553  0.3693  0.4096
 7507TIP3    H144012   4.244   2.435  14.603  0.6689 -0.5602 -1.0702
 7507TIP3    H244013   4.278   2.288  14.598 -0.8658 -1.0754  1.6564
 7508TIP3   OH244014   2.925   2.096   4.973 -0.1060 -1.0126 -0.3896
 7508TIP3    H144015   2.985   2.101   4.898  0.4830  1.1472  0.1532
 7508TIP3    H244016   2.978   2.121   5.048 -1.3735 -0.3188  0.3080
 7509TIP3   OH244017   4.503   0.693  14.245  0.3695  0.1399 -0.0560
 7509TIP3    H144018   4.480   0.778  14.284  1.3725  1.0904 -1.4682
 7509TIP3    H244019   4.467   0.697  14.156  2.3231 -0.0047 -0.8909
 7510TIP3   OH244020   0.504   6.622  13.161 -0.4901  0.3190  0.0174
 7510TIP3    H144021   0.423   6.620  13.109  0.3926 -0.4116 -1.3847
 7510TIP3    H244022   0.533   6.531  13.163 -0.6307  0.2664  2.0871
 7511TIP3   OH244023   0.505   6.143  14.718  0.0688 -0.1427 -0.0267
 7511TIP3    H144024   0.553   6.207  14.666  0.4444 -1.0588 -0.8356
 7511TIP3    H244025   0.565   6.120  14.789 -0.5030  1.2219  0.9470
 7512TIP3   OH244026   1.850   1.919  14.917 -0.4330 -0.1858 -0.5023
 7512TIP3    H144027   1.861   1.845  14.976  1.7562  0.6020  0.1749
 7512TIP3    H244028   1.860   1.882  14.829  2.3415 -0.5418 -0.1302
 7513TIP3   OH244029   2.509   3.024  13.512  0.1373 -0.0938 -0.0043
 7513TIP3    H144030   2.575   3.088  13.538  1.1583 -1.0838 -0.0890
 7513TIP3    H244031   2.545   2.939  13.539 -0.5112 -0.7854 -1.2108
 7514TIP3   OH244032   6.507   4.218   0.326  0.4224 -0.2134 -0.0872
 7514TIP3    H144033   6.460   4.222   0.243 -0.1249 -2.5784  0.0406
 7514TIP3    H244034   6.592   4.260   0.308  0.2781 -0.6004 -1.8124
 7515TIP3   OH244035   2.230   4.491  11.305 -0.0465 -0.5025  0.2663
 7515TIP3    H144036   2.239   4.551  11.231 -0.4152  0.3757  0.9250
 7515TIP3    H244037   2.312   4.441  11.305  0.7464  0.7604  0.3733
 7516TIP3   OH244038   5.923   5.544  11.200  0.2665 -0.2832 -0.0716
 7516TIP3    H144039   5.853   5.602  11.170  0.5113 -1.3504 -2.9600
 7516TIP3    H244040   5.882   5.492  11.269 -0.4713  1.9912  1.3288
 7517TIP3   OH244041   5.527   3.338   0.112 -0.5162  0.3538  0.6181
 7517TIP3    H144042   5.552   3.398   0.042  1.9172  1.0941  2.0055
 7517TIP3    H244043   5.574   3.370   0.189 -0.9832 -1.9862  1.9770
 7518TIP3   OH244044   4.264   0.254   5.326 -0.5730  0.4907  0.0208
 7518TIP3    H144045   4.199   0.258   5.256 -1.2025 -0.1391  0.5479
 7518TIP3    H244046   4.262   0.163   5.356  0.2154  0.5754  0.3677
 7519TIP3   OH244047   4.360   0.964   2.176 -0.1876  0.4417 -0.3828
 7519TIP3    H144048   4.375   1.019   2.099  1.7693 -0.5619 -0.8015
 7519TIP3    H244049   4.319   1.022   2.239 -1.0479  1.5294 -1.8646
 7520TIP3   OH244050   6.091   5.049  13.649 -0.0331  0.0499  0.0797
 7520TIP3    H144051   6.101   5.071  13.557 -0.2613 -0.8430 -0.1709
 7520TIP3    H244052   6.168   4.995  13.670  0.7795  1.4270  0.8101
 7521TIP3   OH244053   1.301   4.056  11.566  0.1746 -0.2094  0.1944
 7521TIP3    H144054   1.229   3.995  11.548 -0.3884  0.5762 -0.2998
 7521TIP3    H244055   1.365   4.038  11.498  1.3522 -2.2198  1.7306
 7522TIP3   OH244056   2.907   5.779   4.631 -0.1935 -0.0139 -0.3616
 7522TIP3    H144057   2.933   5.731   4.552 -0.1565 -0.3402 -0.1512
 7522TIP3    H244058   2.812   5.791   4.621 -0.0734  0.6391 -0.8318
 7523TIP3   OH244059   0.552   0.163   1.253 -0.0257  0.0825 -0.3553
 7523TIP3    H144060   0.582   0.119   1.333  0.0426  2.2287  0.8794
 7523TIP3    H244061   0.458   0.177   1.267  0.0049  0.5561 -0.5990
 7524TIP3   OH244062   4.310   4.954   5.233 -0.8351  0.7306 -0.2582
 7524TIP3    H144063   4.272   5.035   5.201 -0.6102  0.1240 -2.1920
 7524TIP3    H244064   4.394   4.947   5.187  0.0587  0.3287  1.3282
 7525TIP3   OH244065   4.430   1.719  17.297 -0.1051 -0.0406 -0.2912
 7525TIP3    H144066   4.354   1.672  17.262  0.3401  0.4552 -2.0495
 7525TIP3    H244067   4.403   1.810  17.299  0.6808  0.2468 -1.7029
 7526TIP3   OH244068   6.610   4.263  14.890 -0.4535  0.4221  0.0160
 7526TIP3    H144069   6.619   4.288  14.982  1.9598  0.9844 -0.3101
 7526TIP3    H244070   6.580   4.342  14.846 -0.3813  0.5179  0.1375
 7527TIP3   OH244071   2.840   5.486   1.148  0.2105  0.2121 -0.6340
 7527TIP3    H144072   2.776   5.514   1.082 -0.1897  2.0903  0.4671
 7527TIP3    H244073   2.834   5.391   1.149 -1.1952  0.2485 -1.8909
 7528TIP3   OH244074   1.984   2.695   3.893  0.6262  0.3325  0.3130
 7528TIP3    H144075   1.974   2.761   3.825 -1.5427 -0.4953 -0.2601
 7528TIP3    H244076   2.038   2.737   3.960 -0.2188  2.4990 -0.2894
 7529TIP3   OH244077   4.199   0.804  12.100  0.4908 -0.1653  0.2672
 7529TIP3    H144078   4.174   0.715  12.125 -0.9054  0.2709  0.4839
 7529TIP3    H244079   4.285   0.793  12.059  1.3571 -1.3467  2.1931
 7530TIP3   OH244080   1.201   2.539   5.454  0.2995  0.3694  0.5655
 7530TIP3    H144081   1.216   2.618   5.506  1.2065  0.9252 -0.5049
 7530TIP3    H244082   1.255   2.472   5.496 -0.2309  0.3915  1.2926
 7531TIP3   OH244083   5.127   4.927   3.551  0.2576 -0.2912  0.5206
 7531TIP3    H144084   5.176   4.854   3.587 -0.1791 -1.7712 -1.6906
 7531TIP3    H244085   5.053   4.938   3.610 -0.9168 -3.1953 -0.2388
 7532TIP3   OH244086   1.065   1.281  13.474 -0.0823 -0.3159  0.2445
 7532TIP3    H144087   1.071   1.331  13.393 -2.0844 -0.4098 -0.0135
 7532TIP3    H244088   1.072   1.347  13.544  2.1181 -0.2852  0.0776
 7533TIP3   OH244089   3.631   4.895  14.514 -0.3101 -0.0471 -0.3574
 7533TIP3    H144090   3.665   4.831  14.576  0.5064  2.0464  1.4798
 7533TIP3    H244091   3.686   4.972  14.526 -0.8911  0.8580 -2.8818
 7534TIP3   OH244092   0.385   2.138   0.307  0.0085  0.3472  0.0372
 7534TIP3    H144093   0.458   2.183   0.350  0.4525 -1.4139  1.2319
 7534TIP3    H244094   0.402   2.148   0.214  0.2663  2.2905  0.2329
 7535TIP3   OH244095   3.331   5.342  16.776  0.0698 -0.0569  0.3423
 7535TIP3    H144096   3.324   5.314  16.685  0.2633 -1.4886  0.7335
 7535TIP3    H244097   3.414   5.389  16.780 -0.9121  1.8630 -0.6341
 7536TIP3   OH244098   4.434   3.697  12.460 -0.2021 -0.0805 -0.4505
 7536TIP3    H144099   4.390   3.782  12.460 -0.7998 -0.3600 -1.8058
 7536TIP3    H244100   4.402   3.654  12.381  0.4405 -1.3919 -0.0160
 7537TIP3   OH244101   2.086   5.720   3.622 -0.1693  0.5096  0.3518
 7537TIP3    H144102   2.009   5.694   3.573  0.6268 -0.6765 -0.3216
 7537TIP3    H244103   2.105   5.808   3.592 -0.1801  0.1101 -0.8713
 7538TIP3   OH244104   0.063   4.472   6.712  0.2972 -0.4898  0.2936
 7538TIP3    H144105   0.060   4.557   6.755 -0.5372 -0.2641 -0.1941
 7538TIP3    H244106  -0.028   4.451   6.692  0.5686 -1.0917 -0.3876
 7539TIP3   OH244107   4.975   1.241  14.935 -0.0790  0.1160  0.0969
 7539TIP3    H144108   5.032   1.252  15.011  0.1706 -0.4267 -0.0030
 7539TIP3    H244109   4.930   1.157  14.950 -1.0490  0.6568  0.2962
 7540TIP3   OH244110   4.912   3.358   4.792 -0.4647 -0.3605  0.9025
 7540TIP3    H144111   4.997   3.356   4.749 -0.8017 -0.0761  0.2025
 7540TIP3    H244112   4.917   3.290   4.859  0.3357 -0.2869  0.9193
 7541TIP3   OH244113   5.080   2.025  13.750 -0.2040 -0.6429 -0.0729
 7541TIP3    H144114   5.067   1.956  13.814  0.5893 -1.2294 -0.5226
 7541TIP3    H244115   5.049   2.105  13.793  1.7417 -0.7403  1.6734
 7542TIP3   OH244116   2.434   5.783   1.896  0.4013  0.0192  0.2405
 7542TIP3    H144117   2.417   5.727   1.820  0.5958  1.7459 -1.1522
 7542TIP3    H244118   2.504   5.841   1.868  1.2440  0.0009  2.1666
 7543TIP3   OH244119   2.132   1.775  15.622  1.0340  0.1763  0.0571
 7543TIP3    H144120   2.053   1.726  15.597  1.0704 -0.7344  1.5841
 7543TIP3    H244121   2.101   1.839  15.686  1.7068 -1.1258  1.7454
 7544TIP3   OH244122   3.882   3.689  14.771  0.0514 -0.1190  0.0292
 7544TIP3    H144123   3.794   3.713  14.797  0.0872  0.6556 -0.5211
 7544TIP3    H244124   3.922   3.653  14.850 -0.3382  0.7268  0.6285
 7545TIP3   OH244125   1.143   3.450   5.180 -0.2576  0.1217 -0.5116
 7545TIP3    H144126   1.235   3.427   5.171 -0.5585 -1.7023  0.6281
 7545TIP3    H244127   1.131   3.462   5.274 -1.5621 -1.5110 -0.4306
 7546TIP3   OH244128   2.382   3.931  14.703 -0.4871  0.1782  0.0635
 7546TIP3    H144129   2.376   3.887  14.618 -0.9130 -0.5621  0.4635
 7546TIP3    H244130   2.381   4.024  14.682 -4.2161  0.1305 -0.5856
 7547TIP3   OH244131   5.758   2.224   0.381  0.5876  0.0777  0.1843
 7547TIP3    H144132   5.735   2.313   0.356 -0.0605 -0.0376  0.3589
 7547TIP3    H244133   5.739   2.220   0.475  2.0472  0.2045  0.5209
 7548TIP3   OH244134   1.888   2.458  12.868 -0.1064 -0.5467  0.5556
 7548TIP3    H144135   1.914   2.505  12.947  0.1690 -1.0364  0.7628
 7548TIP3    H244136   1.925   2.508  12.796 -2.4744  1.3488  0.5463
 7549TIP3   OH244137   0.214   3.618   1.820 -0.0926 -0.3352  0.1753
 7549TIP3    H144138   0.277   3.627   1.748  0.8844 -2.6435  0.6228
 7549TIP3    H244139   0.268   3.604   1.897 -1.1346  1.7864  1.3587
 7550TIP3   OH244140   3.338   5.374  14.090  0.7025 -0.0396 -0.0945
 7550TIP3    H144141   3.319   5.467  14.072  1.2882  0.1130  0.0659
 7550TIP3    H244142   3.290   5.327  14.022 -1.0503  0.2775  0.8563
 7551TIP3   OH244143   4.573   0.794  16.094  0.5336  0.5613 -0.4256
 7551TIP3    H144144   4.555   0.748  16.177 -1.1696  0.2145 -0.9572
 7551TIP3    H244145   4.625   0.731  16.043 -2.6868 -1.3911 -1.5901
 7552TIP3   OH244146   0.708   6.122  15.983  0.3296 -0.0640 -0.1806
 7552TIP3    H144147   0.795   6.143  15.949  1.0547 -2.8310 -0.2413
 7552TIP3    H244148   0.708   6.158  16.071  1.0635  1.0303 -0.6003
 7553TIP3   OH244149   1.302   4.023   3.973 -0.1888 -0.5360  0.4015
 7553TIP3    H144150   1.357   3.985   4.041  0.5320  1.9473  1.3215
 7553TIP3    H244151   1.340   3.990   3.891 -0.7897 -3.1988  1.1070
 7554TIP3   OH244152   0.700   1.243  11.569 -0.4114  0.2897 -0.2402
 7554TIP3    H144153   0.757   1.172  11.540 -1.4499 -0.7405  0.1735
 7554TIP3    H244154   0.613   1.203  11.575 -1.3018  1.9453 -1.3736
 7555TIP3   OH244155   3.546   4.756  16.158  0.2918 -0.3262 -0.0517
 7555TIP3    H144156   3.623   4.748  16.213 -1.2112 -1.0728  2.0662
 7555TIP3    H244157   3.525   4.666  16.132  0.4147 -0.0774 -1.0589
 7556TIP3   OH244158   0.485   2.928  11.643 -0.1336 -0.3564 -0.5532
 7556TIP3    H144159   0.557   2.958  11.697  0.9248  0.5649 -2.3990
 7556TIP3    H244160   0.527   2.887  11.568 -1.5028  0.4692 -1.8151
 7557TIP3   OH244161   3.915   1.646  11.936  0.0614  0.1745  0.1894
 7557TIP3    H144162   3.945   1.726  11.979 -0.1646  0.2753  0.1602
 7557TIP3    H244163   3.962   1.644  11.853 -1.0318  1.0529 -0.4799
 7558TIP3   OH244164   1.289   2.985   6.820  0.1268 -0.4319 -0.0349
 7558TIP3    H144165   1.271   3.069   6.861  0.4429  0.6825 -2.0313
 7558TIP3    H244166   1.212   2.968   6.766 -0.1045 -1.6328  0.6485
 7559TIP3   OH244167   5.471   1.662  13.813  0.3197 -0.0344  0.1064
 7559TIP3    H144168   5.501   1.591  13.869 -1.2367 -0.6886  0.1740
 7559TIP3    H244169   5.551   1.703  13.780  1.2542 -1.4946  0.4689
 7560TIP3   OH244170   0.733   0.016   1.453 -0.3343  0.0121 -0.0157
 7560TIP3    H144171   0.673  -0.052   1.422 -2.4683  1.4282  0.8589
 7560TIP3    H244172   0.800  -0.033   1.502 -2.2891 -1.4297  1.3775
 7561TIP3   OH244173   6.457   1.438  15.437 -0.2200 -1.0101  0.8482
 7561TIP3    H144174   6.531   1.380  15.418  0.5016  0.5529 -1.4741
 7561TIP3    H244175   6.487   1.494  15.508  1.5995  0.8068 -1.2452
 7562TIP3   OH244176   6.767   1.896  12.992 -0.3008 -0.4014  0.0182
 7562TIP3    H144177   6.709   1.919  13.065 -0.0256 -0.2686  0.1942
 7562TIP3    H244178   6.801   1.810  13.015  0.2741 -0.0914  0.3533
 7563TIP3   OH244179   3.591   6.808  13.671  0.3603  0.3344  0.1769
 7563TIP3    H144180   3.580   6.859  13.590 -0.1182 -1.5231 -1.0006
 7563TIP3    H244181   3.671   6.843  13.711 -0.4787  2.6493 -0.0169
 7564TIP3   OH244182   1.033   0.823  10.403  0.1183 -0.0164 -0.1537
 7564TIP3    H144183   1.107   0.844  10.345 -0.4550  1.0222 -0.5319
 7564TIP3    H244184   1.048   0.732  10.430  1.1007 -0.0750 -0.8686
 7565TIP3   OH244185   2.597   1.250   3.108  0.1588 -0.3862  0.2776
 7565TIP3    H144186   2.683   1.289   3.128  0.3069 -1.0866  1.0383
 7565TIP3    H244187   2.587   1.263   3.014  0.7298  0.4371  0.3112
 7566TIP3   OH244188   5.658   3.638  11.709 -0.3249 -0.4884 -0.5221
 7566TIP3    H144189   5.667   3.683  11.624  0.7617 -1.3369 -0.8806
 7566TIP3    H244190   5.641   3.547  11.686 -0.6636 -0.6070  0.1891
 7567TIP3   OH244191   1.480   1.598  13.773 -0.4228 -0.9176 -0.1297
 7567TIP3    H144192   1.571   1.567  13.778  0.1181  0.6752  0.3754
 7567TIP3    H244193   1.448   1.561  13.691  1.6299  0.8017 -1.8444
 7568TIP3   OH244194   6.413   5.401   5.924 -0.0190  1.1537  0.2239
 7568TIP3    H144195   6.412   5.441   5.837  0.5239 -1.8121 -1.2625
 7568TIP3    H244196   6.506   5.388   5.944 -0.1691 -0.3874  0.0823
 7569TIP3   OH244197   3.796   1.432  16.765  0.0812 -0.2273  0.2226
 7569TIP3    H144198   3.890   1.446  16.774  0.2725  0.4441 -2.0542
 7569TIP3    H244199   3.756   1.491  16.829  1.1753  1.8208 -0.8843
 7570TIP3   OH244200   2.654   3.277  16.078  0.0125  0.1471  0.1546
 7570TIP3    H144201   2.708   3.254  16.153  0.5308  1.1939  0.1274
 7570TIP3    H244202   2.717   3.296  16.008 -0.4295  0.1497 -0.2527
 7571TIP3   OH244203   3.411   1.991   5.363 -0.3439  0.1411 -0.4101
 7571TIP3    H144204   3.357   1.946   5.299 -0.5529 -0.2123  0.0034
 7571TIP3    H244205   3.468   1.922   5.398  0.1967  0.4566 -0.6580
 7572TIP3   OH244206   3.936   3.701   2.457  0.0855 -0.7391  0.4826
 7572TIP3    H144207   4.026   3.699   2.489  0.7335 -0.0977 -1.1684
 7572TIP3    H244208   3.934   3.635   2.387 -0.4440 -0.0718 -0.1460
 7573TIP3   OH244209   5.350   3.321  13.660  0.0701  0.4000 -0.1596
 7573TIP3    H144210   5.319   3.232  13.643  1.7879 -0.8430  2.5827
 7573TIP3    H244211   5.389   3.349  13.577  1.6973 -2.4097 -0.4702
 7574TIP3   OH244212   3.975   6.664  17.088 -0.1306  0.3565 -0.5708
 7574TIP3    H144213   3.988   6.631  17.177  0.2972 -0.1311 -0.8069
 7574TIP3    H244214   3.908   6.731  17.097 -0.7548 -0.3202 -0.0139
 7575TIP3   OH244215   4.425   2.546   0.082  0.2234 -0.7311  0.3588
 7575TIP3    H144216   4.454   2.455   0.088  1.2923 -0.3473  1.5776
 7575TIP3    H244217   4.461   2.587   0.161 -0.1712  0.7607 -0.2136
 7576TIP3   OH244218   5.374   6.315   4.833 -0.1170 -0.0978 -0.5632
 7576TIP3    H144219   5.375   6.408   4.810  0.5806  0.2329  0.6625
 7576TIP3    H244220   5.342   6.271   4.755 -2.2776  1.3226 -0.5752
 7577TIP3   OH244221   2.363   4.503   4.807  0.1080  0.1979 -0.0254
 7577TIP3    H144222   2.361   4.407   4.799 -0.6127  0.2432 -0.5396
 7577TIP3    H244223   2.427   4.520   4.876  2.0268 -0.5639 -1.5113
 7578TIP3   OH244224   3.347   6.639  15.031  0.4439  0.3937 -0.0567
 7578TIP3    H144225   3.320   6.612  14.943  0.3543  0.2308  0.0213
 7578TIP3    H244226   3.306   6.576  15.090  2.9849 -1.3756 -0.0736
 7579TIP3   OH244227   6.567   6.232   5.552  0.0814  0.0070 -0.2212
 7579TIP3    H144228   6.659   6.240   5.529  0.4906 -2.1384  0.4716
 7579TIP3    H244229   6.565   6.237   5.647 -0.6892  1.2283 -0.2763
 7580TIP3   OH244230   0.973   5.611   5.018  0.2987  0.1163  0.2541
 7580TIP3    H144231   1.013   5.668   5.084 -0.4073  1.6965 -0.6083
 7580TIP3    H244232   0.897   5.574   5.061 -0.8072  2.0218  0.0655
 7581TIP3   OH244233   3.147   0.019   4.198 -0.3907  0.2771  0.2708
 7581TIP3    H144234   3.166  -0.063   4.152  0.1359 -0.1607  1.2443
 7581TIP3    H244235   3.227   0.038   4.247 -1.5899 -0.3778  2.6308
 7582TIP3   OH244236   6.709   3.909   3.947 -0.0007 -0.4163  0.1222
 7582TIP3    H144237   6.655   3.844   3.991 -0.5607 -0.4859 -0.6467
 7582TIP3    H244238   6.731   3.972   4.015 -0.7776 -0.5639  0.5242
 7583TIP3   OH244239   3.271   6.247  16.746  0.2535  0.0452  0.3669
 7583TIP3    H144240   3.177   6.240  16.732 -0.0067  0.6362  1.6639
 7583TIP3    H244241   3.306   6.161  16.722 -0.7150 -0.4191  0.6050
 7584TIP3   OH244242   0.178   3.358   6.571 -0.0668 -0.2329  0.0521
 7584TIP3    H144243   0.243   3.381   6.638  0.5414  0.2580 -0.6989
 7584TIP3    H244244   0.112   3.427   6.579  0.9502  0.9208 -1.1055
 7585TIP3   OH244245   0.057   1.794  11.015 -0.4476 -0.2507 -0.1888
 7585TIP3    H144246   0.051   1.728  10.946 -1.1042  0.4674 -0.8335
 7585TIP3    H244247  -0.033   1.824  11.028 -0.2594 -0.0070  0.6202
 7586TIP3   OH244248   6.807   3.149  16.771 -0.0947 -0.1747  0.2939
 7586TIP3    H144249   6.808   3.054  16.758 -1.0423 -0.3884  1.5024
 7586TIP3    H244250   6.873   3.165  16.838 -0.1719 -0.0306  0.3374
 7587TIP3   OH244251   4.238   5.928   1.517  0.3241  0.1878  0.2731
 7587TIP3    H144252   4.319   5.936   1.568  1.8914  2.3734 -2.2832
 7587TIP3    H244253   4.168   5.931   1.583  2.2384 -0.5744  2.4902
 7588TIP3   OH244254   4.968   2.337   5.937  0.1002 -0.3516 -0.3777
 7588TIP3    H144255   5.009   2.271   5.993 -4.0335 -2.2584  0.7801
 7588TIP3    H244256   4.957   2.413   5.995  1.4219 -0.0147 -0.5471
 7589TIP3   OH244257   3.694   2.033  13.751 -0.0235 -0.2416 -0.0980
 7589TIP3    H144258   3.769   2.061  13.700  1.3459 -2.3328  0.6532
 7589TIP3    H244259   3.644   1.976  13.692  0.6974 -1.3553  0.3254
 7590TIP3   OH244260   2.379   6.110  12.898 -0.5344  0.2644  0.0095
 7590TIP3    H144261   2.376   6.055  12.976  1.9331 -1.2024 -0.8330
 7590TIP3    H244262   2.416   6.193  12.928  0.6916 -0.4004  0.3609
 7591TIP3   OH244263   3.452   6.444  13.941 -0.0765  0.0858 -0.6798
 7591TIP3    H144264   3.507   6.404  14.008 -0.7784  0.9952  0.4819
 7591TIP3    H244265   3.374   6.389  13.938  0.4643 -0.6648 -1.6619
 7592TIP3   OH244266   1.665   6.212  13.351 -0.3612 -0.0556  0.5490
 7592TIP3    H144267   1.682   6.152  13.424 -1.3383  0.7206  1.4561
 7592TIP3    H244268   1.628   6.156  13.283  2.3209 -1.1342 -0.1435
 7593TIP3   OH244269   1.559   2.569   5.523 -0.2828  0.2760 -0.3263
 7593TIP3    H144270   1.538   2.610   5.607 -1.1936 -1.7607  0.5086
 7593TIP3    H244271   1.642   2.610   5.497 -0.2051  1.2886  1.3182
 7594TIP3   OH244272   3.224   0.318   6.041  0.7214 -0.6939 -0.2701
 7594TIP3    H144273   3.293   0.337   5.977  2.0048 -1.0153  0.9722
 7594TIP3    H244274   3.226   0.223   6.050  0.4658 -0.6612  0.1460
 7595TIP3   OH244275   1.887   2.869   4.402  0.4756  0.0552  0.6460
 7595TIP3    H144276   1.856   2.932   4.336 -1.8612 -1.1732  0.4804
 7595TIP3    H244277   1.809   2.820   4.427  1.4303 -0.0414  3.8226
 7596TIP3   OH244278   0.892   0.319   5.452 -0.0321 -0.2436 -0.8762
 7596TIP3    H144279   0.798   0.338   5.455  0.1369  1.2070 -2.6818
 7596TIP3    H244280   0.912   0.311   5.359  1.3188 -2.4880 -0.4651
 7597TIP3   OH244281   0.240   1.018  13.403 -0.4720  0.0299  0.2863
 7597TIP3    H144282   0.333   1.017  13.425  0.0783 -1.5567 -1.7433
 7597TIP3    H244283   0.220   0.927  13.380 -2.1419  0.6009 -0.6995
 7598TIP3   OH244284   6.409   5.257   1.020  0.3182  0.1750  0.2163
 7598TIP3    H144285   6.471   5.217   0.960 -1.2471 -0.0733 -1.3161
 7598TIP3    H244286   6.412   5.202   1.098  2.4059  0.5124  0.4393
 7599TIP3   OH244287   0.345   5.550  14.338  0.8409  0.2097 -0.3366
 7599TIP3    H144288   0.274   5.582  14.393 -0.2131 -2.3579 -0.0451
 7599TIP3    H244289   0.319   5.574  14.249 -0.1074 -0.1283 -0.1697
 7600TIP3   OH244290   0.149   3.920   4.612  0.2205 -0.0050 -0.2808
 7600TIP3    H144291   0.116   3.969   4.688 -2.8929 -0.1980 -1.3731
 7600TIP3    H244292   0.157   3.830   4.644  0.8340  0.2607  0.3331
 7601TIP3   OH244293   1.114   5.214   3.828  0.4145 -0.2609  0.0602
 7601TIP3    H144294   1.131   5.122   3.809  0.0229 -0.3379  0.0707
 7601TIP3    H244295   1.201   5.251   3.845  0.6671 -0.4284 -0.8094
 7602TIP3   OH244296   5.466   5.227  13.911 -0.9404 -0.2524  0.4061
 7602TIP3    H144297   5.403   5.170  13.956 -1.5129  1.3969  1.8270
 7602TIP3    H244298   5.416   5.308  13.895  0.7301  1.0606  1.4603
 7603TIP3   OH244299   2.414   4.526   2.570 -0.0443 -0.0084  0.1914
 7603TIP3    H144300   2.486   4.587   2.556 -0.5048  0.4293 -0.3011
 7603TIP3    H244301   2.412   4.513   2.665 -0.7180  1.7305  0.4580
 7604TIP3   OH244302   1.442   5.497  16.792  0.4086  0.3652 -0.5094
 7604TIP3    H144303   1.382   5.569  16.812  0.4820 -0.0051  1.1537
 7604TIP3    H244304   1.398   5.449  16.721 -0.7829  0.6769 -0.0109
 7605TIP3   OH244305   2.173   1.009  10.185 -0.1179  0.3681  0.1851
 7605TIP3    H144306   2.175   0.922  10.146  1.7309  0.5751 -0.2819
 7605TIP3    H244307   2.138   0.996  10.273 -1.5221 -0.5539 -0.4703
 7606TIP3   OH244308   0.774   3.432   0.444 -0.1384 -0.1783  0.1554
 7606TIP3    H144309   0.837   3.424   0.516  1.6637 -2.1407 -1.4911
 7606TIP3    H244310   0.819   3.483   0.377 -1.0764  0.0743 -0.3069
 7607TIP3   OH244311   5.392   4.168   3.658  0.0114 -0.4836  0.0526
 7607TIP3    H144312   5.344   4.216   3.726  0.1340  0.2083 -0.3410
 7607TIP3    H244313   5.328   4.154   3.589  0.4396  0.7593 -0.6302
 7608TIP3   OH244314   6.279   1.270   6.446  0.5963 -0.3218 -0.0770
 7608TIP3    H144315   6.252   1.346   6.394  0.1463 -0.8856 -0.6864
 7608TIP3    H244316   6.280   1.302   6.536  0.0087  0.2965 -0.2769
 7609TIP3   OH244317   1.082   1.464  13.688  0.7149 -0.1841 -0.0250
 7609TIP3    H144318   1.087   1.447  13.782 -1.2206 -0.9686 -0.0253
 7609TIP3    H244319   1.091   1.559  13.680 -3.2637  0.4872  1.4159
 7610TIP3   OH244320   4.187   3.565  15.275  0.4179 -0.1526 -0.2864
 7610TIP3    H144321   4.229   3.563  15.189  1.7026 -1.5753  0.3272
 7610TIP3    H244322   4.248   3.613  15.331 -0.8689  1.6378 -0.3411
 7611TIP3   OH244323   0.925   3.138   0.581  0.0893  0.4581 -0.2163
 7611TIP3    H144324   1.001   3.161   0.635 -0.2317 -0.9185  0.8769
 7611TIP3    H244325   0.853   3.189   0.619  0.1203  0.4463 -0.1410
 7612TIP3   OH244326   1.382   3.726  16.318  0.3736  0.3734  0.3871
 7612TIP3    H144327   1.407   3.801  16.372 -0.1359  0.4705  0.4963
 7612TIP3    H244328   1.411   3.749  16.230  1.0875  0.2732  0.5857
 7613TIP3   OH244329   0.980   6.652  12.911  0.1210 -0.4135  0.0409
 7613TIP3    H144330   0.898   6.684  12.948  0.0845 -0.0722 -0.3323
 7613TIP3    H244331   0.953   6.590  12.843  0.1726 -0.3606 -0.0279
 7614TIP3   OH244332   1.535   4.927  11.742  0.1094 -0.1299 -0.2898
 7614TIP3    H144333   1.626   4.916  11.714  1.2758  2.3750  1.9790
 7614TIP3    H244334   1.521   5.022  11.741 -1.4167 -0.2220  2.2591
 7615TIP3   OH244335   3.222   4.556  13.280  0.3226  0.1408 -0.1325
 7615TIP3    H144336   3.169   4.621  13.326  0.9684  0.5726  0.0134
 7615TIP3    H244337   3.234   4.485  13.343  1.3411  0.8033  0.4515
 7616TIP3   OH244338   4.217   1.393  14.919 -0.4098  0.5372 -0.1168
 7616TIP3    H144339   4.260   1.320  14.875  1.6120  0.9692  0.9891
 7616TIP3    H244340   4.261   1.399  15.004 -1.2497  2.3647  0.2448
 7617TIP3   OH244341   5.315   6.037  15.464  0.0050 -0.2256  0.2728
 7617TIP3    H144342   5.262   5.993  15.531  0.7957  0.4720  1.3980
 7617TIP3    H244343   5.378   5.970  15.436 -0.4844 -0.5953  0.0332
 7618TIP3   OH244344   0.715   1.962  16.370  0.0925  0.6218 -0.6761
 7618TIP3    H144345   0.649   2.010  16.320  0.7315  0.3551 -1.8104
 7618TIP3    H244346   0.761   1.909  16.305  0.4496 -0.3278  0.3189
 7619TIP3   OH244347   3.105   6.584   2.717  0.1126  0.0787  0.2275
 7619TIP3    H144348   3.123   6.619   2.804  1.3384 -1.0736  0.4749
 7619TIP3    H244349   3.060   6.655   2.671 -0.4838  0.7345  1.7591
 7620TIP3   OH244350   2.124   2.347  15.390 -0.2004  0.0591 -0.1596
 7620TIP3    H144351   2.039   2.391  15.384 -0.7308 -0.8536  0.5518
 7620TIP3    H244352   2.156   2.369  15.477 -0.1044 -0.3155 -0.1004
 7621TIP3   OH244353   2.487   5.710  17.261  0.3970  0.1053 -0.2691
 7621TIP3    H144354   2.539   5.671  17.191  1.6550  1.3523 -0.0735
 7621TIP3    H244355   2.397   5.684  17.241  1.0872 -2.4598 -0.3958
 7622TIP3   OH244356   4.091   2.439   4.678  0.4762 -0.1266 -0.1728
 7622TIP3    H144357   4.039   2.363   4.704  1.8961 -0.7752  0.9237
 7622TIP3    H244358   4.176   2.403   4.652  0.7626  0.9862 -0.8428
 7623TIP3   OH244359   3.994   3.266   3.132 -0.2335 -0.0026 -0.0367
 7623TIP3    H144360   4.078   3.265   3.177 -0.5758 -1.4268  0.6107
 7623TIP3    H244361   3.975   3.174   3.113 -1.6554  0.2827 -0.1548
 7624TIP3   OH244362   0.444   6.240   3.859 -0.3309  0.6016  0.3603
 7624TIP3    H144363   0.527   6.235   3.812  0.6506  2.7310  1.6902
 7624TIP3    H244364   0.405   6.323   3.829  0.0566  1.7381  2.7352
 7625TIP3   OH244365   0.629   4.533   5.033 -0.4065 -0.2873 -0.0225
 7625TIP3    H144366   0.715   4.492   5.022 -0.0100  0.7268 -0.8649
 7625TIP3    H244367   0.639   4.620   4.995 -1.6986 -0.0051  0.2432
 7626TIP3   OH244368   5.645   0.052  15.136  0.0425  0.3243  0.3272
 7626TIP3    H144369   5.593  -0.017  15.178  1.5062 -0.7458  0.4517
 7626TIP3    H244370   5.639   0.126  15.195  0.6570 -0.5971  1.5751
 7627TIP3   OH244371   2.448   0.126  16.272  0.5542 -0.1296  0.0618
 7627TIP3    H144372   2.403   0.138  16.356 -1.9379 -0.7832 -1.0961
 7627TIP3    H244373   2.479   0.036  16.274 -0.2715 -0.4211 -0.0563
 7628TIP3   OH244374   2.720   0.948   2.454  0.5665  0.0157 -0.5069
 7628TIP3    H144375   2.637   0.991   2.432  0.9123  0.5877 -0.7173
 7628TIP3    H244376   2.728   0.877   2.391 -0.5495 -1.0753  0.5400
 7629TIP3   OH244377   5.616   6.453  11.044 -0.1997  0.1964  0.0527
 7629TIP3    H144378   5.561   6.382  11.077  2.4429 -1.7851  0.5235
 7629TIP3    H244379   5.679   6.469  11.114 -0.3672  2.6597 -0.2861
 7630TIP3   OH244380   2.437   2.274  15.417 -0.5829  0.0463 -0.7481
 7630TIP3    H144381   2.432   2.184  15.450  0.8670  0.6165  1.2356
 7630TIP3    H244382   2.376   2.323  15.471 -0.2922  0.5076 -0.8345
 7631TIP3   OH244383   2.105   5.378   4.871  0.0374 -0.1855  0.4146
 7631TIP3    H144384   2.196   5.350   4.873 -0.0796 -0.6107  0.0410
 7631TIP3    H244385   2.100   5.448   4.936  1.1104  1.3437 -1.0623
 7632TIP3   OH244386   5.537   2.026  17.143  0.2354  0.0099 -0.2859
 7632TIP3    H144387   5.622   2.009  17.185 -0.7571 -1.5644  1.2147
 7632TIP3    H244388   5.480   2.053  17.215 -0.4303  1.6443 -1.3667
 7633TIP3   OH244389   2.886   5.095  16.461 -0.2477  0.2780 -0.0791
 7633TIP3    H144390   2.841   5.177  16.440 -0.9425  0.1038  0.6555
 7633TIP3    H244391   2.934   5.072  16.381 -2.2994 -0.0640 -1.3018
 7634TIP3   OH244392   5.934   0.706   1.141 -0.5463  0.1958 -0.5809
 7634TIP3    H144393   5.840   0.699   1.127 -0.6324  3.5453 -3.2254
 7634TIP3    H244394   5.973   0.650   1.074 -0.7146  0.3712 -0.8281
 7635TIP3   OH244395   5.528   3.729  13.601  0.6942  0.3051 -0.0343
 7635TIP3    H144396   5.478   3.649  13.615  1.2033  0.1223  0.8033
 7635TIP3    H244397   5.474   3.799  13.636 -1.1928  0.8317 -3.5240
 7636TIP3   OH244398   1.756   6.324  12.924  0.1242 -0.6046  0.2882
 7636TIP3    H144399   1.851   6.337  12.924  0.1831 -1.0212  0.4174
 7636TIP3    H244400   1.736   6.294  12.835  0.0691 -0.2285  0.1700
 7637TIP3   OH244401   1.100   0.255   4.444 -0.6068 -0.7403  0.1294
 7637TIP3    H144402   1.050   0.240   4.364  2.4144  0.1492 -2.1095
 7637TIP3    H244403   1.158   0.329   4.423  1.6069 -1.6504  2.4656
 7638TIP3   OH244404   1.942   0.883  11.745  0.5010 -0.6609  0.0245
 7638TIP3    H144405   2.011   0.825  11.715  1.6626  0.1863  0.9603
 7638TIP3    H244406   1.982   0.934  11.815 -0.8791  0.3212  0.1448
 7639TIP3   OH244407   3.099   0.822  13.054 -0.1664 -0.1212 -0.2486
 7639TIP3    H144408   3.085   0.868  12.972 -0.5183 -1.6268 -1.0667
 7639TIP3    H244409   3.023   0.765  13.063  0.4460 -0.8421  0.5151
 7640TIP3   OH244410   3.274   2.650   4.402 -0.0960  0.0992 -0.4852
 7640TIP3    H144411   3.219   2.572   4.399 -0.6529  0.4618 -0.0314
 7640TIP3    H244412   3.212   2.722   4.419  0.2545  0.7809 -1.9205
 7641TIP3   OH244413   5.483   0.675  15.472  0.2884 -0.2544  0.1094
 7641TIP3    H144414   5.424   0.672  15.396 -0.4258 -0.9643  0.6824
 7641TIP3    H244415   5.563   0.715  15.438 -0.1353 -0.2682 -0.9452
 7642TIP3   OH244416   6.647   4.072  12.977  0.1387  0.0242 -0.2430
 7642TIP3    H144417   6.586   4.004  13.007  0.2038 -2.8497 -5.4582
 7642TIP3    H244418   6.591   4.135  12.931  0.4915  1.6037  1.3953
 7643TIP3   OH244419   3.543   6.678  12.955  0.2315 -0.3199  0.6839
 7643TIP3    H144420   3.514   6.590  12.979  0.1278 -0.1036  1.3483
 7643TIP3    H244421   3.639   6.673  12.956  0.2297 -0.2963  1.2054
 7644TIP3   OH244422   4.990   2.457  16.537 -0.1295  0.5946  0.0262
 7644TIP3    H144423   4.968   2.379  16.485 -0.3206  0.7344 -0.1046
 7644TIP3    H244424   5.085   2.465  16.530 -0.1642  0.6513 -0.3513
 7645TIP3   OH244425   0.187   5.252   4.732 -0.1192 -0.0400  0.2409
 7645TIP3    H144426   0.116   5.188   4.731 -0.2181  0.0626 -1.6305
 7645TIP3    H244427   0.145   5.335   4.707  0.4560  0.2500  0.2233
 7646TIP3   OH244428   5.195   2.696  11.288 -0.4376  0.1156  0.1110
 7646TIP3    H144429   5.177   2.612  11.329 -0.8434  1.3112  2.5493
 7646TIP3    H244430   5.138   2.698  11.211 -0.1910 -1.9152 -0.1710
 7647TIP3   OH244431   2.246   5.031   6.226 -0.4489 -0.1554 -0.0117
 7647TIP3    H144432   2.215   4.962   6.285 -1.4401 -0.9319 -1.3808
 7647TIP3    H244433   2.177   5.097   6.227  0.5201  0.8896  1.3316
 7648TIP3   OH244434   2.319   3.867  17.026 -0.7247  0.0270 -0.3585
 7648TIP3    H144435   2.398   3.876  16.972 -0.1532 -0.1115  0.4411
 7648TIP3    H244436   2.248   3.896  16.969  0.0703  1.6404 -0.5891
 7649TIP3   OH244437   4.528   5.277   5.813 -0.0477  0.1236 -0.5071
 7649TIP3    H144438   4.582   5.271   5.734  1.2893  2.2906  0.1758
 7649TIP3    H244439   4.441   5.301   5.779  0.8080  2.3973 -1.3435
 7650TIP3   OH244440   1.851   6.727   5.932  0.1941 -0.6397 -0.2654
 7650TIP3    H144441   1.897   6.805   5.962 -0.9040 -0.0964  0.0683
 7650TIP3    H244442   1.836   6.676   6.011 -0.3996 -0.4596 -0.2527
 7651TIP3   OH244443   1.109   2.347  10.766  0.1800  0.4391  0.2944
 7651TIP3    H144444   1.108   2.413  10.697  1.2309  0.1943  0.0106
 7651TIP3    H244445   1.112   2.264  10.718 -0.3360  0.2178  0.6432
 7652TIP3   OH244446   6.444   2.911  12.026 -0.2092  0.0157 -0.3917
 7652TIP3    H144447   6.450   2.947  12.115 -3.3908 -0.4183  0.1346
 7652TIP3    H244448   6.526   2.863  12.014  1.0256  1.4555  1.6485
 7653TIP3   OH244449   3.081   1.372   1.243 -0.0372 -1.1103  0.5607
 7653TIP3    H144450   3.167   1.335   1.264 -1.0128 -3.7393  0.2949
 7653TIP3    H244451   3.080   1.374   1.147  0.1706  0.1525  0.5672
 7654TIP3   OH244452   4.941   4.241  17.116 -0.3640  0.3228 -0.2180
 7654TIP3    H144453   4.942   4.300  17.041 -1.1879 -0.6036 -0.9877
 7654TIP3    H244454   4.889   4.166  17.087 -0.0004 -0.4337  0.9956
 7655TIP3   OH244455   5.749   5.573   1.384 -0.2822 -0.0711 -0.0393
 7655TIP3    H144456   5.837   5.538   1.396 -1.3251 -2.7490  0.5322
 7655TIP3    H244457   5.725   5.547   1.294 -1.2727 -1.4307  0.5805
 7656TIP3   OH244458   5.759   1.523  15.302 -0.0924  0.0380  0.1048
 7656TIP3    H144459   5.820   1.513  15.229  0.4036  0.7086  0.4186
 7656TIP3    H244460   5.788   1.602  15.346 -0.5379 -0.2289  0.8891
 7657TIP3   OH244461   2.549   2.466  10.938  0.0234 -0.2213  0.0862
 7657TIP3    H144462   2.525   2.464  10.846 -0.6287 -1.4516  0.2592
 7657TIP3    H244463   2.598   2.547  10.949  0.2681 -0.1525 -1.3758
 7658TIP3   OH244464   2.152   4.627   6.029  0.0086 -0.1311 -0.6844
 7658TIP3    H144465   2.241   4.660   6.033  0.1146 -0.4154 -0.6883
 7658TIP3    H244466   2.160   4.533   6.041 -0.5616  0.1274  2.4827
 7659TIP3   OH244467   3.881   1.443   5.461 -0.2361  0.1152  0.2609
 7659TIP3    H144468   3.934   1.516   5.492  0.9970 -0.4191 -0.5556
 7659TIP3    H244469   3.943   1.371   5.448 -0.8005  0.0213 -2.5337
 7660TIP3   OH244470   2.696   5.838  16.882 -0.5385  0.5789 -0.2764
 7660TIP3    H144471   2.680   5.761  16.936  2.1887 -0.1787 -0.3846
 7660TIP3    H244472   2.711   5.909  16.944 -1.1230  0.5820 -0.1361
 7661TIP3   OH244473   1.410   1.929   5.024 -0.1873 -0.1683  0.1479
 7661TIP3    H144474   1.364   2.008   5.054 -1.0952 -0.4224 -0.5165
 7661TIP3    H244475   1.379   1.916   4.935  1.2562 -0.3344 -0.3521
 7662TIP3   OH244476   4.026   5.393   3.933  0.7672  1.3951  0.2935
 7662TIP3    H144477   4.089   5.397   3.861  1.3901  0.4301  0.7612
 7662TIP3    H244478   4.070   5.341   4.000 -0.7218  0.2189  0.4153
 7663TIP3   OH244479   5.161   0.546  12.330 -0.6410  0.4637 -0.6580
 7663TIP3    H144480   5.159   0.450  12.327 -1.6805  0.1806  3.4035
 7663TIP3    H244481   5.247   0.569  12.295 -0.5290 -1.8515 -2.1469
 7664TIP3   OH244482   3.756   5.110   2.585  0.6294 -0.2345  0.0939
 7664TIP3    H144483   3.776   5.191   2.539  1.0789 -1.1312 -1.3539
 7664TIP3    H244484   3.719   5.052   2.518 -2.8782 -0.1644  1.7333
 7665TIP3   OH244485   4.682   5.780   3.437 -0.2641  0.1265  0.2468
 7665TIP3    H144486   4.642   5.727   3.368 -0.4783  0.9024 -0.2370
 7665TIP3    H244487   4.734   5.845   3.391  1.8285 -1.0244  0.8653
 7666TIP3   OH244488   0.636   6.685  12.166 -0.2418 -0.0983 -0.3846
 7666TIP3    H144489   0.622   6.779  12.156  0.7719  0.3400  1.7733
 7666TIP3    H244490   0.673   6.675  12.254 -2.9221 -2.7638  0.6424
 7667TIP3   OH244491   2.922   6.652  12.489  0.6368 -0.0467  0.0579
 7667TIP3    H144492   2.857   6.655  12.419 -0.3466 -0.9055  0.8948
 7667TIP3    H244493   2.926   6.559  12.512  3.5410 -0.3233 -1.1948
 7668TIP3   OH244494   1.427   3.236   5.999 -0.1509  0.0211  0.2562
 7668TIP3    H144495   1.440   3.158   6.052  1.8443 -0.6780 -1.1102
 7668TIP3    H244496   1.442   3.309   6.059 -2.3053 -0.5864  1.6113
 7669TIP3   OH244497   3.219   6.781  15.475  0.4541  0.2705  0.3124
 7669TIP3    H144498   3.229   6.688  15.454 -0.6250 -0.0940  1.3347
 7669TIP3    H244499   3.269   6.794  15.555  0.2970  0.5028  0.3752
 7670TIP3   OH244500   6.535   1.826   3.882 -0.2962  0.0496  0.5877
 7670TIP3    H144501   6.536   1.916   3.913 -3.2010  0.7375 -1.0157
 7670TIP3    H244502   6.463   1.784   3.931 -1.1800 -0.4142 -1.0521
 7671TIP3   OH244503   3.553   3.756   0.949 -0.0734  0.1666 -0.4906
 7671TIP3    H144504   3.568   3.728   1.039 -0.1459  1.2074 -0.1349
 7671TIP3    H244505   3.493   3.830   0.957 -0.5403 -0.0951 -1.4432
 7672TIP3   OH244506   0.259   2.357   0.396 -0.0493  0.1834  0.3137
 7672TIP3    H144507   0.308   2.279   0.368  0.1643  0.3391  0.2526
 7672TIP3    H244508   0.177   2.352   0.346 -0.2187 -0.2245  0.6209
 7673TIP3   OH244509   6.686   3.681   4.574  0.3373 -0.1849  0.1189
 7673TIP3    H144510   6.642   3.636   4.646 -0.1478 -1.5248 -0.9635
 7673TIP3    H244511   6.756   3.620   4.547 -0.0285 -0.1017 -1.0712
 7674TIP3   OH244512   4.350   2.385   2.222 -0.0848  0.5651  0.0232
 7674TIP3    H144513   4.271   2.414   2.177 -0.8453 -0.3457  0.7227
 7674TIP3    H244514   4.318   2.333   2.296  1.0645  2.7923  2.2539
 7675TIP3   OH244515   3.409   2.674   1.306 -0.4663  0.0034  0.0531
 7675TIP3    H144516   3.347   2.689   1.235 -1.1188  2.3350  1.0160
 7675TIP3    H244517   3.459   2.597   1.279 -0.5634  0.8989 -3.0036
 7676TIP3   OH244518   5.745   6.062  16.495  0.1183  0.0666  0.5792
 7676TIP3    H144519   5.785   6.148  16.500  2.4290 -0.7895 -1.3069
 7676TIP3    H244520   5.807   6.004  16.539 -0.3561 -0.9582 -0.0545
 7677TIP3   OH244521   2.343   3.249   0.024  0.5317 -0.1999 -0.5052
 7677TIP3    H144522   2.340   3.204   0.108 -1.6945 -1.6153 -1.2617
 7677TIP3    H244523   2.396   3.193  -0.032 -2.3890 -2.1782 -1.4995
 7678TIP3   OH244524   5.500   1.933   2.394 -0.3803  0.3869 -0.2590
 7678TIP3    H144525   5.583   1.980   2.403  0.0339 -0.3336 -0.2110
 7678TIP3    H244526   5.503   1.896   2.306 -0.8847  0.7952 -0.4477
 7679TIP3   OH244527   2.373   0.288  13.995  0.0160 -0.0852 -0.2515
 7679TIP3    H144528   2.412   0.228  13.932  0.3282  1.6375 -1.7849
 7679TIP3    H244529   2.448   0.333  14.035 -0.2585  0.3294 -0.1985
 7680TIP3   OH244530   0.576   0.902   6.100  0.2169 -0.0693  0.1230
 7680TIP3    H144531   0.622   0.972   6.147  0.4588 -1.2477  1.7262
 7680TIP3    H244532   0.631   0.884   6.024  0.5717  0.9156  0.1259
 7681TIP3   OH244533   6.188   1.657   1.271 -0.1099 -0.1050 -0.3209
 7681TIP3    H144534   6.207   1.703   1.352 -1.7072 -0.1437  0.1102
 7681TIP3    H244535   6.126   1.712   1.225 -1.5376 -1.4587 -0.1066
 7682TIP3   OH244536   2.117   1.918   3.235 -0.1577 -0.5167  0.6187
 7682TIP3    H144537   2.152   1.838   3.274  0.4483 -0.5968 -0.0686
 7682TIP3    H244538   2.102   1.976   3.310 -0.4481 -1.2094  1.1034
 7683TIP3   OH244539   0.886   5.119   4.610 -0.2228 -0.1925  0.2921
 7683TIP3    H144540   0.979   5.143   4.618 -0.2895 -0.0710  0.7211
 7683TIP3    H244541   0.841   5.203   4.609 -0.3331 -0.2542  0.1232
 7684TIP3   OH244542   0.268   2.072  13.509 -0.2300  0.4684 -0.9776
 7684TIP3    H144543   0.211   2.051  13.434  0.0673 -1.0185 -0.8147
 7684TIP3    H244544   0.230   2.151  13.546 -2.0126 -0.2725 -1.0944
 7685TIP3   OH244545   2.595   4.193  13.668  0.5201 -0.0951 -0.7745
 7685TIP3    H144546   2.689   4.173  13.671  1.1873  2.4413 -1.7552
 7685TIP3    H244547   2.578   4.211  13.575 -0.0671  2.7955 -0.2055
 7686TIP3   OH244548   4.553   2.510   2.673  0.0587 -0.3812  0.4262
 7686TIP3    H144549   4.484   2.471   2.727  0.3083  0.0126  1.0491
 7686TIP3    H244550   4.633   2.467   2.704  0.0211 -1.3567 -0.7825
 7687TIP3   OH244551   5.231   0.237  13.111 -0.0331  0.2243 -0.1975
 7687TIP3    H144552   5.259   0.327  13.096  1.3918  0.2883  2.2743
 7687TIP3    H244553   5.166   0.243  13.181 -0.1339 -0.6529 -0.1964
 7688TIP3   OH244554   0.641   3.218   0.552 -0.6192  0.3847  0.1415
 7688TIP3    H144555   0.686   3.291   0.509  1.3462 -0.1397  1.2113
 7688TIP3    H244556   0.586   3.180   0.483 -0.7911  2.1146 -0.7407
 7689TIP3   OH244557   1.349   3.067  11.543  0.3075 -0.7537  0.1503
 7689TIP3    H144558   1.355   3.022  11.459 -0.7472 -1.4595  0.4333
 7689TIP3    H244559   1.440   3.084  11.568  0.6379 -0.7827 -0.9928
 7690TIP3   OH244560   5.608   5.212  16.988 -0.7169 -0.0587  0.5866
 7690TIP3    H144561   5.663   5.217  16.910 -1.8044 -0.0481 -0.1979
 7690TIP3    H244562   5.637   5.132  17.032  1.3403  1.0071  1.3225
 7691TIP3   OH244563   3.774   1.833  15.589  0.4065  0.0056  0.1815
 7691TIP3    H144564   3.775   1.739  15.607  0.0570 -0.0182  0.0924
 7691TIP3    H244565   3.777   1.840  15.494  1.1183  0.1052  0.2015
 7692TIP3   OH244566   1.115   4.505   5.221  0.1276 -0.7707 -0.3780
 7692TIP3    H144567   1.090   4.546   5.139  0.9083 -1.9288 -1.2179
 7692TIP3    H244568   1.177   4.566   5.261  0.4130 -0.5973 -1.0758
 7693TIP3   OH244569   0.744   5.321   1.052 -0.0036 -0.5537 -0.6160
 7693TIP3    H144570   0.812   5.370   1.006 -0.4433 -0.4636 -1.1656
 7693TIP3    H244571   0.709   5.261   0.986 -0.0816 -0.9915 -0.1851
 7694TIP3   OH244572   1.590   5.853   4.117 -0.1956 -0.5579  0.9395
 7694TIP3    H144573   1.677   5.817   4.097 -0.2980  0.2101 -1.2237
 7694TIP3    H244574   1.598   5.886   4.206  2.0243  0.2362  0.5304
 7695TIP3   OH244575   3.179   1.461   5.139 -0.1961 -0.2983 -0.7738
 7695TIP3    H144576   3.141   1.373   5.136 -0.7034 -0.0803 -3.8721
 7695TIP3    H244577   3.273   1.447   5.145 -0.3739 -0.9403  1.3523
 7696TIP3   OH244578   1.471   1.972  13.088  0.1583 -0.6607  0.1322
 7696TIP3    H144579   1.493   1.957  13.180  2.2984  1.3584  0.0253
 7696TIP3    H244580   1.543   1.932  13.039  0.0761  0.0235 -0.5679
 7697TIP3   OH244581   4.926   5.874  10.908 -0.3812 -0.0844 -0.0693
 7697TIP3    H144582   4.944   5.787  10.942  2.4249  1.2486  2.3233
 7697TIP3    H244583   4.834   5.872  10.882 -0.7910 -3.2858  1.2721
 7698TIP3   OH244584   5.584   5.596  15.703  0.1751 -0.2673  0.7698
 7698TIP3    H144585   5.647   5.636  15.642  1.0439 -2.1630  0.3668
 7698TIP3    H244586   5.507   5.652  15.696  0.7795  0.4423 -0.9369
 7699TIP3   OH244587   6.275   3.042   5.975  0.0055 -0.6601  0.1990
 7699TIP3    H144588   6.343   3.106   5.956  1.8611 -1.5973  3.0984
 7699TIP3    H244589   6.226   3.080   6.049 -0.4349 -1.5226  0.3651
 7700TIP3   OH244590   0.074   1.747   2.129  0.6495  0.0575  1.1544
 7700TIP3    H144591   0.128   1.820   2.098  1.9838 -1.3196  0.0688
 7700TIP3    H244592   0.121   1.714   2.206 -1.0907  1.6101  2.9900
 7701TIP3   OH244593   6.436   6.149   1.862  0.0176  0.1679 -0.2003
 7701TIP3    H144594   6.368   6.214   1.885 -0.1161 -0.1721  0.3809
 7701TIP3    H244595   6.512   6.202   1.840  0.0628  0.5280  0.7609
 7702TIP3   OH244596   4.311   4.062   4.519 -0.0517 -0.0938 -0.3247
 7702TIP3    H144597   4.373   4.023   4.457 -2.6413 -2.5065 -1.6051
 7702TIP3    H244598   4.285   4.144   4.478  1.1610  0.2561 -0.4556
 7703TIP3   OH244599   1.870   0.161  13.246 -0.1528  0.0238 -0.6403
 7703TIP3    H144600   1.908   0.165  13.334 -0.2722  0.6486 -0.6150
 7703TIP3    H244601   1.775   0.159  13.260 -0.2645  1.9676 -0.7735
 7704TIP3   OH244602   2.923   5.135  13.130  0.2853 -0.1363  0.1502
 7704TIP3    H144603   2.899   5.208  13.188  3.4486  2.6494 -1.6413
 7704TIP3    H244604   2.867   5.147  13.053  2.1218  1.9066 -1.0093
 7705TIP3   OH244605   0.165   1.680  16.750 -0.1706  1.0362 -0.0940
 7705TIP3    H144606   0.090   1.740  16.748 -0.2913  0.9275 -2.6779
 7705TIP3    H244607   0.185   1.664  16.657  0.9395 -1.5797  0.5037
 7706TIP3   OH244608   1.970   3.562  16.167  0.0924 -0.1257  0.0598
 7706TIP3    H144609   1.911   3.609  16.108  0.9404  2.1359  0.9267
 7706TIP3    H244610   2.027   3.512  16.108 -1.3816 -0.7874 -0.8550
 7707TIP3   OH244611   0.405   2.880  16.338  0.3735 -0.0520 -0.0793
 7707TIP3    H144612   0.408   2.844  16.249  2.8240  0.3309 -0.2178
 7707TIP3    H244613   0.314   2.907  16.350 -0.2649 -1.1209 -2.0426
 7708TIP3   OH244614   4.181   4.591   0.220  0.4672 -0.0440 -0.1445
 7708TIP3    H144615   4.275   4.592   0.240  0.3635 -0.2042  0.3781
 7708TIP3    H244616   4.176   4.606   0.126  1.1003 -1.5744 -0.4553
 7709TIP3   OH244617   1.013   6.305  13.454 -0.0373 -0.2378 -0.0067
 7709TIP3    H144618   1.102   6.340  13.457 -0.6308  1.2560  1.6974
 7709TIP3    H244619   0.986   6.298  13.546 -1.2046 -2.0192 -0.4224
 7710TIP3   OH244620   5.345   4.901   2.579 -0.0497 -0.1921 -0.1426
 7710TIP3    H144621   5.310   4.866   2.661  0.0500  0.4258  0.1686
 7710TIP3    H244622   5.432   4.862   2.572  0.9567  1.5864  1.3038
 7711TIP3   OH244623   3.947   0.091  12.323  0.4019  0.2664  0.1414
 7711TIP3    H144624   4.002   0.146  12.268 -1.5687  2.5283  0.2591
 7711TIP3    H244625   3.960   0.002  12.289  2.3092  1.0308 -1.2863
 7712TIP3   OH244626   4.854   4.755   1.375 -0.5946 -0.6169  0.0136
 7712TIP3    H144627   4.811   4.773   1.291  0.6728  0.6758 -0.4111
 7712TIP3    H244628   4.940   4.721   1.350 -0.3999 -0.6937  0.7925
 7713TIP3   OH244629   4.453   5.684   0.907  0.0785 -0.2623  0.1514
 7713TIP3    H144630   4.535   5.660   0.950 -1.2839 -2.5231  1.7142
 7713TIP3    H244631   4.479   5.732   0.829  2.8545 -0.5148  0.8475
 7714TIP3   OH244632   2.887   5.569  13.311 -0.2405 -0.6553 -0.6394
 7714TIP3    H144633   2.932   5.536  13.389  0.3470 -1.8868 -1.4699
 7714TIP3    H244634   2.830   5.639  13.345  0.2702 -0.8997  0.8295
 7715TIP3   OH244635   4.561   4.462  10.888 -0.0876  0.3702  0.4935
 7715TIP3    H144636   4.498   4.497  10.951 -1.0485 -0.8619  0.2417
 7715TIP3    H244637   4.588   4.539  10.837 -1.1121  0.9718  0.8314
 7716TIP3   OH244638   2.111   3.381   1.265  0.1606 -0.3744 -0.3691
 7716TIP3    H144639   2.179   3.345   1.322  0.1554 -0.8432 -0.6542
 7716TIP3    H244640   2.029   3.356   1.306  0.1567 -0.4005 -0.3933
 7717TIP3   OH244641   6.802   5.150   3.702 -0.0005  0.6012 -0.4366
 7717TIP3    H144642   6.716   5.160   3.743  0.8205  1.6212  1.1295
 7717TIP3    H244643   6.787   5.091   3.629 -1.8443 -0.0318  0.4002
 7718TIP3   OH244644   4.829   5.291   4.632 -0.0665  0.5913 -0.0534
 7718TIP3    H144645   4.867   5.203   4.638  0.1179  0.7221  1.0942
 7718TIP3    H244646   4.760   5.291   4.699 -2.1527  0.3620 -2.0657
 7719TIP3   OH244647   3.634   0.369   2.928 -0.1650  0.1252  0.0097
 7719TIP3    H144648   3.639   0.318   3.009  0.0852 -0.4851 -0.3765
 7719TIP3    H244649   3.725   0.373   2.898 -0.0464  1.5629  0.4799
 7720TIP3   OH244650   0.068   0.039   3.833 -0.4104  0.3636 -0.1856
 7720TIP3    H144651   0.109  -0.013   3.764  0.5318 -0.1339  0.7230
 7720TIP3    H244652   0.025   0.110   3.786 -0.9890 -0.7244 -1.3972
 7721TIP3   OH244653   3.261   3.094  15.803  0.5227 -0.3200  0.4744
 7721TIP3    H144654   3.293   3.004  15.799 -1.7191 -1.2082 -4.1089
 7721TIP3    H244655   3.339   3.148  15.790  1.3657 -1.9852 -2.2774
 7722TIP3   OH244656   4.315   4.458   6.649 -0.5390  0.2762 -0.2857
 7722TIP3    H144657   4.332   4.552   6.657 -1.8278  0.5317 -0.3248
 7722TIP3    H244658   4.402   4.418   6.650  0.0631  1.5022 -0.7927
 7723TIP3   OH244659   1.563   5.157   2.279 -0.6378  0.4414  0.5522
 7723TIP3    H144660   1.507   5.172   2.202  0.7559 -0.3570 -0.6663
 7723TIP3    H244661   1.637   5.217   2.266  0.2818 -0.6674  0.5348
 7724TIP3   OH244662   4.057   3.164  12.043  0.0979  0.1031 -0.4117
 7724TIP3    H144663   4.147   3.155  12.013 -0.1748  0.2785 -1.3122
 7724TIP3    H244664   4.004   3.157  11.963 -0.8803 -2.8592  0.3508
 7725TIP3   OH244665   0.601   0.645  15.282  0.1445  0.6834 -0.0366
 7725TIP3    H144666   0.541   0.690  15.342  1.7064  1.0467  1.3604
 7725TIP3    H244667   0.620   0.562  15.326  0.3439  0.3927 -0.6647
 7726TIP3   OH244668   0.542   3.440  10.990 -0.2493 -0.9242 -0.0744
 7726TIP3    H144669   0.610   3.473  10.930  0.4789 -1.7742  0.2644
 7726TIP3    H244670   0.521   3.515  11.045  2.3906 -1.3059  1.6198
 7727TIP3   OH244671   1.494   2.010   2.682  0.0018  0.8259  0.0124
 7727TIP3    H144672   1.561   1.960   2.730 -0.2599  1.1505  0.7283
 7727TIP3    H244673   1.468   2.079   2.743 -0.5385  1.0782 -0.5016
 7728TIP3   OH244674   3.545   1.090  16.560  0.0183 -0.1244 -0.4791
 7728TIP3    H144675   3.593   1.173  16.558  0.2706 -0.2469  0.2093
 7728TIP3    H244676   3.592   1.033  16.500  1.4915 -0.6341  1.0633
 7729TIP3   OH244677   1.138   1.082  11.890  0.3380  0.2121 -0.3220
 7729TIP3    H144678   1.184   1.045  11.966 -0.0298 -0.3968 -0.3902
 7729TIP3    H244679   1.063   1.024  11.877  1.2443 -0.6461 -2.1401
 7730TIP3   OH244680   6.357   6.157  14.299  0.2765  0.4005 -0.0206
 7730TIP3    H144681   6.333   6.170  14.207  0.9634  1.8618 -0.0192
 7730TIP3    H244682   6.294   6.211  14.347  0.0166 -0.2383  0.3675
 7731TIP3   OH244683   1.443   5.649  12.897 -0.3337  0.1658  0.5517
 7731TIP3    H144684   1.454   5.613  12.985 -0.3542  0.5144  0.6969
 7731TIP3    H244685   1.431   5.572  12.842  1.3385 -0.1777  0.6054
 7732TIP3   OH244686   0.378   5.595   4.697 -0.2354  0.4959  0.6766
 7732TIP3    H144687   0.313   5.663   4.680  0.6820  1.0670 -0.7958
 7732TIP3    H244688   0.402   5.563   4.610 -0.5651 -1.6565  1.3402
 7733TIP3   OH244689   6.325   5.530  16.834  0.7748  0.7902 -0.0545
 7733TIP3    H144690   6.368   5.454  16.872  1.3826  1.4153  0.5387
 7733TIP3    H244691   6.352   5.530  16.742 -0.7388 -0.7526 -0.5496
 7734TIP3   OH244692   6.749   3.712  15.685  0.1168  0.3931 -0.3981
 7734TIP3    H144693   6.739   3.805  15.664 -0.8632  0.7019  1.3078
 7734TIP3    H244694   6.832   3.707  15.732  0.4802  0.2933 -1.0417
 7735TIP3   OH244695   5.452   3.759  16.897 -0.6702 -0.6608 -0.1141
 7735TIP3    H144696   5.534   3.735  16.939 -1.3191 -1.6704  0.6389
 7735TIP3    H244697   5.418   3.676  16.863 -1.7800 -0.4081  0.3448
 7736TIP3   OH244698   1.168   4.704   4.587  0.1853 -1.0604 -0.3240
 7736TIP3    H144699   1.140   4.672   4.673 -2.7129 -0.1796 -0.8250
 7736TIP3    H244700   1.100   4.673   4.527 -0.9059  2.8997 -1.3855
 7737TIP3   OH244701   0.020   0.377  10.867  0.0787  0.3002 -0.8017
 7737TIP3    H144702   0.028   0.293  10.820 -1.0976  0.2551 -0.9449
 7737TIP3    H244703   0.026   0.443  10.798 -1.0130  0.2564 -0.9452
 7738TIP3   OH244704   4.333   5.628  11.720  0.1423 -0.0253 -0.3944
 7738TIP3    H144705   4.320   5.567  11.792  1.1892  0.3334  0.1181
 7738TIP3    H244706   4.428   5.639  11.715  0.0350  0.5105 -1.3592
 7739TIP3   OH244707   5.107   4.417  17.277  0.1562 -0.2144 -0.4875
 7739TIP3    H144708   5.055   4.369  17.212 -0.5595 -1.1977  0.7469
 7739TIP3    H244709   5.095   4.509  17.254 -0.5899 -0.5156 -1.3787
 7740TIP3   OH244710   5.751   5.040   6.523  0.2501 -0.0020 -0.4092
 7740TIP3    H144711   5.783   4.967   6.576 -1.4794  1.0369  2.2520
 7740TIP3    H244712   5.656   5.036   6.534  0.0197  1.7651 -1.4728
 7741TIP3   OH244713   4.938   5.689   0.837 -0.1269  0.3146 -0.0547
 7741TIP3    H144714   4.966   5.634   0.909  1.0352  1.6329  0.5456
 7741TIP3    H244715   4.905   5.769   0.879  1.3788  1.4677 -0.9394
 7742TIP3   OH244716   2.852   4.111   4.471  0.0559  0.7666 -0.0488
 7742TIP3    H144717   2.867   4.060   4.551  0.8893 -0.1786 -0.7821
 7742TIP3    H244718   2.769   4.156   4.487 -0.2464 -0.1101  0.9990
 7743TIP3   OH244719   0.131   3.475   0.184 -0.0806  0.2741 -0.1758
 7743TIP3    H144720   0.208   3.491   0.238 -0.6556  0.6663  0.5440
 7743TIP3    H244721   0.060   3.461   0.247 -0.2326 -2.1113 -0.7734
 7744TIP3   OH244722   3.311   5.374   0.002  0.0072  0.3233  0.5269
 7744TIP3    H144723   3.227   5.369   0.047 -0.4707 -0.9642 -0.4327
 7744TIP3    H244724   3.292   5.422  -0.079 -0.5625 -2.4302 -1.1189
 7745TIP3   OH244725   2.216   0.905  10.937  0.0284  0.3048  0.1709
 7745TIP3    H144726   2.161   0.980  10.915 -0.4161 -0.0530  0.0317
 7745TIP3    H244727   2.203   0.893  11.032  0.4169  0.6543  0.2651
 7746TIP3   OH244728   5.087   4.485   5.179  0.0248 -0.1303 -0.2167
 7746TIP3    H144729   5.112   4.540   5.253  0.4791  0.7476 -0.9947
 7746TIP3    H244730   5.006   4.524   5.147  0.0159 -0.2941 -0.3934
 7747TIP3   OH244731   0.911   0.335   1.726  0.2073  0.7903  0.3947
 7747TIP3    H144732   0.825   0.324   1.685  0.2332  1.6802  0.0557
 7747TIP3    H244733   0.932   0.250   1.763 -1.3447  0.8636  1.5242
 7748TIP3   OH244734   5.024   3.491   0.863 -0.0573 -0.0171  0.2881
 7748TIP3    H144735   5.016   3.476   0.769  0.6153  1.5802 -0.0593
 7748TIP3    H244736   5.114   3.523   0.875 -0.4285  0.6970  1.3322
 7749TIP3   OH244737   3.603   4.923   0.151  0.3898  0.0994  0.3174
 7749TIP3    H144738   3.658   4.986   0.197  1.3411 -1.1685  0.9628
 7749TIP3    H244739   3.656   4.894   0.077  0.7070 -1.2414  1.0288
 7750TIP3   OH244740   3.468   1.448   5.757  0.3124  0.0275  0.1140
 7750TIP3    H144741   3.512   1.387   5.697  0.3784 -0.8894  1.0729
 7750TIP3    H244742   3.420   1.391   5.817  2.3357  0.7476  2.5959
 7751TIP3   OH244743   5.013   1.814   5.309  0.4859 -0.6106 -0.0547
 7751TIP3    H144744   5.103   1.814   5.274  0.1586  2.5508 -1.2137
 7751TIP3    H244745   4.969   1.743   5.261  1.1494  0.9509 -3.2095
 7752TIP3   OH244746   4.133   1.225  12.686  0.3280  0.2230  0.1735
 7752TIP3    H144747   4.044   1.208  12.716 -0.2930 -0.3842 -1.8694
 7752TIP3    H244748   4.129   1.312  12.646  0.4047 -0.2101 -0.7950
 7753TIP3   OH244749   1.336   6.731  11.029  0.4245  0.2474  0.4739
 7753TIP3    H144750   1.392   6.660  10.997 -0.5499 -0.1697 -0.3197
 7753TIP3    H244751   1.398   6.792  11.070  1.3757 -0.6048  0.3604
 7754TIP3   OH244752   2.306   0.608   0.234  0.8106  0.2436 -0.1882
 7754TIP3    H144753   2.214   0.630   0.244  0.5986 -0.7835  0.2818
 7754TIP3    H244754   2.353   0.686   0.264  0.1006  0.0593  1.5150
 7755TIP3   OH244755   3.807   2.584  16.140 -0.2143 -0.2375  0.0628
 7755TIP3    H144756   3.729   2.544  16.103 -0.3740 -0.5739  0.7406
 7755TIP3    H244757   3.851   2.513  16.186 -0.0130  0.1645  0.5030
 7756TIP3   OH244758   4.973   1.702  15.613 -0.0746 -0.1070 -0.5182
 7756TIP3    H144759   5.063   1.695  15.582 -0.3682 -0.5192 -1.2828
 7756TIP3    H244760   4.967   1.636  15.683  0.0576 -0.4563 -0.8359
 7757TIP3   OH244761   3.448   2.235  12.234 -0.0322  0.3292  0.0159
 7757TIP3    H144762   3.452   2.176  12.159 -1.1291 -0.2386  0.3785
 7757TIP3    H244763   3.467   2.178  12.309  0.0909  0.6928  0.2611
 7758TIP3   OH244764   3.947   6.289  13.288 -0.4047  0.4752  0.4839
 7758TIP3    H144765   3.957   6.194  13.276 -1.0215  0.3284  1.0893
 7758TIP3    H244766   3.987   6.307  13.373 -0.3192  0.7544  0.3860
 7759TIP3   OH244767   3.167   0.144   1.337 -0.5585 -0.3164  0.2111
 7759TIP3    H144768   3.179   0.233   1.371 -1.5779  0.0262 -0.2904
 7759TIP3    H244769   3.107   0.103   1.398 -1.0913 -0.2391 -0.2540
 7760TIP3   OH244770   4.404   4.719   6.695  0.0825 -0.2116  0.0678
 7760TIP3    H144771   4.421   4.812   6.704 -0.5301 -0.0555 -0.3740
 7760TIP3    H244772   4.489   4.682   6.670  0.6724  0.0092  1.6261
 7761TIP3   OH244773   6.356   5.963  12.874 -0.0538 -0.0202  0.0644
 7761TIP3    H144774   6.374   5.996  12.786  0.2535 -0.6272 -0.1043
 7761TIP3    H244775   6.402   6.024  12.932 -0.8935  0.8307 -0.1397
 7762TIP3   OH244776   2.054   6.407  11.421 -0.2463 -0.0760  0.7711
 7762TIP3    H144777   2.102   6.481  11.384 -0.5255 -0.8093 -1.1861
 7762TIP3    H244778   2.014   6.364  11.345 -0.4542 -1.9804  1.8910
 7763TIP3   OH244779   3.076   1.008  16.643  0.0529  0.4219  0.1967
 7763TIP3    H144780   3.011   0.993  16.575  1.6635  0.0243 -1.3327
 7763TIP3    H244781   3.122   1.087  16.616  0.2754  0.6604  1.2067
 7764TIP3   OH244782   5.745   0.002   5.699  0.4864 -0.2717 -0.1268
 7764TIP3    H144783   5.737   0.077   5.640 -1.6015 -0.5646 -0.3051
 7764TIP3    H244784   5.668   0.009   5.756  1.7411 -0.7485  1.7094
 7765TIP3   OH244785   5.527   2.149  10.643 -0.2112  0.6397 -0.1152
 7765TIP3    H144786   5.508   2.237  10.674 -2.9941  0.0705  0.0654
 7765TIP3    H244787   5.445   2.101  10.656  1.5479 -2.3283  0.9476
 7766TIP3   OH244788   2.283   2.099   1.263 -0.1566  0.0370  0.3688
 7766TIP3    H144789   2.241   2.137   1.186 -0.1478 -0.5848  0.0512
 7766TIP3    H244790   2.356   2.047   1.228  0.3484  0.4040  0.8534
 7767TIP3   OH244791   2.505   0.555  13.820  0.5000  0.0729 -0.0810
 7767TIP3    H144792   2.411   0.567  13.830  0.6837  2.7508 -0.7950
 7767TIP3    H244793   2.514   0.475  13.768 -1.4298  0.3227 -0.8826
 7768TIP3   OH244794   5.162   3.075   0.489  1.0353  0.0637  0.3415
 7768TIP3    H144795   5.228   3.020   0.446 -0.5583 -1.5018 -0.2334
 7768TIP3    H244796   5.119   3.017   0.551 -0.3752  0.7860  0.0888
 7769TIP3   OH244797   3.295   2.708  11.331  0.0229  0.0766  0.4631
 7769TIP3    H144798   3.383   2.675  11.319  0.4121  1.2785 -0.1774
 7769TIP3    H244799   3.253   2.645  11.388  0.7264 -1.4830 -0.6665
 7770TIP3   OH244800   5.927   2.397  12.825  0.2649 -0.1679  0.6089
 7770TIP3    H144801   5.895   2.378  12.913 -0.7656 -2.0900 -0.1207
 7770TIP3    H244802   5.951   2.490  12.828  0.6734 -0.2730  3.0176
 7771TIP3   OH244803   0.276   5.073   2.232  0.1643 -0.3428  0.0043
 7771TIP3    H144804   0.192   5.117   2.244  1.3270  1.9166  0.4511
 7771TIP3    H244805   0.309   5.106   2.148  1.7153  0.8778  1.0194
 7772TIP3   OH244806   1.654   5.410   4.236  0.2201  0.2530  0.5399
 7772TIP3    H144807   1.605   5.480   4.279  0.4244  1.3114 -0.8683
 7772TIP3    H244808   1.738   5.409   4.281 -0.1205  0.2766  1.1888
 7773TIP3   OH244809   2.315   4.615   3.758  0.0790 -0.5781 -0.6006
 7773TIP3    H144810   2.388   4.597   3.818  0.3350  0.1755 -0.6704
 7773TIP3    H244811   2.315   4.710   3.750 -0.8755 -0.5805 -0.6606
 7774TIP3   OH244812   5.083   4.003  13.389  0.2580  0.2150 -0.2895
 7774TIP3    H144813   5.075   4.068  13.459  0.0471  0.5496 -0.6160
 7774TIP3    H244814   5.165   4.024  13.346 -0.3460  0.9897 -1.1022
 7775TIP3   OH244815   4.896   0.316   4.545  0.7245  0.6450 -0.2237
 7775TIP3    H144816   4.829   0.329   4.612  1.3962 -0.8250  0.7692
 7775TIP3    H244817   4.943   0.400   4.543 -0.8194  1.5536 -0.6348
 7776TIP3   OH244818   0.339   2.035  12.465  0.2204 -0.0112 -0.2457
 7776TIP3    H144819   0.348   1.975  12.392 -0.9951 -0.4982 -0.0148
 7776TIP3    H244820   0.382   2.116  12.435  0.3750 -0.4337 -1.2023
 7777TIP3   OH244821   0.404   2.984   3.548  0.7133  0.3363 -0.0412
 7777TIP3    H144822   0.493   3.019   3.559  1.8032 -2.1491 -0.2224
 7777TIP3    H244823   0.357   3.052   3.500  1.9316  2.5254  1.6782
 7778TIP3   OH244824   1.725   5.185   2.800  0.1068  0.2783 -0.2485
 7778TIP3    H144825   1.815   5.155   2.802 -0.2175 -0.7637 -0.5410
 7778TIP3    H244826   1.716   5.230   2.716  0.7323  1.6680  0.4089
 7779TIP3   OH244827   0.072   3.485   2.352  0.2668 -0.4251  0.2987
 7779TIP3    H144828  -0.023   3.483   2.343  0.0629  0.1484  1.9805
 7779TIP3    H244829   0.089   3.446   2.438  1.1306  3.4031  2.1392
 7780TIP3   OH244830   2.005   2.593  11.865 -0.1344 -0.4962  0.1589
 7780TIP3    H144831   2.090   2.614  11.825  0.8755 -1.7077  1.5506
 7780TIP3    H244832   2.018   2.608  11.958 -0.7196 -2.7465  0.6734
 7781TIP3   OH244833   6.458   2.331  14.540  0.1333  0.3022 -0.6666
 7781TIP3    H144834   6.427   2.254  14.492 -0.3480  0.6611 -0.9392
 7781TIP3    H244835   6.553   2.325  14.534  0.0826  0.4174 -1.8086
 7782TIP3   OH244836   5.586   5.651   4.982  0.0472  0.4344 -0.3086
 7782TIP3    H144837   5.654   5.716   4.998  1.3994 -0.2985 -2.6435
 7782TIP3    H244838   5.515   5.701   4.941  1.0614  0.5452 -2.0545
 7783TIP3   OH244839   2.947   3.947  16.750 -0.2157  0.3826 -0.0306
 7783TIP3    H144840   2.906   3.945  16.836 -0.9725 -0.3511 -0.3882
 7783TIP3    H244841   3.039   3.963  16.767 -0.4457  0.8172  0.8737
 7784TIP3   OH244842   3.933   0.970  13.842  0.1494  0.4135 -0.2174
 7784TIP3    H144843   3.890   1.029  13.904  1.2345  0.9249  0.0832
 7784TIP3    H244844   3.874   0.895  13.835 -0.4364  0.7618  0.7261
 7785TIP3   OH244845   0.391   4.155   3.100 -0.5689 -0.2399 -0.1910
 7785TIP3    H144846   0.306   4.195   3.118 -1.2764 -2.0175  0.6624
 7785TIP3    H244847   0.443   4.173   3.179 -0.5160 -0.0633 -0.2664
 7786TIP3   OH244848   5.024   0.551   4.493  0.2268 -0.3877 -0.6614
 7786TIP3    H144849   4.965   0.622   4.467  1.0473 -0.4305 -2.9079
 7786TIP3    H244850   5.096   0.595   4.537  0.0282  0.0043 -0.7188
 7787TIP3   OH244851   3.142   2.153   3.024 -0.2994  0.1190  0.1403
 7787TIP3    H144852   3.157   2.062   3.050 -2.2980 -0.0584  0.8204
 7787TIP3    H244853   3.168   2.156   2.932 -0.6358 -1.2691 -0.0200
 7788TIP3   OH244854   2.474   5.753  10.934 -0.3061  0.3908 -0.2536
 7788TIP3    H144855   2.392   5.798  10.913 -1.3554 -1.7957 -1.1253
 7788TIP3    H244856   2.448   5.686  10.997  1.6478  2.4788  3.0448
 7789TIP3   OH244857   3.117   5.918   1.026  0.1768 -0.0242  0.3535
 7789TIP3    H144858   3.094   6.011   1.038  0.8664  0.0785  0.9036
 7789TIP3    H244859   3.034   5.876   1.003 -0.1984  0.6790  0.3921
 7790TIP3   OH244860   6.437   2.042  14.158 -0.3838  0.1427  0.4159
 7790TIP3    H144861   6.475   1.961  14.125 -1.9502 -0.3997 -0.1245
 7790TIP3    H244862   6.501   2.110  14.133 -0.4614 -0.5243 -1.8367
 7791TIP3   OH244863   2.586   0.279   0.318 -0.1779  0.1743 -0.2365
 7791TIP3    H144864   2.584   0.193   0.360  0.8365  0.5424  0.6193
 7791TIP3    H244865   2.529   0.270   0.241 -0.7470 -1.0043  0.3007
 7792TIP3   OH244866   3.132   2.324  15.954 -0.2754  0.1805 -0.2016
 7792TIP3    H144867   3.088   2.295  16.034 -3.0940 -0.8972 -2.0075
 7792TIP3    H244868   3.176   2.406  15.979  1.1139 -1.3784  3.0133
 7793TIP3   OH244869   1.944   3.994  16.494  0.0115  0.0553 -0.3707
 7793TIP3    H144870   1.939   4.062  16.427  0.8378  1.1906  0.6728
 7793TIP3    H244871   1.878   4.018  16.558 -0.0955 -0.4682 -0.2793
 7794TIP3   OH244872   6.238   1.461   3.598  0.0835  0.1019  0.1250
 7794TIP3    H144873   6.217   1.512   3.520  0.2547 -1.2161 -0.8193
 7794TIP3    H244874   6.300   1.395   3.567  1.5135  0.6131  1.7426
 7795TIP3   OH244875   5.334   2.372   4.289  0.2573  0.8152 -0.5248
 7795TIP3    H144876   5.304   2.289   4.325  0.2954  0.7289 -0.6897
 7795TIP3    H244877   5.346   2.429   4.365  1.1663  0.3695 -0.3173
 7796TIP3   OH244878   4.269   3.522  16.458  0.5530 -0.2470  0.3340
 7796TIP3    H144879   4.280   3.427  16.459 -0.1993 -0.3277  1.3140
 7796TIP3    H244880   4.332   3.554  16.522  1.7564  0.0413 -0.9482
 7797TIP3   OH244881   2.514   4.573   5.004 -0.2823 -0.3281 -0.1767
 7797TIP3    H144882   2.456   4.617   5.066  0.1842  0.7585 -0.4981
 7797TIP3    H244883   2.597   4.564   5.051  0.7559  2.4160 -1.2820
 7798TIP3   OH244884   4.021   2.250   2.689 -0.6086 -0.0515 -0.1451
 7798TIP3    H144885   4.067   2.307   2.627 -1.7654 -0.0617 -1.0470
 7798TIP3    H244886   3.931   2.281   2.688 -1.4194 -2.2232 -1.1034
 7799TIP3   OH244887   4.630   6.338  12.280 -0.3641  0.0361  0.3815
 7799TIP3    H144888   4.589   6.255  12.307 -2.2079  0.8673  0.2717
 7799TIP3    H244889   4.713   6.312  12.241 -1.0239 -1.7981  0.0997
 7800TIP3   OH244890   4.048   3.873   4.472 -0.2461  0.3211 -0.5323
 7800TIP3    H144891   4.053   3.952   4.526 -0.0237  2.4431 -3.4217
 7800TIP3    H244892   3.955   3.865   4.450 -0.1327  0.3647 -1.0377
 7801TIP3   OH244893   5.425   4.347  14.795 -0.0816 -0.0296  0.0804
 7801TIP3    H144894   5.378   4.402  14.857  1.7880  1.7806  0.0073
 7801TIP3    H244895   5.518   4.361  14.817  0.5347 -1.3786 -1.4603
 7802TIP3   OH244896   2.087   1.717  17.219 -0.0516  0.1138  0.0197
 7802TIP3    H144897   2.125   1.697  17.305  1.9459 -0.2403 -0.8795
 7802TIP3    H244898   1.995   1.690  17.226  0.6387 -2.2030  1.2847
 7803TIP3   OH244899   4.966   4.154   4.118  0.3572  0.5108  0.3273
 7803TIP3    H144900   5.010   4.127   4.037  0.4908 -0.2359  0.6302
 7803TIP3    H244901   5.011   4.234   4.144 -0.6295  1.5594 -1.0731
 7804TIP3   OH244902   5.134   3.898   5.108  0.0664 -0.2095  0.4272
 7804TIP3    H144903   5.070   3.962   5.140  1.4078  0.8679  1.0588
 7804TIP3    H244904   5.135   3.830   5.176 -0.2969 -0.1586  0.4855
 7805TIP3   OH244905   3.633   0.776   1.339 -0.5230 -0.6108  0.3826
 7805TIP3    H144906   3.598   0.735   1.260 -0.8535  0.1440  0.1327
 7805TIP3    H244907   3.639   0.869   1.318  0.9435 -0.6095  0.6710
 7806TIP3   OH244908   0.968   2.159   0.321  0.4242  0.4359 -0.4722
 7806TIP3    H144909   0.999   2.075   0.287  1.8393  1.3922 -1.6147
 7806TIP3    H244910   1.039   2.220   0.304 -0.5653  1.8806  0.3835
 7807TIP3   OH244911   6.613   2.814   4.444 -0.1239 -0.1376  0.2071
 7807TIP3    H144912   6.617   2.719   4.460 -1.6975 -0.5136 -1.3063
 7807TIP3    H244913   6.680   2.851   4.501  0.7793 -2.2045  0.5756
 7808TIP3   OH244914   5.454   1.919   0.755 -0.0646  0.3753  0.1852
 7808TIP3    H144915   5.368   1.952   0.728  0.1158 -0.1861 -1.1681
 7808TIP3    H244916   5.444   1.897   0.847 -1.0068  1.4902  0.3735
 7809TIP3   OH244917   1.239   3.069  15.700 -0.2815 -0.5061 -0.7851
 7809TIP3    H144918   1.232   3.126  15.777 -0.6440 -0.3698 -0.9171
 7809TIP3    H244919   1.221   3.127  15.626 -1.8792 -1.0394 -0.8470
 7810TIP3   OH244920   5.864   5.056  11.414 -0.1308  0.1811 -0.6369
 7810TIP3    H144921   5.776   5.041  11.379  0.6042  0.4036 -2.6665
 7810TIP3    H244922   5.872   5.151  11.420 -0.1553  0.1537 -0.0343
 7811TIP3   OH244923   1.553   6.196   0.376 -0.1157 -0.0437  0.0344
 7811TIP3    H144924   1.641   6.170   0.405  0.0130 -0.3845 -0.6364
 7811TIP3    H244925   1.546   6.289   0.398  0.3231 -0.0759  0.3122
 7812TIP3   OH244926   3.378   0.543   4.648 -0.2042  0.1129 -0.1435
 7812TIP3    H144927   3.319   0.468   4.658  2.3724 -1.9171  0.8191
 7812TIP3    H244928   3.420   0.530   4.563 -0.2373  0.8653 -0.2806
 7813TIP3   OH244929   4.801   4.816  11.913 -0.3828 -0.3495  0.3299
 7813TIP3    H144930   4.847   4.801  11.995  0.2593 -0.3261 -0.0189
 7813TIP3    H244931   4.854   4.880  11.866 -0.6941 -0.4254 -0.1405
 7814TIP3   OH244932   1.856   4.651  13.438  0.2083 -0.2760  0.0703
 7814TIP3    H144933   1.848   4.594  13.362 -0.8220  1.5229 -1.2659
 7814TIP3    H244934   1.945   4.637  13.470 -0.0909 -2.7749  0.0131
 7815TIP3   OH244935   5.099   3.987   2.621  0.2356  0.3070 -0.0075
 7815TIP3    H144936   5.191   3.992   2.595  0.0690  3.3955 -0.2732
 7815TIP3    H244937   5.051   4.005   2.540 -0.6294 -0.8117  0.2321
 7816TIP3   OH244938   0.394   5.904  10.488  0.1725 -0.0953 -0.1022
 7816TIP3    H144939   0.387   5.876  10.579  1.2945 -1.2885 -0.3606
 7816TIP3    H244940   0.480   5.872  10.460 -1.1156 -1.8798 -2.2924
 7817TIP3   OH244941   5.554   6.217   1.366  0.0112 -0.4518  0.0647
 7817TIP3    H144942   5.647   6.194   1.370  0.5601  1.3749 -0.9537
 7817TIP3    H244943   5.525   6.183   1.282 -0.1083 -0.5710  0.1545
 7818TIP3   OH244944   1.693   1.454  13.858  0.5088  0.1997  0.5685
 7818TIP3    H144945   1.741   1.383  13.815  1.8465 -0.1552  2.4993
 7818TIP3    H244946   1.621   1.410  13.903  1.3757 -0.0054  1.8187
 7819TIP3   OH244947   0.187   1.701  13.933 -0.3884  0.1238  0.2778
 7819TIP3    H144948   0.099   1.729  13.960 -0.1094  0.0945  1.2667
 7819TIP3    H244949   0.212   1.762  13.864 -1.4556 -0.2832 -0.4941
 7820TIP3   OH244950   0.665   4.917  13.147  0.6328 -0.3122  0.1927
 7820TIP3    H144951   0.671   5.004  13.108  0.2561 -0.2313  0.3132
 7820TIP3    H244952   0.612   4.930  13.226  1.4947 -0.4473  0.8144
 7821TIP3   OH244953   3.458   4.639  15.323 -0.4274 -0.2109 -0.4181
 7821TIP3    H144954   3.461   4.591  15.406 -0.6145  0.9087  0.2599
 7821TIP3    H244955   3.469   4.731  15.348  2.3003 -0.0425 -1.8546
 7822TIP3   OH244956   3.936   5.019  11.214  0.2536  0.4710 -0.0910
 7822TIP3    H144957   4.003   5.055  11.156  0.7460 -1.1139 -0.5282
 7822TIP3    H244958   3.942   4.925  11.204 -0.8594  0.2204  1.2120
 7823TIP3   OH244959   5.477   6.334  11.607  0.2313 -0.3737 -0.1800
 7823TIP3    H144960   5.450   6.249  11.643 -2.2678  0.5371  0.2763
 7823TIP3    H244961   5.462   6.396  11.678 -0.9903  0.8782 -1.4818
 7824TIP3   OH244962   6.094   4.655   5.502  0.6186  0.0415 -0.2801
 7824TIP3    H144963   6.181   4.620   5.485  1.2229  0.8598  0.9766
 7824TIP3    H244964   6.109   4.730   5.560 -0.9151  0.2323 -0.0867
 7825TIP3   OH244965   4.182   0.616   0.635 -0.1302 -0.1425  0.1077
 7825TIP3    H144966   4.113   0.668   0.677  0.0640  1.4844 -1.4591
 7825TIP3    H244967   4.135   0.561   0.571 -0.0712  0.2078 -0.2371
 7826TIP3   OH244968   1.589   1.441  10.654 -0.2006  0.7874 -0.2647
 7826TIP3    H144969   1.631   1.356  10.667 -0.2723  0.8878  0.7349
 7826TIP3    H244970   1.653   1.492  10.604  0.2494  0.4596 -0.0313
 7827TIP3   OH244971   5.677   5.226   0.871 -0.0723 -0.6062  0.0019
 7827TIP3    H144972   5.651   5.228   0.963  0.8479  0.9508  0.2564
 7827TIP3    H244973   5.761   5.271   0.868  0.3245 -1.3736 -1.4948
 7828TIP3   OH244974   1.479   1.859  11.315 -0.5077 -0.1206 -0.7622
 7828TIP3    H144975   1.549   1.895  11.369 -0.9300 -2.1894  1.3359
 7828TIP3    H244976   1.513   1.865  11.225  0.5882  2.6272 -0.2663
 7829TIP3   OH244977   3.804   2.026   5.223  0.7935 -0.3042  0.2110
 7829TIP3    H144978   3.846   2.111   5.236 -2.6287  1.2920  2.1735
 7829TIP3    H244979   3.792   1.991   5.311 -2.0481 -0.5109 -0.1647
 7830TIP3   OH244980   0.289   5.362   4.276 -0.6092 -0.0028  0.1038
 7830TIP3    H144981   0.354   5.399   4.335  0.6610 -0.6627 -0.8419
 7830TIP3    H244982   0.324   5.277   4.252 -3.2837 -1.7713  1.9380
 7831TIP3   OH244983   2.539   0.103   4.975 -0.4871 -0.1530 -0.2694
 7831TIP3    H144984   2.456   0.145   4.955 -0.3629 -0.0227 -0.5119
 7831TIP3    H244985   2.559   0.130   5.065 -0.5811  0.0151 -0.2995
 7832TIP3   OH244986   2.204   1.245   2.921 -0.0414 -0.6200 -0.3918
 7832TIP3    H144987   2.212   1.203   2.836 -0.5937  0.9676 -1.2784
 7832TIP3    H244988   2.262   1.321   2.915 -1.6592  0.6947 -0.1546
 7833TIP3   OH244989   5.132   6.466   2.363  0.0199 -0.2641 -0.1712
 7833TIP3    H144990   5.073   6.433   2.431 -0.8273  0.0687 -0.7226
 7833TIP3    H244991   5.137   6.394   2.300 -0.7676  0.1415 -0.7156
 7834TIP3   OH244992   3.739   1.106  12.369  0.5015  0.1063 -0.1294
 7834TIP3    H144993   3.731   1.092  12.463  1.4187 -2.7113 -0.3933
 7834TIP3    H244994   3.821   1.154  12.359  0.8086 -0.2857  0.4752
 7835TIP3   OH244995   6.034   4.631   2.327  0.0049  0.1081  0.5382
 7835TIP3    H144996   6.070   4.621   2.239 -2.0056 -0.2170 -0.2901
 7835TIP3    H244997   6.021   4.542   2.359 -2.1974  0.1481 -0.1266
 7836TIP3   OH244998   6.376   6.091   0.446  0.1682 -0.4332 -0.0996
 7836TIP3    H144999   6.405   6.182   0.438 -2.3958  0.4076 -0.8552
 7836TIP3    H245000   6.453   6.039   0.423  1.4511  1.5621 -0.5276
 7837TIP3   OH245001   0.772   6.046   4.625 -0.2864  0.0283  0.2071
 7837TIP3    H145002   0.757   6.102   4.549 -0.1696 -3.2947 -2.4701
 7837TIP3    H245003   0.864   6.060   4.647 -0.7263  2.2519  0.9541
 7838TIP3   OH245004   2.758   2.027   5.340 -0.0140 -0.3273  0.1643
 7838TIP3    H145005   2.776   1.954   5.399 -1.9676 -1.1078 -0.1419
 7838TIP3    H245006   2.697   1.992   5.275  1.5339  0.6738 -1.9716
 7839TIP3   OH245007   2.506   0.956  14.147  0.2082 -0.3685 -0.3218
 7839TIP3    H145008   2.460   1.013  14.085 -0.1220 -0.1469  0.1257
 7839TIP3    H245009   2.566   1.015  14.193  0.4417 -0.5306 -0.4134
 7840TIP3   OH245010   3.063   0.713   1.310  0.1422  0.7178 -0.2514
 7840TIP3    H145011   3.042   0.698   1.402 -0.8437 -1.7290 -0.7891
 7840TIP3    H245012   2.987   0.761   1.276  0.0272  0.6982 -0.0256
 7841TIP3   OH245013   4.168   6.188   0.626  0.3323 -0.0118 -0.0270
 7841TIP3    H145014   4.177   6.156   0.716  0.4930 -1.2418 -0.4637
 7841TIP3    H245015   4.083   6.232   0.625  1.7471  3.1372  1.6097
 7842TIP3   OH245016   1.949   4.434   0.920 -0.1544 -0.2986 -0.4475
 7842TIP3    H145017   2.024   4.404   0.973 -0.4947  0.8833  0.7371
 7842TIP3    H245018   1.972   4.523   0.896 -0.6066 -0.3852 -1.1952
 7843TIP3   OH245019   0.323   6.633  14.735  0.2046  0.3089 -0.0673
 7843TIP3    H145020   0.407   6.608  14.696 -0.0640 -1.9075  0.6046
 7843TIP3    H245021   0.332   6.727  14.752  1.9079  0.4708 -1.5006
 7844TIP3   OH245022   2.251   2.857   1.683  0.1774  0.2194  0.0328
 7844TIP3    H145023   2.179   2.803   1.650 -0.7049  2.4604 -2.0746
 7844TIP3    H245024   2.330   2.814   1.651 -0.4252 -0.4135 -0.6436
 7845TIP3   OH245025   2.909   3.504   3.911 -0.2067 -0.4410 -0.0394
 7845TIP3    H145026   2.884   3.596   3.913  0.2447 -0.2742 -1.2004
 7845TIP3    H245027   3.005   3.505   3.908 -0.1961 -0.9495 -0.0064
 7846TIP3   OH245028   0.092   5.027  14.519 -0.8307  0.2447  0.4990
 7846TIP3    H145029   0.037   4.988  14.451 -1.3234  1.6706  0.0460
 7846TIP3    H245030   0.109   5.116  14.488  3.5045 -0.6502 -0.4695
 7847TIP3   OH245031   2.661   6.656   1.524 -0.2089  0.2936  0.4258
 7847TIP3    H145032   2.724   6.641   1.453  0.8134  0.8439  1.1774
 7847TIP3    H245033   2.596   6.716   1.486  0.1265  0.2988 -0.1524
 7848TIP3   OH245034   4.454   5.519   5.968  0.1865 -0.0465  0.2281
 7848TIP3    H145035   4.506   5.531   6.047 -0.3070  0.1399  0.5326
 7848TIP3    H245036   4.500   5.451   5.919  2.5003  2.2732 -1.0635
 7849TIP3   OH245037   2.050   5.672  13.000  0.0878  0.5317  0.2266
 7849TIP3    H145038   1.969   5.631  13.031  0.3984 -0.1993  0.1003
 7849TIP3    H245039   2.057   5.647  12.908  0.8943 -0.1570  0.4564
 7850TIP3   OH245040   1.215   0.994   5.180 -0.1955  0.2828 -0.3811
 7850TIP3    H145041   1.289   0.935   5.189 -1.0625 -0.5320  2.6177
 7850TIP3    H245042   1.161   0.976   5.257 -2.6146  2.0873 -1.5291
 7851TIP3   OH245043   2.117   5.854  16.589  0.1147 -0.4731  0.0367
 7851TIP3    H145044   2.091   5.765  16.616  1.0982  0.1996  3.8435
 7851TIP3    H245045   2.208   5.861  16.618 -0.1457  1.9702  0.4385
 7852TIP3   OH245046   2.358   4.107  11.954 -0.2604 -0.3301  0.3167
 7852TIP3    H145047   2.399   4.164  12.019 -0.2518 -0.2167  0.2148
 7852TIP3    H245048   2.316   4.168  11.893  0.4747 -0.4002 -0.2784
 7853TIP3   OH245049   0.089   2.789   5.922  0.1290  0.3073 -0.0987
 7853TIP3    H145050   0.163   2.770   5.979 -0.0526  0.3547  0.1548
 7853TIP3    H245051   0.022   2.824   5.981 -0.9172 -1.8072  0.0438
 7854TIP3   OH245052   0.362   0.761  16.873  0.1325  0.4555 -0.2346
 7854TIP3    H145053   0.380   0.682  16.925  0.2530 -0.7887 -2.0673
 7854TIP3    H245054   0.427   0.824  16.902  0.7767 -0.5035  0.4851
 7855TIP3   OH245055   0.182   4.611  13.083  0.3820  0.2276 -0.6447
 7855TIP3    H145056   0.167   4.705  13.090 -0.3019 -0.0318  2.2025
 7855TIP3    H245057   0.120   4.571  13.143 -0.5756 -2.2477 -3.0342
 7856TIP3   OH245058   4.790   2.551  14.350 -1.0402 -0.0524  0.1007
 7856TIP3    H145059   4.835   2.614  14.406  0.5325 -1.3134  0.3256
 7856TIP3    H245060   4.795   2.590  14.262  1.9189 -0.7821 -0.1747
 7857TIP3   OH245061   4.846   6.716  17.197  0.0947  0.5763  0.7254
 7857TIP3    H145062   4.822   6.634  17.240 -0.4296 -0.1477 -0.8883
 7857TIP3    H245063   4.926   6.695  17.149 -0.7488  0.6125 -0.7509
 7858TIP3   OH245064   4.821   0.103  11.647  0.0159  0.5737 -0.2517
 7858TIP3    H145065   4.871   0.025  11.624 -0.8124 -0.3279  0.8727
 7858TIP3    H245066   4.847   0.168  11.582  1.8268 -0.1746 -0.3498
 7859TIP3   OH245067   2.974   0.626  12.785  0.5595  0.4962 -0.3614
 7859TIP3    H145068   3.020   0.546  12.811  1.0967  1.4068  1.7626
 7859TIP3    H245069   2.887   0.596  12.757  0.4322 -0.7943  1.2489
 7860TIP3   OH245070   3.710   6.462  14.548  0.2182 -0.5246  0.0513
 7860TIP3    H145071   3.635   6.425  14.595 -0.2431  0.4208  0.0947
 7860TIP3    H245072   3.691   6.445  14.456  0.7820 -1.7650  0.1475
 7861TIP3   OH245073   4.254   0.585   0.022  0.1201 -0.4453 -0.7304
 7861TIP3    H145074   4.260   0.528   0.098 -2.0298 -1.2372 -1.0945
 7861TIP3    H245075   4.227   0.670   0.059  1.0336 -0.2769 -0.4279
 7862TIP3   OH245076   4.361   3.584  13.361  0.1980 -0.1875  0.5285
 7862TIP3    H145077   4.342   3.494  13.389 -0.0858 -0.0525  0.7833
 7862TIP3    H245078   4.379   3.630  13.443 -1.6756  0.4596  0.6366
 7863TIP3   OH245079   2.748   2.560  16.191 -0.0389 -0.3539  0.7038
 7863TIP3    H145080   2.786   2.635  16.237  1.6107 -0.4982 -0.3342
 7863TIP3    H245081   2.795   2.484  16.226 -0.3098 -0.6926  0.3350
 7864TIP3   OH245082   0.615   3.666   3.932  0.4253 -0.4494 -0.1117
 7864TIP3    H145083   0.615   3.652   4.026  1.0259 -0.7626 -0.1532
 7864TIP3    H245084   0.707   3.679   3.909  0.1560  1.1315 -0.4394
 7865TIP3   OH245085   4.572   2.586  12.853 -0.0574 -0.6223 -0.0190
 7865TIP3    H145086   4.590   2.648  12.923 -0.8907  1.7101 -1.7484
 7865TIP3    H245087   4.620   2.620  12.778  1.7890 -3.7016 -0.4046
 7866TIP3   OH245088   3.705   3.260   0.560 -0.1684 -0.3464  0.4140
 7866TIP3    H145089   3.681   3.340   0.606  0.1265 -0.5585  0.9492
 7866TIP3    H245090   3.626   3.206   0.562 -0.0546 -0.4924  0.9722
 7867TIP3   OH245091   4.124   0.405   0.905 -0.2143  0.1330 -0.1934
 7867TIP3    H145092   4.145   0.426   0.814  0.2090 -1.7084 -0.5617
 7867TIP3    H245093   4.032   0.429   0.915 -0.8277 -1.3932 -1.7074
 7868TIP3   OH245094   4.457   4.993   4.100  0.1720  0.2001  0.3183
 7868TIP3    H145095   4.459   5.088   4.104 -1.7514  0.2448  1.0760
 7868TIP3    H245096   4.543   4.969   4.066  1.0799  2.1499  1.0701
 7869TIP3   OH245097   6.525   4.889  13.247  0.0575 -0.0602 -0.2465
 7869TIP3    H145098   6.510   4.889  13.342  2.6245  0.5190  0.2289
 7869TIP3    H245099   6.585   4.961  13.232 -0.5565  0.0716 -2.4103
 7870TIP3   OH245100   6.197   1.745  12.635 -0.5610 -0.1029 -0.8701
 7870TIP3    H145101   6.193   1.660  12.592 -0.9199 -1.1921  1.1601
 7870TIP3    H245102   6.124   1.744  12.697  1.4314  0.1995  1.6658
 7871TIP3   OH245103   0.916   0.308   5.175  0.5663 -0.8531  0.0098
 7871TIP3    H145104   0.995   0.283   5.127  2.0653 -0.5242  2.1001
 7871TIP3    H245105   0.846   0.306   5.111  1.6081 -4.5575 -1.2471
 7872TIP3   OH245106   1.327   5.810   3.660  0.1531  0.5889 -0.1851
 7872TIP3    H145107   1.312   5.825   3.566 -1.0943  2.2005  0.2236
 7872TIP3    H245108   1.351   5.896   3.694  0.2844  0.0883  1.0365
 7873TIP3   OH245109   4.855   4.753  11.592 -0.0805  0.0062 -0.3122
 7873TIP3    H145110   4.826   4.662  11.585  2.7459 -0.9216 -1.5099
 7873TIP3    H245111   4.875   4.765  11.684 -0.7921 -0.4671 -0.0878
 7874TIP3   OH245112   0.540   6.618  13.662  0.1008  0.2187 -0.3751
 7874TIP3    H145113   0.482   6.575  13.725 -1.8489  1.6470 -1.0966
 7874TIP3    H245114   0.548   6.556  13.590 -0.5414 -0.0025 -0.2582
 7875TIP3   OH245115   0.565   4.220  15.092  0.0189  0.4265 -0.0672
 7875TIP3    H145116   0.497   4.230  15.026  0.7939  1.4033 -0.7386
 7875TIP3    H245117   0.603   4.134  15.074 -2.1793 -0.9952  1.4637
 7876TIP3   OH245118   6.206   5.215  14.948 -0.5911 -0.1289  0.1829
 7876TIP3    H145119   6.233   5.165  14.872  1.1339  1.8375 -0.5858
 7876TIP3    H245120   6.271   5.195  15.015 -2.0642 -1.8029  1.1876
 7877TIP3   OH245121   2.056   1.473   4.954 -0.8967 -0.3732 -0.2246
 7877TIP3    H145122   2.018   1.400   4.905  0.6116 -1.1961 -0.2241
 7877TIP3    H245123   2.039   1.451   5.046 -1.5503 -0.0739 -0.2679
 7878TIP3   OH245124   4.229   6.358   5.633  0.1056 -0.0674 -0.2959
 7878TIP3    H145125   4.139   6.343   5.662  0.6467 -2.5241  0.4325
 7878TIP3    H245126   4.273   6.396   5.709 -0.3425  1.3583 -0.7304
 7879TIP3   OH245127   2.229   0.001  13.330  0.3447  0.9195  0.2060
 7879TIP3    H145128   2.142  -0.010  13.368 -0.7002 -0.8932 -2.4251
 7879TIP3    H245129   2.270  -0.085  13.340 -0.0262  0.3289 -2.6737
 7880TIP3   OH245130   3.133   2.161  13.257 -0.4697 -0.0172 -0.4421
 7880TIP3    H145131   3.147   2.219  13.332 -1.0412 -0.4069 -0.0233
 7880TIP3    H245132   3.120   2.075  13.295  0.0906 -0.3815 -1.0455
 7881TIP3   OH245133   1.429   3.167   5.109 -0.1161 -0.2505 -0.1203
 7881TIP3    H145134   1.437   3.260   5.127 -0.9369 -0.0953 -0.5403
 7881TIP3    H245135   1.345   3.142   5.147 -1.3045 -0.1840 -2.5139
 7882TIP3   OH245136   4.518   2.541   1.538 -0.1715 -0.0913 -0.0734
 7882TIP3    H145137   4.564   2.464   1.505  1.5902  1.0208 -0.3352
 7882TIP3    H245138   4.537   2.541   1.632  1.7923  1.2287 -0.4178
 7883TIP3   OH245139   2.857   2.866  14.598 -0.0556 -0.1722 -0.1973
 7883TIP3    H145140   2.888   2.879  14.687  0.0196 -0.7632 -0.1268
 7883TIP3    H245141   2.804   2.787  14.603 -2.0113  1.0936 -0.2183
 7884TIP3   OH245142   0.469   4.812  14.627 -0.0227  0.4215  0.2822
 7884TIP3    H145143   0.533   4.880  14.650 -0.4402  0.7430  0.5100
 7884TIP3    H245144   0.521   4.744  14.584  0.4130  0.8548  0.1100
 7885TIP3   OH245145   0.639   0.933  15.994  0.5292  0.4451 -0.5332
 7885TIP3    H145146   0.675   0.999  16.054  1.2750  0.4172 -0.9473
 7885TIP3    H245147   0.659   0.966  15.907  1.8153 -0.7942 -0.7473
 7886TIP3   OH245148   5.301   3.610  13.047  0.3501  0.3099  0.1219
 7886TIP3    H145149   5.327   3.521  13.021  2.2228  0.9860 -0.4853
 7886TIP3    H245150   5.319   3.614  13.141  0.0333 -0.0184  0.1996
 7887TIP3   OH245151   6.167   6.146  11.287 -0.5592  0.6053  0.4430
 7887TIP3    H145152   6.195   6.185  11.204  0.7472  1.3945  1.2213
 7887TIP3    H245153   6.083   6.105  11.267  0.1578 -0.0224 -1.4783
 7888TIP3   OH245154   2.108   5.344  11.580  0.2889 -0.5146  0.9373
 7888TIP3    H145155   2.029   5.381  11.619 -1.2674 -1.7803 -0.8112
 7888TIP3    H245156   2.087   5.335  11.487  1.5763 -3.1371  0.7943
 7889TIP3   OH245157   4.162   1.937   2.125 -0.1263  0.1784  0.1311
 7889TIP3    H145158   4.240   1.993   2.133  0.0873 -0.0722 -0.1664
 7889TIP3    H245159   4.106   1.964   2.197 -0.5767  1.6541 -0.7257
 7890TIP3   OH245160   4.130   5.274   4.694 -0.0842 -0.0276 -0.4873
 7890TIP3    H145161   4.218   5.237   4.699 -1.0873 -2.4478  1.4704
 7890TIP3    H245162   4.078   5.207   4.650 -0.8161  1.8846 -2.7836
 7891TIP3   OH245163   4.351   3.450  14.711 -0.2866  0.0805 -0.1031
 7891TIP3    H145164   4.386   3.539  14.718  1.8463 -0.6276 -0.8072
 7891TIP3    H245165   4.402   3.399  14.774 -1.1283 -0.7535 -0.0714
 7892TIP3   OH245166   0.650   3.065   2.375 -0.3239  0.1764  0.4321
 7892TIP3    H145167   0.660   3.119   2.453  0.8283 -0.0836  0.4942
 7892TIP3    H245168   0.657   2.975   2.407  4.4127  0.0174 -0.2987
 7893TIP3   OH245169   2.205   6.483   4.371 -0.0726  0.3683 -0.0920
 7893TIP3    H145170   2.275   6.423   4.346 -1.0968 -1.2745  0.8531
 7893TIP3    H245171   2.163   6.441   4.445  0.6847  3.4273  2.2561
 7894TIP3   OH245172   5.671   3.164  13.443 -0.5519  0.4007 -0.2452
 7894TIP3    H145173   5.695   3.184  13.353 -0.0047 -0.0443 -0.1978
 7894TIP3    H245174   5.610   3.234  13.467  0.1538  1.1510 -0.5924
 7895TIP3   OH245175   0.418   6.764   2.991 -0.4278 -0.0683  0.4198
 7895TIP3    H145176   0.412   6.853   3.027  0.8764 -0.5358  1.9484
 7895TIP3    H245177   0.455   6.713   3.063  0.9234 -1.4004 -1.1492
 7896TIP3   OH245178   2.967   2.110  14.668 -0.0910 -0.2266 -0.0867
 7896TIP3    H145179   2.890   2.137  14.718 -0.0289 -2.3764  1.2641
 7896TIP3    H245180   3.012   2.193  14.648 -1.2261  0.8600  1.5917
 7897TIP3   OH245181   2.009   3.689   5.996  0.4731  1.0086 -0.2213
 7897TIP3    H145182   2.037   3.779   5.981 -1.2023  1.3832 -1.3913
 7897TIP3    H245183   2.090   3.638   5.992  1.0767  2.0035 -3.4811
 7898TIP3   OH245184   4.121   0.951   0.361 -0.2445  0.4324 -0.0475
 7898TIP3    H145185   4.113   0.945   0.266 -1.6206  1.0137  0.0073
 7898TIP3    H245186   4.190   0.889   0.383  1.4936  1.7144 -1.6170
 7899TIP3   OH245187   1.333   2.288   4.766  0.0747  0.0744  0.1540
 7899TIP3    H145188   1.243   2.265   4.789 -0.9656  1.8317 -1.8396
 7899TIP3    H245189   1.353   2.365   4.818  0.1227  0.1751 -0.0121
 7900TIP3   OH245190   1.734   5.368   2.575 -0.3610  0.5552  0.8383
 7900TIP3    H145191   1.811   5.419   2.549 -0.1168  1.0491  2.4175
 7900TIP3    H245192   1.676   5.432   2.616 -1.9926  0.3367 -1.0144
 7901TIP3   OH245193   5.122   1.122  11.980 -0.2510 -0.2198 -0.3602
 7901TIP3    H145194   5.172   1.188  11.933 -2.0906  1.7110  0.2715
 7901TIP3    H245195   5.171   1.108  12.062 -0.5960  1.5150  0.1805
 7902TIP3   OH245196   5.194   4.054   1.086  0.4902  0.1330  0.0897
 7902TIP3    H145197   5.144   4.000   1.147  0.1503 -1.7385 -1.7060
 7902TIP3    H245198   5.167   4.143   1.105 -1.2077 -0.5668  1.2304
 7903TIP3   OH245199   1.370   3.886   1.146  0.2068  0.1499  0.0879
 7903TIP3    H145200   1.324   3.865   1.228  1.6874  0.5660  1.0551
 7903TIP3    H245201   1.371   3.982   1.142  0.4385  0.1368 -0.2562
 7904TIP3   OH245202   2.725   1.104  11.610 -0.1164 -0.5879  0.4388
 7904TIP3    H145203   2.815   1.110  11.580 -0.5080 -0.3785 -0.7704
 7904TIP3    H245204   2.716   1.015  11.643  0.5470 -0.5829  0.6382
 7905TIP3   OH245205   3.756   0.643   1.548  0.2291 -0.0092  0.1574
 7905TIP3    H145206   3.723   0.702   1.480  0.6046  0.0350  0.0108
 7905TIP3    H245207   3.794   0.570   1.499 -0.8146 -0.6970  0.3453
 7906TIP3   OH245208   5.885   2.681  17.270 -0.3373  0.1147 -0.1588
 7906TIP3    H145209   5.837   2.682  17.188 -1.6198 -0.3310  0.5553
 7906TIP3    H245210   5.921   2.593  17.276  0.7254  0.4913 -0.7596
 7907TIP3   OH245211   3.316   5.206   1.648  0.6796  0.6129 -0.2103
 7907TIP3    H145212   3.387   5.257   1.609  1.0996 -1.0082 -1.6676
 7907TIP3    H245213   3.360   5.134   1.693  0.0061  0.1909 -0.2172
 7908TIP3   OH245214   0.631   0.381   5.575 -0.3262 -0.2396  0.2838
 7908TIP3    H145215   0.613   0.401   5.483 -0.5899  0.5265  0.4925
 7908TIP3    H245216   0.582   0.301   5.592 -1.0453  0.1329  0.0038
 7909TIP3   OH245217   2.168   0.795  14.873  0.1422  0.1620 -0.0268
 7909TIP3    H145218   2.233   0.827  14.936  0.4686  0.8840 -0.7098
 7909TIP3    H245219   2.092   0.852  14.886  0.4351  0.7221 -0.6976
 7910TIP3   OH245220   4.861   2.589  11.317 -0.2098  0.7669  0.2893
 7910TIP3    H145221   4.872   2.590  11.222  0.7596 -1.9604  0.2850
 7910TIP3    H245222   4.789   2.528  11.332 -0.7522  1.6285  1.3245
 7911TIP3   OH245223   2.881   0.684  11.354 -0.9391 -0.5578  0.5453
 7911TIP3    H145224   2.851   0.593  11.347 -1.7566 -0.2719  0.1688
 7911TIP3    H245225   2.956   0.680  11.413 -0.2181 -1.6457 -0.3998
 7912TIP3   OH245226   6.175   3.731  10.991  1.0795 -0.0140  0.3969
 7912TIP3    H145227   6.167   3.685  11.075  0.6594 -1.0750 -0.2035
 7912TIP3    H245228   6.108   3.799  10.994  0.0114 -1.0442  0.3142
 7913TIP3   OH245229   1.292   3.176  13.186 -0.0606 -0.1273 -0.1461
 7913TIP3    H145230   1.350   3.249  13.164  0.4850 -0.3317  0.5840
 7913TIP3    H245231   1.349   3.100  13.189  0.0103 -0.0643  2.2977
 7914TIP3   OH245232   2.383   4.792  16.071 -0.0479 -0.2048  0.1983
 7914TIP3    H145233   2.423   4.718  16.027 -3.7576 -1.6469 -1.1356
 7914TIP3    H245234   2.437   4.805  16.150  1.9084 -2.9684 -0.5332
 7915TIP3   OH245235   2.429   6.269  13.541 -0.2265  0.2316 -0.0568
 7915TIP3    H145236   2.478   6.199  13.584  1.7912  1.3218 -0.4463
 7915TIP3    H245237   2.456   6.349  13.587 -0.9129  0.9866 -0.9287
 7916TIP3   OH245238   5.952   3.658  14.031 -0.1855 -0.1946  0.2859
 7916TIP3    H145239   6.025   3.652  14.092 -0.9071 -0.7659  1.1307
 7916TIP3    H245240   5.879   3.691  14.083 -1.0178 -1.3882 -0.0602
 7917TIP3   OH245241   1.991   1.398  17.153  1.0328  0.1660  0.3297
 7917TIP3    H145242   1.924   1.420  17.088  1.1526 -0.6333 -0.0696
 7917TIP3    H245243   2.071   1.438  17.119  1.2883 -0.9747 -0.4900
 7918TIP3   OH245244   1.110   4.126   2.939  0.4798 -0.0385 -0.5077
 7918TIP3    H145245   1.161   4.072   2.999  1.5815  1.9900  0.5120
 7918TIP3    H245246   1.069   4.192   2.995  1.4435  1.8547 -1.9116
 7919TIP3   OH245247   2.910   1.819   2.644  0.3088  0.9474  0.2291
 7919TIP3    H145248   2.866   1.823   2.729  0.2601 -0.8386  0.3269
 7919TIP3    H245249   2.860   1.879   2.589 -2.2683 -0.9019  0.3554
 7920TIP3   OH245250   3.938   1.675   6.500  0.4934 -0.2051  0.1784
 7920TIP3    H145251   3.924   1.732   6.424 -0.0702  1.4559  1.4715
 7920TIP3    H245252   4.024   1.636   6.485 -0.5155 -1.7056 -2.3883
 7921TIP3   OH245253   2.535   3.761  13.355  0.4149  0.2200 -0.0591
 7921TIP3    H145254   2.631   3.758  13.360  0.3553 -2.8079  0.9848
 7921TIP3    H245255   2.508   3.787  13.442  0.2235  2.2674 -0.6708
 7922TIP3   OH245256   2.302   0.170  11.974  0.4578  0.1020  0.0310
 7922TIP3    H145257   2.341   0.083  11.981  3.0711  1.2065  0.5352
 7922TIP3    H245258   2.267   0.174  11.886  0.9780 -1.2079 -0.2577
 7923TIP3   OH245259   2.649   5.140  14.596 -0.1659  0.2017  0.4877
 7923TIP3    H145260   2.594   5.062  14.580 -0.6653  0.2976  1.6375
 7923TIP3    H245261   2.683   5.163  14.510 -1.2609 -0.3751 -0.1282
 7924TIP3   OH245262   4.407   3.387   4.327 -0.3876 -0.1999 -0.6977
 7924TIP3    H145263   4.332   3.359   4.379  0.1887 -1.1891 -0.3563
 7924TIP3    H245264   4.471   3.418   4.391 -0.1909 -0.1500 -0.9153
 7925TIP3   OH245265   1.475   0.755  11.737 -0.2033  0.2378 -0.3557
 7925TIP3    H145266   1.399   0.793  11.781 -2.0041 -1.7163 -1.5955
 7925TIP3    H245267   1.466   0.785  11.646 -0.0650 -0.8072 -0.7192
 7926TIP3   OH245268   3.582   4.119  16.314 -0.1152  0.1726  0.4684
 7926TIP3    H145269   3.568   4.162  16.398  1.7243  0.4625  0.6512
 7926TIP3    H245270   3.524   4.042  16.317 -0.2518  0.3068  1.8829
 7927TIP3   OH245271   5.027   0.798   5.850 -0.7306 -0.0127  0.1568
 7927TIP3    H145272   5.055   0.801   5.758  0.0453  0.9594  0.4048
 7927TIP3    H245273   5.081   0.864   5.893  0.6104 -2.0290  1.7710
 7928TIP3   OH245274   6.770   1.605  15.304 -0.2091 -0.5066  0.2864
 7928TIP3    H145275   6.764   1.518  15.343  1.5170 -0.7143  0.1677
 7928TIP3    H245276   6.712   1.602  15.229  0.0130 -1.6487  0.1432
 7929TIP3   OH245277   4.625   1.432   4.431  0.6094 -0.0259 -0.5645
 7929TIP3    H145278   4.552   1.493   4.441  0.8562  0.6832 -2.7336
 7929TIP3    H245279   4.625   1.381   4.512 -1.6802  0.6138 -0.1118
 7930TIP3   OH245280   2.536   3.781   4.295 -0.4760 -0.2369  0.1339
 7930TIP3    H145281   2.474   3.853   4.289  0.5187  0.7220  0.9927
 7930TIP3    H245282   2.588   3.786   4.214 -0.8615 -0.4408 -0.1312
 7931TIP3   OH245283   4.259   4.764   0.678  0.3126 -0.1116  1.0988
 7931TIP3    H145284   4.301   4.679   0.691  0.1223 -0.4055 -0.0737
 7931TIP3    H245285   4.324   4.828   0.706  1.6326 -0.5437 -0.7941
 7932TIP3   OH245286   3.228   0.918  13.283 -0.1343 -0.2251  0.3251
 7932TIP3    H145287   3.194   0.894  13.197 -1.6489  0.5347  0.6612
 7932TIP3    H245288   3.207   1.012  13.291  0.5130 -0.1506  1.2733
 7933TIP3   OH245289   3.974   0.422   5.490  0.0296  0.1422 -0.4243
 7933TIP3    H145290   4.038   0.481   5.527  0.6061 -0.0177 -1.1330
 7933TIP3    H245291   3.996   0.336   5.527 -1.2720  0.4569  1.1961
 7934TIP3   OH245292   5.352   1.693  13.437 -0.1244  0.7751  0.4532
 7934TIP3    H145293   5.363   1.771  13.491 -0.4139  1.2057 -0.0995
 7934TIP3    H245294   5.265   1.703  13.398  0.9061  1.5399 -1.7714
 7935TIP3   OH245295   3.798   2.573   0.066  0.0399 -0.0127  0.3910
 7935TIP3    H145296   3.826   2.485   0.039 -2.6796 -1.4754  1.9084
 7935TIP3    H245297   3.793   2.568   0.162  0.9421  2.2203  0.6115
 7936TIP3   OH245298   3.766   6.510  16.232 -0.7346  0.2573  0.5978
 7936TIP3    H145299   3.716   6.496  16.312  0.1371 -0.5286  1.0257
 7936TIP3    H245300   3.802   6.598  16.242 -0.4073  0.0607  1.1995
 7937TIP3   OH245301   5.226   1.235  12.471  0.0302 -0.1911 -0.1986
 7937TIP3    H145302   5.276   1.309  12.505  1.5411 -0.7024 -1.2202
 7937TIP3    H245303   5.186   1.268  12.390 -2.5568  0.6523  1.3188
 7938TIP3   OH245304   4.981   6.139  11.018 -0.3072 -0.2364 -0.0437
 7938TIP3    H145305   4.934   6.188  10.950 -2.7524 -0.2727  1.5248
 7938TIP3    H245306   4.966   6.047  10.997  1.0944 -0.3343 -0.8139
 7939TIP3   OH245307   1.628   4.171   6.255  0.2355  0.3669 -0.5540
 7939TIP3    H145308   1.604   4.080   6.271 -1.1666  0.8346  0.1985
 7939TIP3    H245309   1.547   4.211   6.221 -0.1057  1.9856  1.9073
 7940TIP3   OH245310   0.018   6.257  13.640  0.4521 -0.1925 -0.0003
 7940TIP3    H145311   0.067   6.208  13.706  0.0937 -1.7564 -0.8380
 7940TIP3    H245312   0.016   6.199  13.564 -0.6772  0.8181 -0.7841
 7941TIP3   OH245313   5.767   4.777  12.621  0.8171  0.1063  0.1661
 7941TIP3    H145314   5.823   4.720  12.674  0.0170 -0.7293  0.1263
 7941TIP3    H245315   5.756   4.731  12.538 -0.2197  0.0736  0.3041
 7942TIP3   OH245316   2.520   2.342  12.353  0.3479 -0.3382  0.1890
 7942TIP3    H145317   2.497   2.406  12.286  0.5053  0.7699  1.1706
 7942TIP3    H245318   2.472   2.263  12.327  0.8397 -0.1233 -1.5278
 7943TIP3   OH245319   1.330   2.948  13.353 -0.3515 -0.3095  0.0203
 7943TIP3    H145320   1.352   3.038  13.378 -0.3379  0.0801 -1.2971
 7943TIP3    H245321   1.254   2.926  13.408 -0.9793  0.8884 -0.3217
 7944TIP3   OH245322   5.885   1.278  11.269 -0.3244 -1.1080  0.1538
 7944TIP3    H145323   5.820   1.264  11.338 -1.7962 -0.5847 -1.0609
 7944TIP3    H245324   5.956   1.326  11.312 -0.3722 -2.3567  1.6984
 7945TIP3   OH245325   3.280   6.733  13.291  0.0514  0.5005 -0.1613
 7945TIP3    H145326   3.245   6.788  13.362  0.5299 -0.9767  1.2701
 7945TIP3    H245327   3.273   6.789  13.213 -0.7397  2.0898  0.9728
 7946TIP3   OH245328   0.251   0.580  12.314  0.0666  0.1419 -0.3424
 7946TIP3    H145329   0.173   0.606  12.363  1.2167  3.0865  0.1227
 7946TIP3    H245330   0.289   0.508  12.365 -0.3995  1.1267  1.5010
 7947TIP3   OH245331   1.757   0.773  13.935  0.5090 -0.1112  0.2258
 7947TIP3    H145332   1.668   0.807  13.937 -0.0990 -1.5777 -0.6091
 7947TIP3    H245333   1.782   0.777  13.843  1.6961  1.1647  0.5650
 7948TIP3   OH245334   0.388   5.227   6.402 -0.0676  0.5054  0.2057
 7948TIP3    H145335   0.306   5.192   6.437 -0.4441 -0.8697 -1.8811
 7948TIP3    H245336   0.364   5.314   6.369 -0.3768  0.6267  0.7389
 7949TIP3   OH245337   1.766   0.519  12.530 -0.2067  0.1771  0.5095
 7949TIP3    H145338   1.813   0.533  12.612  0.1733  0.9026  0.1755
 7949TIP3    H245339   1.674   0.513  12.555 -0.0779  0.2395  1.0023
 7950TIP3   OH245340   6.808   1.697  16.298  0.5898 -0.3192 -0.2101
 7950TIP3    H145341   6.753   1.638  16.349 -3.2204  1.5058 -1.8378
 7950TIP3    H245342   6.888   1.646  16.280 -1.2334 -3.8557  0.8194
 7951TIP3   OH245343   1.774   2.438   6.541  0.0563  0.3501 -0.6709
 7951TIP3    H145344   1.772   2.353   6.584 -0.7866  1.4395  1.5999
 7951TIP3    H245345   1.861   2.472   6.559  0.5302 -0.1653 -1.9147
 7952TIP3   OH245346   3.464   4.433  11.256  0.3237 -0.1576  0.3852
 7952TIP3    H145347   3.544   4.381  11.253  1.1027  0.9258  1.5520
 7952TIP3    H245348   3.427   4.423  11.168  1.9784 -0.3170 -0.3434
 7953TIP3   OH245349   0.985   1.342  12.607  0.8297  0.6151 -0.3768
 7953TIP3    H145350   1.021   1.408  12.665  1.1000 -0.3960  0.6382
 7953TIP3    H245351   1.053   1.329  12.540  1.5236  0.1260  0.4074
 7954TIP3   OH245352   6.490   4.184  13.303  0.1522  0.3210  0.3680
 7954TIP3    H145353   6.491   4.093  13.274  2.6348  0.1969  0.5634
 7954TIP3    H245354   6.564   4.224  13.257 -1.2533  2.4351 -0.1951
 7955TIP3   OH245355   3.496   5.709   1.121 -0.0118  0.3323  0.4017
 7955TIP3    H145356   3.492   5.804   1.131 -0.6903  0.2753  0.7830
 7955TIP3    H245357   3.422   5.688   1.064 -0.2417 -0.0231  0.8266
 7956TIP3   OH245358   1.401   6.712  10.596  0.3253  0.0285 -0.0255
 7956TIP3    H145359   1.470   6.765  10.636  1.2390 -0.1767 -1.2636
 7956TIP3    H245360   1.379   6.758  10.515 -1.8294  0.6925  0.8616
 7957TIP3   OH245361   0.973   4.661  15.154  0.4809 -0.4936  0.2835
 7957TIP3    H145362   1.007   4.571  15.152 -0.8443 -1.0965  2.0390
 7957TIP3    H245363   1.007   4.698  15.235  2.1913  1.1486 -1.1106
 7958TIP3   OH245364   0.900   6.471   3.303  0.5327 -0.0505 -0.3435
 7958TIP3    H145365   0.931   6.381   3.301  0.4425 -0.1432  1.1867
 7958TIP3    H245366   0.978   6.524   3.317  0.2940 -0.1549  1.7644
 7959TIP3   OH245367   4.929   4.066   2.373 -0.0173 -0.1773 -0.4814
 7959TIP3    H145368   5.012   4.076   2.326  0.1953 -0.5779 -0.1943
 7959TIP3    H245369   4.894   4.155   2.378  0.7705  0.1108  0.0703
 7960TIP3   OH245370   2.303   5.418  14.915  0.2465 -0.2627 -0.2578
 7960TIP3    H145371   2.376   5.479  14.921  0.7418 -0.7846 -0.7490
 7960TIP3    H245372   2.320   5.352  14.982  0.1491 -0.2986 -0.2679
 7961TIP3   OH245373   3.929   3.058  12.724  0.4305  0.5527  0.3488
 7961TIP3    H145374   3.930   3.031  12.816  1.6188  0.0597  0.2033
 7961TIP3    H245375   3.913   3.152  12.727 -1.5200  0.2635  0.9565
 7962TIP3   OH245376   5.412   6.767   3.773  0.0948 -0.7069 -0.3530
 7962TIP3    H145377   5.439   6.681   3.741  0.6276 -0.5730 -0.2707
 7962TIP3    H245378   5.480   6.791   3.836 -2.2710 -2.1735  3.0506
 7963TIP3   OH245379   3.953   3.866   5.750  0.2603  0.0005  0.2368
 7963TIP3    H145380   3.971   3.955   5.717 -0.4206  0.0733  0.0505
 7963TIP3    H245381   3.989   3.808   5.683 -0.9724  0.1485 -0.5850
 7964TIP3   OH245382   5.743   5.785   3.126  0.0760 -0.5610 -0.1506
 7964TIP3    H145383   5.723   5.873   3.159 -1.0372 -1.0962  0.6330
 7964TIP3    H245384   5.660   5.738   3.130  0.1840 -1.0695 -2.5103
 7965TIP3   OH245385   3.071   3.314  15.792  0.3679  0.0034  0.1867
 7965TIP3    H145386   3.153   3.364  15.786  0.1976  0.2205 -0.4263
 7965TIP3    H245387   3.095   3.235  15.839  1.1437 -0.3308 -0.7286
 7966TIP3   OH245388   2.539   5.965   4.416 -0.8753  0.0233 -0.1210
 7966TIP3    H145389   2.482   6.007   4.480 -0.2177 -0.5278  0.8415
 7966TIP3    H245390   2.504   5.876   4.408 -0.0364 -0.3946  0.6558
 7967TIP3   OH245391   5.696   4.315  11.733 -0.4463  0.6151  0.5533
 7967TIP3    H145392   5.677   4.406  11.711 -0.5255  0.7768  1.2641
 7967TIP3    H245393   5.777   4.318  11.784 -1.8474  0.6146  2.9527
 7968TIP3   OH245394   5.838   4.227  16.372 -0.0590 -0.2732  0.1267
 7968TIP3    H145395   5.882   4.230  16.457  0.6817  4.3988 -0.1685
 7968TIP3    H245396   5.909   4.225  16.308 -0.5564 -1.1059 -0.4224
 7969TIP3   OH245397   5.086   2.471  10.876 -0.3107 -0.3161  0.3193
 7969TIP3    H145398   5.082   2.557  10.918 -1.6393 -0.3755  0.3398
 7969TIP3    H245399   4.996   2.453  10.848  0.3939 -0.5535 -2.0108
 7970TIP3   OH245400   0.669   1.564  12.360 -0.3402  0.2186  0.4605
 7970TIP3    H145401   0.711   1.486  12.398 -0.0799 -0.0264 -0.3205
 7970TIP3    H245402   0.599   1.529  12.305  0.7401  0.4420 -1.1143
 7971TIP3   OH245403   0.873   1.393  14.863  0.4391 -0.3622 -0.1530
 7971TIP3    H145404   0.876   1.380  14.768  0.9400 -0.7736 -0.0836
 7971TIP3    H245405   0.952   1.444  14.882 -0.3343  0.8521 -0.1232
 7972TIP3   OH245406   0.639   2.700   0.075 -0.1309  0.6496  0.9340
 7972TIP3    H145407   0.642   2.606   0.094 -1.4217  0.2034 -0.8665
 7972TIP3    H245408   0.557   2.729   0.115 -1.0865  0.4207 -0.7793
 7973TIP3   OH245409   3.255   3.424   2.761 -0.2321  0.6494  0.1966
 7973TIP3    H145410   3.257   3.387   2.673 -0.7896  0.7321  0.1434
 7973TIP3    H245411   3.170   3.467   2.767 -1.0223 -0.9483  1.4054
 7974TIP3   OH245412   6.356   4.826  13.014 -0.4079 -0.4399  0.1874
 7974TIP3    H145413   6.361   4.920  13.000  0.3942 -0.5112 -0.0507
 7974TIP3    H245414   6.398   4.812  13.099 -0.5383 -0.5755  0.2293
 7975TIP3   OH245415   3.884   1.312   2.171 -0.5648  0.2885  1.1573
 7975TIP3    H145416   3.904   1.405   2.184  0.5853  0.5755 -1.9058
 7975TIP3    H245417   3.816   1.311   2.104 -0.8938 -1.1118  1.4734
 7976TIP3   OH245418   1.810   4.425  16.753 -0.4687 -0.4971  0.2555
 7976TIP3    H145419   1.836   4.372  16.828 -0.8598  0.1246  0.8510
 7976TIP3    H245420   1.715   4.414  16.748 -0.4526 -0.4929 -0.1202
 7977TIP3   OH245421   1.845   2.660  14.957 -0.0802 -0.0562  0.2909
 7977TIP3    H145422   1.775   2.630  14.899 -0.5271 -0.4554  1.0163
 7977TIP3    H245423   1.815   2.636  15.045  0.3702  0.9497  0.7333
 7978TIP3   OH245424   5.050   4.075   3.138  0.3495  0.4860 -0.3733
 7978TIP3    H145425   5.058   4.103   3.047  1.0367 -0.1568 -0.5257
 7978TIP3    H245426   5.068   4.154   3.189  0.9805  0.6244 -0.7959
 7979TIP3   OH245427   1.521   0.640   5.330  0.9241  0.4132 -0.1217
 7979TIP3    H145428   1.617   0.647   5.330  1.1560 -1.9936 -0.4810
 7979TIP3    H245429   1.503   0.554   5.293 -1.1504 -1.4751  4.5362
 7980TIP3   OH245430   2.785   1.130   6.537 -0.1400 -0.5625  0.5738
 7980TIP3    H145431   2.723   1.201   6.556 -0.0807 -0.5160  0.5940
 7980TIP3    H245432   2.862   1.151   6.590  0.8044  0.6464 -1.1697
 7981TIP3   OH245433   5.052   5.229  12.337  0.2274 -0.2096  0.1229
 7981TIP3    H145434   4.983   5.293  12.319  1.0290  0.0279 -2.3486
 7981TIP3    H245435   5.121   5.280  12.380  0.6502  0.5070 -1.3666
 7982TIP3   OH245436   4.594   3.485   1.053 -0.1928 -0.4885  0.4224
 7982TIP3    H145437   4.527   3.497   1.121  1.9524  2.7074  2.2380
 7982TIP3    H245438   4.666   3.440   1.097  0.3841 -0.3718 -0.3707
 7983TIP3   OH245439   5.039   5.981  13.990 -0.4504  0.3209  0.0524
 7983TIP3    H145440   5.036   5.900  13.940  0.1969  0.4516 -0.2211
 7983TIP3    H245441   4.952   5.991  14.027 -1.3645  0.8471 -2.0750
 7984TIP3   OH245442   1.046   3.577   0.898  0.0712 -0.3670 -0.0109
 7984TIP3    H145443   1.110   3.571   0.969 -0.7581  0.7469  0.8811
 7984TIP3    H245444   0.977   3.516   0.924  0.1741 -0.6067 -0.3052
 7985TIP3   OH245445   4.826   4.620  15.100 -0.1633 -1.2309 -0.3978
 7985TIP3    H145446   4.867   4.652  15.020 -0.0568  0.4888  0.3091
 7985TIP3    H245447   4.739   4.591  15.072 -2.1934  3.9756 -0.5145
 7986TIP3   OH245448   0.140   6.130  15.725  0.1227  0.3666  0.1366
 7986TIP3    H145449   0.176   6.217  15.705  1.9295 -0.5523 -0.9238
 7986TIP3    H245450   0.117   6.134  15.818 -1.5324  2.5014 -0.2779
 7987TIP3   OH245451   0.608   5.194   3.720 -0.4511 -0.0768 -0.2151
 7987TIP3    H145452   0.584   5.285   3.740  0.7993  0.0347  0.9420
 7987TIP3    H245453   0.560   5.174   3.639 -1.1522  1.4333 -0.2182
 7988TIP3   OH245454   1.073   4.816  13.267 -0.4287 -0.8166 -0.8616
 7988TIP3    H145455   1.122   4.898  13.264 -2.0691  0.1899 -2.8644
 7988TIP3    H245456   1.064   4.797  13.360  1.2749  0.4485 -0.3825
 7989TIP3   OH245457   1.527   2.254  17.014  0.2507 -0.4228 -0.3889
 7989TIP3    H145458   1.460   2.188  16.994 -0.8930  0.9176 -1.1817
 7989TIP3    H245459   1.608   2.216  16.981 -0.2843 -1.6434 -0.3762
 7990TIP3   OH245460   4.162   6.425   4.426  0.4196 -0.1787  0.5299
 7990TIP3    H145461   4.088   6.376   4.461 -1.0522  1.2516 -0.4161
 7990TIP3    H245462   4.138   6.517   4.441  0.4335  0.4665 -2.6586
 7991TIP3   OH245463   0.897   3.750   0.457  0.2229 -0.1009 -0.2352
 7991TIP3    H145464   0.971   3.717   0.406  1.5903  0.9141  1.0064
 7991TIP3    H245465   0.926   3.837   0.487 -0.4328 -0.7241  2.4090
 7992TIP3   OH245466   1.212   1.359   2.059 -0.2475  0.9554 -0.1651
 7992TIP3    H145467   1.239   1.388   1.972 -1.3375  1.9542 -0.2081
 7992TIP3    H245468   1.226   1.265   2.059 -1.1028  0.7832 -1.7680
 7993TIP3   OH245469   4.631   5.553   2.821 -0.1208 -0.1233  0.0029
 7993TIP3    H145470   4.606   5.628   2.766 -1.9577 -0.3583  0.4400
 7993TIP3    H245471   4.641   5.481   2.760 -1.5697 -0.2444 -0.1287
 7994TIP3   OH245472   1.002   0.693  11.100  0.2587 -0.3062  0.2161
 7994TIP3    H145473   0.969   0.637  11.029  0.3468 -1.1390  0.8097
 7994TIP3    H245474   1.082   0.731  11.065  0.2613 -0.6499 -0.1641
 7995TIP3   OH245475   3.990   6.281  11.487  0.1645 -0.1400 -0.7913
 7995TIP3    H145476   3.996   6.367  11.528 -1.6603 -1.5778  2.8710
 7995TIP3    H245477   4.076   6.242  11.501  0.0056 -0.0652  0.5151
 7996TIP3   OH245478   1.182   0.605   3.296 -0.2129 -0.1915 -0.0760
 7996TIP3    H145479   1.190   0.690   3.339  0.2752 -0.5602  0.5880
 7996TIP3    H245480   1.089   0.583   3.303 -0.3070  0.2029 -0.0868
 7997TIP3   OH245481   4.864   4.834  14.630  0.4101 -0.3535  0.1909
 7997TIP3    H145482   4.789   4.776  14.614  0.8223 -0.9667  0.4317
 7997TIP3    H245483   4.844   4.914  14.581 -1.2786  0.2354  1.6973
 7998TIP3   OH245484   0.786   3.790  14.646 -0.9312  0.2600  0.3080
 7998TIP3    H145485   0.831   3.843  14.581 -0.8290 -0.1711  0.0210
 7998TIP3    H245486   0.715   3.845  14.678 -0.1173  1.0180  0.8777
 7999TIP3   OH245487   3.735   4.130   1.311 -0.4775 -0.4528  0.1693
 7999TIP3    H145488   3.738   4.158   1.402  0.8721 -1.1449  0.3587
 7999TIP3    H245489   3.642   4.134   1.288 -0.6667  1.1588  1.1009
 8000TIP3   OH245490   0.999   1.789   4.628  0.5439 -0.4250 -0.4801
 8000TIP3    H145491   1.054   1.727   4.579  0.5204  1.3320 -2.9267
 8000TIP3    H245492   0.913   1.748   4.628  0.3139 -0.1144 -2.8672
 8001TIP3   OH245493   1.535   0.317  12.416  0.0403  0.4798 -0.1764
 8001TIP3    H145494   1.552   0.243  12.475 -0.9924 -0.4266 -0.9780
 8001TIP3    H245495   1.464   0.286  12.359 -0.6972  2.2430 -0.2648
 8002TIP3   OH245496   4.590   4.900  16.658  0.1974  0.1217  0.1276
 8002TIP3    H145497   4.666   4.924  16.711 -0.7463  0.6604  1.2764
 8002TIP3    H245498   4.522   4.879  16.722 -1.8748  3.4780 -0.7602
 8003TIP3   OH245499   1.151   5.049  16.358  0.2179 -0.0964  0.3574
 8003TIP3    H145500   1.178   5.140  16.344 -0.8541  0.4935  1.8153
 8003TIP3    H245501   1.065   5.043  16.317  0.5985 -0.6874 -0.3788
 8004TIP3   OH245502   5.748   6.695   2.793  0.0526  0.1762 -0.0071
 8004TIP3    H145503   5.840   6.686   2.768 -0.1441 -1.2053 -0.3190
 8004TIP3    H245504   5.713   6.606   2.790 -1.5562  0.7853 -0.8869
 8005TIP3   OH245505   5.178   1.370  11.865  0.8187  0.2585 -0.0891
 8005TIP3    H145506   5.240   1.419  11.811  3.0144 -0.6450  1.4902
 8005TIP3    H245507   5.130   1.437  11.913 -0.2428  1.0169 -2.0847
 8006TIP3   OH245508   4.769   2.598   5.578 -0.2151  0.3677  0.1405
 8006TIP3    H145509   4.817   2.663   5.629  0.3407 -0.8207  1.2039
 8006TIP3    H245510   4.753   2.640   5.494  0.6787  1.6395  0.5774
 8007TIP3   OH245511   1.567   2.063   3.190 -0.8136 -0.2674  0.3041
 8007TIP3    H145512   1.516   2.032   3.265 -2.4845 -1.1882 -1.1299
 8007TIP3    H245513   1.502   2.099   3.130  0.6492  1.8754 -0.0791
 8008TIP3   OH245514   5.241   6.084  14.850 -0.5452  0.0078  0.1624
 8008TIP3    H145515   5.318   6.109  14.901 -1.0592 -0.4278  1.1690
 8008TIP3    H245516   5.276   6.063  14.763  0.3899  0.3869  0.4363
 8009TIP3   OH245517   5.453   0.133   2.821 -0.6981 -0.2575  0.4168
 8009TIP3    H145518   5.498   0.098   2.897  0.1524  0.3909  0.2287
 8009TIP3    H245519   5.450   0.060   2.759  4.4622  0.7889 -1.5220
 8010TIP3   OH245520   4.343   5.376   1.729 -0.2683  0.1825  0.4723
 8010TIP3    H145521   4.395   5.422   1.664 -1.2557  0.4443 -0.1470
 8010TIP3    H245522   4.368   5.284   1.719  1.2053  0.4641  1.2509
 8011TIP3   OH245523   5.723   0.127  13.556 -0.2954  0.1653 -0.1714
 8011TIP3    H145524   5.796   0.090  13.506  0.0119  0.8517 -0.2333
 8011TIP3    H245525   5.764   0.166  13.633 -0.6292  0.2604 -0.0423
 8012TIP3   OH245526   0.491   0.769   3.388  0.1880 -0.2676  0.6555
 8012TIP3    H145527   0.566   0.816   3.351 -0.4760  0.5120  0.2730
 8012TIP3    H245528   0.523   0.680   3.400  1.0126 -0.0768 -0.0110
 8013TIP3   OH245529   3.353   6.318  12.831 -0.8799  0.0592 -0.3964
 8013TIP3    H145530   3.338   6.410  12.810 -1.2164  0.2761  0.7211
 8013TIP3    H245531   3.369   6.276  12.747  1.2061  1.4685 -0.7663
 8014TIP3   OH245532   0.714   5.555  15.865 -0.0051 -0.6369  0.2138
 8014TIP3    H145533   0.647   5.525  15.803  1.5911  0.0268 -1.9285
 8014TIP3    H245534   0.734   5.478  15.918  0.2229 -1.9254 -1.6454
 8015TIP3   OH245535   1.090   4.487   1.780 -0.3196 -0.7810  0.5799
 8015TIP3    H145536   1.016   4.538   1.815  0.8371  1.6141 -0.2288
 8015TIP3    H245537   1.138   4.459   1.857 -0.2104  0.6577  1.0746
 8016TIP3   OH245538   6.808   2.052  12.762  0.2454  0.6611 -0.0007
 8016TIP3    H145539   6.773   1.993  12.828  0.0965  0.9507  0.1801
 8016TIP3    H245540   6.864   1.996  12.707 -0.4930  0.1912 -0.2930
 8017TIP3   OH245541   4.152   4.946  15.015 -0.0564  0.1112  0.0702
 8017TIP3    H145542   4.151   4.888  15.091 -0.7145  1.7880  1.4073
 8017TIP3    H245543   4.219   4.909  14.958  1.7729 -0.2403  2.2892
 8018TIP3   OH245544   6.483   1.365   4.886 -0.3532  0.1894  0.2223
 8018TIP3    H145545   6.489   1.363   4.790  1.4443  2.7400  0.1767
 8018TIP3    H245546   6.559   1.315   4.916  0.5027  1.4437  0.2265
 8019TIP3   OH245547   5.646   4.001  17.198 -0.0344 -0.3664  0.1153
 8019TIP3    H145548   5.673   4.011  17.106 -0.8943  0.6026 -0.0530
 8019TIP3    H245549   5.724   4.021  17.248  0.4966 -1.0834 -0.4003
 8020TIP3   OH245550   0.530   0.333  14.238 -0.1852 -0.1948  0.1594
 8020TIP3    H145551   0.466   0.263  14.228 -0.0509 -0.4309  0.8502
 8020TIP3    H245552   0.565   0.348  14.150  0.0695 -1.2656  0.0701
 8021TIP3   OH245553   4.855   1.800  13.914 -0.2637 -0.0961  0.3383
 8021TIP3    H145554   4.826   1.731  13.974  0.7546  1.0754  2.2897
 8021TIP3    H245555   4.925   1.845  13.962  0.9620  0.5983 -1.9658
 8022TIP3   OH245556   3.886   2.319   0.177 -0.5628  0.3384 -0.0480
 8022TIP3    H145557   3.803   2.272   0.183  0.2949 -1.1720  0.6131
 8022TIP3    H245558   3.941   2.263   0.121  0.7816  0.0672  1.4781
 8023TIP3   OH245559   6.526   2.253  13.765  0.1183  0.4594  0.1462
 8023TIP3    H145560   6.445   2.228  13.810 -0.3495  2.9362  0.8519
 8023TIP3    H245561   6.537   2.346  13.786  2.0373  0.7154 -1.6804
 8024TIP3   OH245562   2.296   4.193  14.694  0.0397  0.3918 -0.3648
 8024TIP3    H145563   2.232   4.174  14.624  0.2077  3.0402 -1.3275
 8024TIP3    H245564   2.252   4.257  14.749  0.7235 -0.1072  0.7838
 8025TIP3   OH245565   6.121   6.000   1.564  0.2284 -0.1820  0.0383
 8025TIP3    H145566   6.047   5.965   1.514 -0.5193 -0.0367  1.0286
 8025TIP3    H245567   6.190   5.934   1.554 -0.4029 -0.8414  0.0183
 8026TIP3   OH245568   5.946   0.594   0.876 -0.1925 -0.9635  0.1032
 8026TIP3    H145569   5.880   0.599   0.808 -1.6351 -0.1057  1.4990
 8026TIP3    H245570   5.946   0.502   0.903  0.6182 -1.3763 -1.2160
 8027TIP3   OH245571   1.119   3.895  16.679 -0.2201 -0.2349  0.2724
 8027TIP3    H145572   1.095   3.986  16.661  1.9616  0.1541 -1.0779
 8027TIP3    H245573   1.062   3.869  16.752 -0.8201  2.2355  0.7811
 8028TIP3   OH245574   0.551   0.242   0.968  0.1656 -0.7450 -0.1058
 8028TIP3    H145575   0.523   0.333   0.961 -0.6213 -1.0667 -1.7420
 8028TIP3    H245576   0.482   0.200   1.019 -0.6473 -0.8573 -1.2697
 8029TIP3   OH245577   0.810   0.217  16.692 -0.3183  0.4486 -0.3632
 8029TIP3    H145578   0.775   0.249  16.609 -0.6070  0.6156 -0.1773
 8029TIP3    H245579   0.744   0.240  16.757  0.3880  1.2574  0.0766
 8030TIP3   OH245580   0.614   1.751  16.779 -0.8089 -0.4711 -0.3700
 8030TIP3    H145581   0.651   1.824  16.829 -2.9554 -0.6220  1.6321
 8030TIP3    H245582   0.660   1.753  16.696  2.3440  0.3967  1.2340
 8031TIP3   OH245583   0.350   6.252  16.013 -0.4311  0.3380  0.4606
 8031TIP3    H145584   0.432   6.202  16.019 -0.3844  0.4521  0.8586
 8031TIP3    H245585   0.320   6.239  15.923 -1.4316 -2.0035  1.0382
 8032TIP3   OH245586   5.024   3.419   5.534  0.5292 -0.5039 -0.1780
 8032TIP3    H145587   5.036   3.415   5.439  0.5039 -0.5431 -0.1797
 8032TIP3    H245588   5.103   3.378   5.569  0.9069  0.2131 -0.1631
 8033TIP3   OH245589   1.555   2.999  13.595 -0.3666 -0.2171 -1.1872
 8033TIP3    H145590   1.539   3.072  13.536  0.0992  1.2973  0.4600
 8033TIP3    H245591   1.475   2.991  13.646  0.1806  0.3275 -0.1977
 8034TIP3   OH245592   5.302   3.488  12.044 -0.7413  0.4982 -0.4159
 8034TIP3    H145593   5.381   3.541  12.056  0.2745 -1.0489 -0.0917
 8034TIP3    H245594   5.230   3.546  12.071  0.4517  1.1885  1.4195
 8035TIP3   OH245595   4.067   1.427   0.484 -0.3906 -0.5690 -0.9529
 8035TIP3    H145596   4.009   1.354   0.506  0.3371 -1.1031 -0.7611
 8035TIP3    H245597   4.128   1.433   0.558 -0.5787  0.3869 -0.8590
 8036TIP3   OH245598   5.245   2.513  14.530  0.4759 -0.4881 -0.1768
 8036TIP3    H145599   5.308   2.504  14.459  0.1094  1.7634 -0.8713
 8036TIP3    H245600   5.160   2.503  14.488  0.3108 -1.2459  0.3333
 8037TIP3   OH245601   4.740   0.685   3.548 -0.1553  0.4061  0.5666
 8037TIP3    H145602   4.807   0.719   3.607 -0.5171  1.7850  0.2117
 8037TIP3    H245603   4.673   0.649   3.606  0.2791  0.2073  0.9471
 8038TIP3   OH245604   0.135   6.027  10.530 -0.0352 -0.0688 -0.0884
 8038TIP3    H145605   0.221   6.003  10.495 -0.0013  0.3669 -0.3095
 8038TIP3    H245606   0.083   5.947  10.523  0.5498 -0.5342  0.6801
 8039TIP3   OH245607   2.030   4.375  11.463 -0.0954  0.6936 -0.2028
 8039TIP3    H145608   2.113   4.418  11.443 -0.7186  1.0740 -2.1841
 8039TIP3    H245609   2.053   4.282  11.472  0.6887  0.9282  0.2698
 8040TIP3   OH245610   0.363   2.824  14.750 -0.6138  0.2083  0.0686
 8040TIP3    H145611   0.372   2.917  14.730 -1.4809  0.0247 -1.2823
 8040TIP3    H245612   0.448   2.786  14.726  0.6139  0.9351  2.7861
 8041TIP3   OH245613   2.466   1.096   3.412 -0.6354  0.4278  0.3592
 8041TIP3    H145614   2.411   1.063   3.341  0.4987 -0.2323 -0.2535
 8041TIP3    H245615   2.441   1.043   3.488 -0.5451 -0.1863 -0.0246
 8042TIP3   OH245616   3.198   4.731   1.267 -0.3676 -0.3238  0.6204
 8042TIP3    H145617   3.107   4.755   1.283  0.3511  1.7361  2.1097
 8042TIP3    H245618   3.215   4.658   1.326 -0.5452  0.6526  1.9438
 8043TIP3   OH245619   6.576   6.177  12.946  0.7297  0.6578 -0.1207
 8043TIP3    H145620   6.648   6.193  12.885  1.0161  2.0071  0.5325
 8043TIP3    H245621   6.511   6.243  12.924 -0.9154 -1.3169 -1.5232
 8044TIP3   OH245622   3.010   5.984  16.180  0.1670  0.2289 -0.3127
 8044TIP3    H145623   3.024   5.967  16.273  2.8121  0.6923 -0.5503
 8044TIP3    H245624   2.929   6.035  16.177 -0.6435 -0.8422  1.5827
 8045TIP3   OH245625   0.868   0.197  11.140  0.0028  0.0753  0.3776
 8045TIP3    H145626   0.932   0.126  11.146  1.9522  1.6950 -0.2318
 8045TIP3    H245627   0.885   0.237  11.055 -1.4607  0.9354  0.4629
 8046TIP3   OH245628   5.884   4.120  13.443  0.1090  0.0824  0.2152
 8046TIP3    H145629   5.912   4.129  13.534 -0.9733 -1.4109  0.7379
 8046TIP3    H245630   5.806   4.063  13.447 -0.2438  0.3691 -1.5932
 8047TIP3   OH245631   4.137   1.942  13.124 -0.5211 -0.2030 -0.6879
 8047TIP3    H145632   4.181   1.979  13.047 -1.5812 -1.2195 -1.8027
 8047TIP3    H245633   4.073   2.008  13.149  0.1456  0.3360 -0.3757
 8048TIP3   OH245634   0.143   5.484   5.052  0.3020  0.0471 -0.3456
 8048TIP3    H145635   0.105   5.569   5.074 -0.9143 -0.6995  0.5404
 8048TIP3    H245636   0.232   5.505   5.024 -0.3762  1.7447 -1.4435
 8049TIP3   OH245637   5.476   0.153  13.718  0.0203 -0.7704  0.0578
 8049TIP3    H145638   5.504   0.193  13.636  0.5126 -1.9477 -0.3760
 8049TIP3    H245639   5.480   0.224  13.782  0.2237  0.0163 -0.8074
 8050TIP3   OH245640   1.258   6.376   0.441  0.8068  0.1720  0.4704
 8050TIP3    H145641   1.251   6.460   0.396  1.4544 -0.1510 -0.2698
 8050TIP3    H245642   1.244   6.397   0.533  1.6725  1.2181  0.3902
 8051TIP3   OH245643   2.884   4.398  13.369 -0.4846  0.3753  0.1343
 8051TIP3    H145644   2.800   4.411  13.414  0.5705  0.5383  2.1684
 8051TIP3    H245645   2.933   4.478  13.385  0.6022 -0.2911  0.2457
 8052TIP3   OH245646   6.465   3.635  16.562  0.3219  0.4302  0.0086
 8052TIP3    H145647   6.539   3.648  16.621 -0.3056 -0.9287  1.1496
 8052TIP3    H245648   6.421   3.720  16.560  0.1853  0.4347  1.7575
 8053TIP3   OH245649   0.876   5.594  13.691 -0.7492 -0.2642  0.0327
 8053TIP3    H145650   0.924   5.548  13.623 -1.1747 -1.9458  0.8345
 8053TIP3    H245651   0.869   5.684  13.658 -1.4820 -1.1345 -2.4094
 8054TIP3   OH245652   4.641   0.968   6.311  0.0518  0.4375 -0.0841
 8054TIP3    H145653   4.567   1.014   6.349  1.2336  2.7194 -0.4120
 8054TIP3    H245654   4.609   0.935   6.227 -0.8969  0.3841  0.2890
 8055TIP3   OH245655   5.715   3.734  12.310 -0.2519  0.1945 -0.2021
 8055TIP3    H145656   5.648   3.793  12.345 -0.4945  0.2026 -0.6848
 8055TIP3    H245657   5.682   3.646  12.330 -1.8621  0.0670 -2.9882
 8056TIP3   OH245658   2.211   4.671   1.572 -0.5210 -0.1232  0.4636
 8056TIP3    H145659   2.196   4.712   1.657  0.3036  2.0058 -0.3443
 8056TIP3    H245660   2.234   4.744   1.514  1.5193 -1.7801 -0.9798
 8057TIP3   OH245661   4.309   6.563  11.496  0.5131  0.0445 -0.3477
 8057TIP3    H145662   4.334   6.517  11.577 -1.8754  2.4077  1.9306
 8057TIP3    H245663   4.372   6.635  11.490 -0.2642  0.8067  0.3754
 8058TIP3   OH245664   1.406   0.015  17.213 -0.1230 -0.1285 -0.2299
 8058TIP3    H145665   1.347  -0.018  17.144 -0.6488 -0.4688  0.3680
 8058TIP3    H245666   1.395   0.110  17.211 -0.7897 -0.1968 -0.0450
 8059TIP3   OH245667   1.841   2.751   3.303  0.1010 -0.3472  0.1001
 8059TIP3    H145668   1.814   2.697   3.229  0.8049 -1.1473  0.4028
 8059TIP3    H245669   1.928   2.717   3.327  0.3402  0.5967  0.6201
 8060TIP3   OH245670   6.560   4.912   2.946  0.5823  0.2183 -0.1770
 8060TIP3    H145671   6.505   4.981   2.983 -0.8152 -0.9067 -0.0611
 8060TIP3    H245672   6.589   4.861   3.021  0.1059 -0.3767 -0.3856
 8061TIP3   OH245673   1.062   2.950   6.641 -0.0682  0.3554 -0.3518
 8061TIP3    H145674   0.977   2.993   6.640 -0.9895 -1.4185 -1.4046
 8061TIP3    H245675   1.045   2.860   6.615  2.3610  0.3674 -2.3947
 8062TIP3   OH245676   2.478   4.429  13.806 -0.3482  0.1620  0.0096
 8062TIP3    H145677   2.505   4.346  13.768 -0.4720  1.3612 -2.9819
 8062TIP3    H245678   2.388   4.414  13.834 -0.1984 -0.8365 -0.0106
 8063TIP3   OH245679   0.998   1.229   2.804 -0.3439  0.1404 -0.2742
 8063TIP3    H145680   1.035   1.287   2.872 -1.1815  0.0250  0.2949
 8063TIP3    H245681   0.919   1.193   2.844 -1.5329  0.9959 -1.7391
 8064TIP3   OH245682   1.486   0.831   0.001  0.8565 -0.0736  0.5245
 8064TIP3    H145683   1.514   0.741  -0.018 -2.4391 -0.6671 -2.7740
 8064TIP3    H245684   1.408   0.843  -0.054  0.0764  4.2339  2.2234
 8065TIP3   OH245685   3.954   3.870  16.283  0.6822  0.0115 -0.3535
 8065TIP3    H145686   4.037   3.824  16.277  2.1167  1.8655  2.8701
 8065TIP3    H245687   3.901   3.817  16.342  1.9667  1.6719  2.5332
 8066TIP3   OH245688   5.644   0.398  12.261 -0.0666 -0.0285 -0.8454
 8066TIP3    H145689   5.607   0.361  12.180 -0.8021  1.4809 -1.2218
 8066TIP3    H245690   5.593   0.356  12.331  0.6871 -1.4744 -1.1106
 8067TIP3   OH245691   2.907   2.212   1.299  0.3519 -0.3575 -0.2736
 8067TIP3    H145692   2.812   2.226   1.304  0.2519 -1.4142  1.9076
 8067TIP3    H245693   2.924   2.196   1.206 -1.1601  2.4979 -1.1907
 8068TIP3   OH245694   1.163   4.865  16.035 -0.4201  0.0749 -0.4268
 8068TIP3    H145695   1.158   4.846  16.128 -2.1960 -0.5085 -0.6038
 8068TIP3    H245696   1.139   4.783  15.992  0.0107  0.4360 -1.3946
 8069TIP3   OH245697   4.441   5.886  16.457  0.7357 -0.2305  0.0293
 8069TIP3    H145698   4.420   5.972  16.419  2.9621  0.4992  0.2543
 8069TIP3    H245699   4.468   5.833  16.382  0.9921 -0.1843  0.0885
 8070TIP3   OH245700   4.334   4.214  13.443  0.0602 -0.1937 -0.5701
 8070TIP3    H145701   4.343   4.302  13.477  0.6432 -0.6560  0.4995
 8070TIP3    H245702   4.240   4.197  13.447 -0.1203  0.5586 -1.2879
 8071TIP3   OH245703   6.162   6.570   1.178 -0.0695  0.4772 -0.3237
 8071TIP3    H145704   6.099   6.509   1.139  0.1794  0.2988 -0.4464
 8071TIP3    H245705   6.109   6.647   1.201 -0.7745 -0.4870  1.5716
 8072TIP3   OH245706   0.148   3.195  13.090 -0.2725 -0.2486 -0.3131
 8072TIP3    H145707   0.056   3.176  13.107 -0.0962 -0.7129  0.1802
 8072TIP3    H245708   0.148   3.245  13.009 -0.9606 -0.2168 -0.2996
 8073TIP3   OH245709   4.107   1.152  15.189  0.0173 -0.3394 -0.2817
 8073TIP3    H145710   4.072   1.145  15.278 -0.4853  1.7852 -0.2743
 8073TIP3    H245711   4.038   1.115  15.134 -0.8721  0.8115  0.0178
 8074TIP3   OH245712   0.454   3.174  11.008  0.1667  0.3421  0.1964
 8074TIP3    H145713   0.383   3.154  11.070 -1.3615  0.1838 -1.5297
 8074TIP3    H245714   0.467   3.269  11.018  0.2150  0.2585  1.0200
 8075TIP3   OH245715   5.896   0.607  13.450 -0.0099 -0.5351  0.0953
 8075TIP3    H145716   5.856   0.693  13.460 -0.7707 -0.7227 -1.2348
 8075TIP3    H245717   5.986   0.625  13.423  0.2422 -0.1533  1.1367
 8076TIP3   OH245718   4.085   6.421  12.301  0.1300 -0.0417  0.2012
 8076TIP3    H145719   4.049   6.396  12.387 -1.4606  0.0235 -0.4148
 8076TIP3    H245720   4.148   6.352  12.281 -0.0536 -0.4836  1.0804
 8077TIP3   OH245721   5.680   2.997   2.463  0.0516  0.0952 -0.1355
 8077TIP3    H145722   5.690   3.084   2.501  1.4495 -0.5200  0.9913
 8077TIP3    H245723   5.629   2.948   2.527  0.6937 -0.3793  0.0214
 8078TIP3   OH245724   4.340   4.643  17.265 -0.0611 -0.7082 -0.3753
 8078TIP3    H145725   4.333   4.725  17.217 -0.6318 -0.6916 -0.2722
 8078TIP3    H245726   4.434   4.624  17.268  0.0430 -0.2368 -0.6934
 8079TIP3   OH245727   4.309   5.530  12.232 -0.1412 -0.2977  0.0435
 8079TIP3    H145728   4.241   5.597  12.230  0.7998  0.6787 -0.8535
 8079TIP3    H245729   4.312   5.497  12.142  2.0359  1.2855 -0.5656
 8080TIP3   OH245730   3.149   3.016  12.959 -0.1797 -0.0460 -0.2505
 8080TIP3    H145731   3.148   3.110  12.977 -0.5757 -0.0704 -0.1312
 8080TIP3    H245732   3.120   3.009  12.868 -1.2418 -0.1124  0.0730
 8081TIP3   OH245733   2.851   0.174  15.670  0.0434  0.1215  0.4808
 8081TIP3    H145734   2.913   0.212  15.733  1.0187  0.5698 -0.7172
 8081TIP3    H245735   2.890   0.191  15.585 -0.3191 -2.1468 -0.1938
 8082TIP3   OH245736   3.067   3.533   0.365 -0.7915 -0.5089  0.3279
 8082TIP3    H145737   2.979   3.569   0.356 -1.0268 -1.1816 -0.2042
 8082TIP3    H245738   3.110   3.556   0.282 -0.5787 -0.4595  0.4536
 8083TIP3   OH245739   0.224   6.051   1.548 -0.4741 -0.1202 -0.4937
 8083TIP3    H145740   0.207   5.965   1.588  0.1832  0.6121  1.5111
 8083TIP3    H245741   0.140   6.076   1.510 -0.8761 -1.3152 -0.4551
 8084TIP3   OH245742   3.501   1.707  15.774  0.1573 -0.0466 -0.4432
 8084TIP3    H145743   3.546   1.636  15.728 -3.1603 -3.9688  1.7540
 8084TIP3    H245744   3.420   1.721  15.724  1.3554  3.5673 -1.7159
 8085TIP3   OH245745   1.301   4.481  14.792 -0.3293 -0.2028 -0.0490
 8085TIP3    H145746   1.365   4.459  14.723 -0.6123 -1.2206 -0.0108
 8085TIP3    H245747   1.314   4.413  14.859 -1.2061 -0.2225  0.1153
 8086TIP3   OH245748   1.283   4.742  15.023  0.0493  0.2114 -0.0277
 8086TIP3    H145749   1.372   4.707  15.024  0.1446  0.4137 -0.8016
 8086TIP3    H245750   1.245   4.707  14.943 -0.2483  0.8979 -0.1932
 8087TIP3   OH245751   1.196   5.070  15.650 -0.1382  0.1287 -0.1501
 8087TIP3    H145752   1.268   5.009  15.668  0.2454  0.5099 -0.3855
 8087TIP3    H245753   1.237   5.156  15.650 -0.8491  0.4876  1.1318
 8088TIP3   OH245754   1.845   6.412   4.915 -0.0240  0.2039  0.2165
 8088TIP3    H145755   1.807   6.497   4.936  0.3128  0.2547  0.6375
 8088TIP3    H245756   1.891   6.385   4.995  1.0909  0.2913 -0.3666
 8089TIP3   OH245757   1.875   1.806  14.665  0.8673 -0.0589  0.2595
 8089TIP3    H145758   1.864   1.877  14.602  0.1735  0.4668  0.9432
 8089TIP3    H245759   1.869   1.726  14.613  0.7537  0.3731 -0.4042
 8090TIP3   OH245760   5.525   1.101   2.944  0.3454 -0.3350  0.1186
 8090TIP3    H145761   5.470   1.154   3.001 -0.8274 -0.7633 -0.5943
 8090TIP3    H245762   5.614   1.116   2.977 -0.1782  0.3611  1.2866
 8091TIP3   OH245763   0.903   1.216  15.277  0.0338  0.3340 -0.4226
 8091TIP3    H145764   0.915   1.152  15.206 -0.8432 -0.5159  0.1632
 8091TIP3    H245765   0.860   1.166  15.347 -1.5651  1.7688 -0.3033
 8092TIP3   OH245766   5.313   2.562  12.057  0.3175  0.6450 -0.1526
 8092TIP3    H145767   5.300   2.574  12.151  1.0294  0.2527  0.0007
 8092TIP3    H245768   5.401   2.526  12.049  0.9136  2.2273 -1.0848
 8093TIP3   OH245769   0.282   1.577  15.869 -0.7047 -0.5573  0.4333
 8093TIP3    H145770   0.312   1.537  15.787 -0.9177 -0.9943  0.5658
 8093TIP3    H245771   0.193   1.608  15.850 -0.7385 -0.6210  0.4863
 8094TIP3   OH245772   1.507   2.050   6.189 -0.2469 -0.2319 -0.1372
 8094TIP3    H145773   1.519   2.087   6.276  2.9110  1.4762 -1.1186
 8094TIP3    H245774   1.530   1.957   6.198  0.2051 -0.0334  0.8036
 8095TIP3   OH245775   3.968   1.937  15.281 -0.1350  0.2046 -0.5284
 8095TIP3    H145776   4.059   1.934  15.308 -0.4122  0.6313  0.4737
 8095TIP3    H245777   3.958   1.861  15.222  0.5075 -0.6880  0.4815
 8096TIP3   OH245778   0.704   5.661   1.650 -0.0417 -0.4086 -0.2922
 8096TIP3    H145779   0.674   5.580   1.609  0.9152 -0.6252 -0.5901
 8096TIP3    H245780   0.798   5.647   1.666  0.0134  0.4185  0.1807
 8097TIP3   OH245781   5.368   0.933   2.140 -0.0497 -0.1555 -0.1468
 8097TIP3    H145782   5.432   0.943   2.211 -0.9322 -1.2259  0.8461
 8097TIP3    H245783   5.346   0.840   2.141 -1.0240  0.0468 -0.9955
 8098TIP3   OH245784   2.128   4.580  11.731 -0.6881 -0.2637 -0.8009
 8098TIP3    H145785   2.156   4.569  11.822 -1.2767 -0.4856 -0.6468
 8098TIP3    H245786   2.124   4.675  11.718 -1.3617 -0.2261 -0.3582
 8099TIP3   OH245787   1.218   6.156   2.880  0.2814  0.0261  1.0857
 8099TIP3    H145788   1.230   6.153   2.785 -0.0663 -2.3311  1.0593
 8099TIP3    H245789   1.139   6.210   2.892 -0.2027 -0.3968 -0.0284
 8100TIP3   OH245790   1.615   3.345   1.993  0.0773 -0.3039 -0.0389
 8100TIP3    H145791   1.706   3.317   1.987  0.5338  1.1378 -0.1023
 8100TIP3    H245792   1.570   3.293   1.926  0.9440 -0.6507 -0.3660
 8101TIP3   OH245793   4.107   2.247  17.287  0.3309 -0.1035  0.3730
 8101TIP3    H145794   4.172   2.178  17.276 -0.9110 -1.0237 -2.0513
 8101TIP3    H245795   4.154   2.328  17.269  1.2049 -0.5731  0.4990
 8102TIP3   OH245796   2.447   2.620   0.778  0.1183  0.4397  0.2814
 8102TIP3    H145797   2.435   2.710   0.749 -3.6712 -0.2186 -0.7010
 8102TIP3    H245798   2.441   2.568   0.699  1.8774 -0.7897  0.8892
 8103TIP3   OH245799   3.443   1.827  10.996 -0.1526 -0.7379 -0.3427
 8103TIP3    H145800   3.423   1.841  11.089  1.9597  0.8721 -0.0341
 8103TIP3    H245801   3.380   1.882  10.949 -0.6895 -0.9065  0.1687
 8104TIP3   OH245802   2.958   3.120  13.205  0.1194  0.2060 -0.1072
 8104TIP3    H145803   2.906   3.140  13.283 -1.8116 -1.1961 -0.9421
 8104TIP3    H245804   2.899   3.138  13.131  0.4940 -2.1415 -1.0744
 8105TIP3   OH245805   2.649   4.931   0.687 -0.1982  0.3038  0.6152
 8105TIP3    H145806   2.610   4.908   0.603  0.5068  0.5436  0.2180
 8105TIP3    H245807   2.743   4.940   0.669 -0.0364  0.3276  1.4309
 8106TIP3   OH245808   2.915   2.051  11.922 -0.5136  0.4766 -0.0141
 8106TIP3    H145809   2.972   2.094  11.858  2.7834 -1.9204  0.9956
 8106TIP3    H245810   2.882   1.973  11.877  0.7871 -0.5324  0.6792
 8107TIP3   OH245811   0.282   1.452   0.539  0.5777  0.0330  0.3021
 8107TIP3    H145812   0.352   1.512   0.563 -0.2748  0.6933  1.2460
 8107TIP3    H245813   0.252   1.415   0.622 -1.8246  1.6505  0.2729
 8108TIP3   OH245814   2.247   3.887   5.215  0.2894  0.4898 -0.0572
 8108TIP3    H145815   2.339   3.899   5.190  0.2326  0.3604 -0.3283
 8108TIP3    H245816   2.224   3.801   5.181  0.1760  0.3616  0.3444
 8109TIP3   OH245817   6.342   5.683  12.629 -0.2671 -0.5129  0.5918
 8109TIP3    H145818   6.265   5.707  12.577 -0.9009 -1.5282  1.0196
 8109TIP3    H245819   6.413   5.737  12.594 -0.9568 -0.2691 -0.4829
 8110TIP3   OH245820   3.502   5.377   0.424  0.8824  0.3028 -0.3432
 8110TIP3    H145821   3.470   5.320   0.354 -0.0460 -2.0581  1.8547
 8110TIP3    H245822   3.516   5.319   0.498  1.5757  2.7180  1.5505
 8111TIP3   OH245823   1.987   5.786   3.193 -0.1320  0.0858 -0.1389
 8111TIP3    H145824   2.027   5.864   3.232 -1.0103 -0.3954  1.8729
 8111TIP3    H245825   1.896   5.789   3.221 -0.4592 -1.0960 -0.9729
 8112TIP3   OH245826   6.101   5.445  16.016  0.1556 -0.5266  0.1719
 8112TIP3    H145827   6.020   5.461  15.967  0.8225 -0.9775 -1.1224
 8112TIP3    H245828   6.073   5.441  16.108 -1.3939 -1.3447 -0.3044
 8113TIP3   OH245829   2.055   5.610   4.517  0.2073  0.3113  0.7470
 8113TIP3    H145830   2.115   5.540   4.541 -0.9030 -0.8902  0.1796
 8113TIP3    H245831   2.105   5.667   4.459  0.8750 -0.5384  0.4726
 8114TIP3   OH245832   0.727   0.686   5.465 -0.1938  0.4950  0.4810
 8114TIP3    H145833   0.749   0.701   5.373  0.4761  1.3153  0.7567
 8114TIP3    H245834   0.642   0.728   5.476 -0.1836  0.5689  0.2876
 8115TIP3   OH245835   6.380   0.050   6.630 -0.1694 -0.0651  0.4101
 8115TIP3    H145836   6.384  -0.024   6.570 -2.4480 -1.2251  1.5691
 8115TIP3    H245837   6.449   0.033   6.694  0.8200  0.0475 -0.5921
 8116TIP3   OH245838   6.047   0.789   3.705 -0.0959 -0.1307  0.1380
 8116TIP3    H145839   6.012   0.876   3.726 -0.2938  0.2397 -1.5738
 8116TIP3    H245840   5.982   0.728   3.741  0.5254  0.3490  2.2191
 8117TIP3   OH245841   6.735   0.826  11.393  0.1406  0.3544  0.1188
 8117TIP3    H145842   6.699   0.770  11.324 -0.0288  0.3734  0.1907
 8117TIP3    H245843   6.725   0.915  11.359  0.0678  0.3631  0.1615
 8118TIP3   OH245844   6.443   4.206  12.828  0.1228 -0.4190  0.3768
 8118TIP3    H145845   6.397   4.122  12.823 -3.1418  1.2278  0.3976
 8118TIP3    H245846   6.430   4.246  12.742  1.0743  0.3606  0.5818
 8119TIP3   OH245847   1.419   5.685  13.969  0.7372 -0.1374 -0.1323
 8119TIP3    H145848   1.406   5.771  13.928 -3.0396 -0.9573 -1.0743
 8119TIP3    H245849   1.406   5.623  13.897  2.2903 -1.5695  0.7627
 8120TIP3   OH245850   5.252   2.435  11.759  0.0338 -0.0471 -0.1115
 8120TIP3    H145851   5.233   2.344  11.783  0.3872 -0.0484  0.1849
 8120TIP3    H245852   5.173   2.483  11.781  0.1332 -0.1515  0.4944
 8121TIP3   OH245853   5.339   3.836   4.148 -0.1304 -0.5019 -0.7291
 8121TIP3    H145854   5.247   3.852   4.170 -0.5393 -1.2103 -1.8219
 8121TIP3    H245855   5.354   3.745   4.173  0.6288 -0.0673  0.5021
 8122TIP3   OH245856   4.568   0.279  15.359  0.1246 -0.3184  0.0883
 8122TIP3    H145857   4.613   0.195  15.357 -1.7796 -1.5063  1.9530
 8122TIP3    H245858   4.627   0.337  15.406  1.1657 -0.7914 -0.6073
 8123TIP3   OH245859   0.401   5.163  15.536  0.4438  0.2416 -0.6988
 8123TIP3    H145860   0.368   5.245  15.500  1.8349  1.4594  0.6098
 8123TIP3    H245861   0.481   5.188  15.583  1.1224 -1.9319 -0.5569
 8124TIP3   OH245862   3.937   1.564  15.655  0.3825 -0.0658  0.1393
 8124TIP3    H145863   4.001   1.508  15.611  2.2298  0.7191  1.6699
 8124TIP3    H245864   3.853   1.523  15.637  1.0565 -0.1869 -3.4530
 8125TIP3   OH245865   3.920   2.815   1.146  0.4476 -0.5534  0.3204
 8125TIP3    H145866   3.839   2.765   1.161  0.9877 -1.7526 -0.5604
 8125TIP3    H245867   3.952   2.783   1.061  1.0287  1.0524 -0.0960
 8126TIP3   OH245868   0.728   2.609  14.953  0.1638 -0.4985 -0.3824
 8126TIP3    H145869   0.760   2.554  15.024 -0.3668 -1.7613 -1.0792
 8126TIP3    H245870   0.807   2.632  14.904  0.6697  1.2423  1.1361
 8127TIP3   OH245871   0.157   3.308  12.074 -0.1708  0.2476  0.0182
 8127TIP3    H145872   0.111   3.224  12.085  0.3082 -0.2307 -1.3661
 8127TIP3    H245873   0.159   3.321  11.979 -2.0152  2.8669  0.2444
 8128TIP3   OH245874   5.661   0.842  12.421  0.4239 -0.5152  0.2388
 8128TIP3    H145875   5.587   0.833  12.481 -0.0670  0.0686 -0.2595
 8128TIP3    H245876   5.732   0.794  12.463  0.3762  0.6370  1.7283
 8129TIP3   OH245877   6.668   4.609   5.997  1.0893 -0.0851 -0.0189
 8129TIP3    H145878   6.691   4.693   6.038  1.0496 -0.1702  0.1809
 8129TIP3    H245879   6.573   4.602   6.009  0.4049  1.5697 -3.2577
 8130TIP3   OH245880   2.274   2.064   5.563  0.8912  0.0919 -0.4668
 8130TIP3    H145881   2.304   2.078   5.653 -0.4336  0.2027 -0.0238
 8130TIP3    H245882   2.218   2.140   5.544  2.0995  0.6914 -1.8292
 8131TIP3   OH245883   2.180   6.699  12.739 -0.2336 -0.2095  0.0314
 8131TIP3    H145884   2.191   6.616  12.691 -3.9901 -0.8050 -0.0753
 8131TIP3    H245885   2.172   6.673  12.831  2.9853  0.5979  0.6939
 8132TIP3   OH245886   5.073   1.826   4.639  0.0108 -0.4616  0.3271
 8132TIP3    H145887   5.010   1.813   4.710 -2.6951 -1.9284 -2.0850
 8132TIP3    H245888   5.041   1.903   4.592 -0.0965 -1.2832 -0.9960
 8133TIP3   OH245889   6.123   3.249   5.793  0.1767 -0.4261  0.0366
 8133TIP3    H145890   6.036   3.281   5.768 -0.2370 -1.6635 -0.1388
 8133TIP3    H245891   6.106   3.167   5.840  1.1297  0.3230  1.7803
 8134TIP3   OH245892   3.408   6.766  10.685  0.3657 -0.3960  0.4136
 8134TIP3    H145893   3.387   6.857  10.705 -0.4224 -0.5190  0.1839
 8134TIP3    H245894   3.502   6.767  10.667  0.2830  0.4575 -0.0476
 8135TIP3   OH245895   0.189   2.566  11.627 -0.1425 -0.9708 -0.1780
 8135TIP3    H145896   0.124   2.586  11.559  0.8327 -0.0402 -0.8764
 8135TIP3    H245897   0.139   2.563  11.708 -1.0212  0.0680 -0.6586
 8136TIP3   OH245898   5.481   4.116   0.383 -0.0769  0.0647 -0.4818
 8136TIP3    H145899   5.499   4.194   0.330 -3.2233  0.8059 -0.7040
 8136TIP3    H245900   5.476   4.149   0.473  0.9093 -0.3434 -0.2759
 8137TIP3   OH245901   4.008   6.760   0.527  0.6922 -0.0549  0.0177
 8137TIP3    H145902   4.022   6.850   0.496  1.1823 -0.7864 -2.0784
 8137TIP3    H245903   3.929   6.731   0.481  0.5508 -0.7037  0.6520
 8138TIP3   OH245904   3.370   2.965  13.102  0.0006  0.3426 -0.0485
 8138TIP3    H145905   3.389   2.872  13.098  0.6433  0.5025 -1.0027
 8138TIP3    H245906   3.287   2.975  13.054 -0.3397  0.2073  0.4966
 8139TIP3   OH245907   6.798   4.124  11.889 -0.2014 -0.3413  0.1024
 8139TIP3    H145908   6.759   4.038  11.876 -1.0504 -0.2647  1.8117
 8139TIP3    H245909   6.886   4.117  11.851 -0.5461 -1.6853 -0.5030
 8140TIP3   OH245910   0.694   2.097  15.276  0.0166 -0.8458 -0.0951
 8140TIP3    H145911   0.682   2.002  15.281 -0.9329 -0.8547 -1.8201
 8140TIP3    H245912   0.608   2.132  15.253  0.6783  0.2642 -1.0548
 8141TIP3   OH245913   1.676   2.242   4.623  0.0436 -0.0631  0.0090
 8141TIP3    H145914   1.737   2.316   4.615  1.3054 -0.9865  0.7446
 8141TIP3    H245915   1.683   2.215   4.714 -1.5567 -0.1547  0.1347
 8142TIP3   OH245916   1.669   5.523  12.128 -0.0852 -0.1273  0.6674
 8142TIP3    H145917   1.744   5.464  12.138 -0.1965 -0.4973 -0.4949
 8142TIP3    H245918   1.593   5.465  12.135 -0.2320  0.0850  0.8192
 8143TIP3   OH245919   3.367   1.182   4.413  0.5919 -0.3071  0.3204
 8143TIP3    H145920   3.322   1.098   4.413  1.5107 -0.8013  0.6969
 8143TIP3    H245921   3.335   1.226   4.492 -0.6568  0.1399 -0.3922
 8144TIP3   OH245922   5.016   6.436   4.773  0.1814  0.0340  0.4215
 8144TIP3    H145923   5.011   6.356   4.826 -1.6850  0.1154  0.4281
 8144TIP3    H245924   5.051   6.502   4.832 -1.1354 -0.0673  1.3491
 8145TIP3   OH245925   0.180   0.325  11.663 -0.3125  0.1710  0.2066
 8145TIP3    H145926   0.211   0.410  11.695 -3.0854  1.3071  0.1030
 8145TIP3    H245927   0.095   0.313  11.704 -3.6341  1.1596 -5.4018
 8146TIP3   OH245928   4.644   3.111  12.344  1.0163  0.5937 -0.1837
 8146TIP3    H145929   4.631   3.123  12.250 -1.4760 -0.2035 -0.0091
 8146TIP3    H245930   4.655   3.017  12.355  0.8098  0.6322  0.3584
 8147TIP3   OH245931   2.406   2.074  15.645  0.3015  0.3069 -0.0508
 8147TIP3    H145932   2.345   2.023  15.593 -0.9495  0.0103  1.6304
 8147TIP3    H245933   2.352   2.137  15.693  1.4107  0.6761  0.7859
 8148TIP3   OH245934   3.461   6.751   5.632 -0.0644  0.2239 -0.1741
 8148TIP3    H145935   3.405   6.680   5.665 -1.3887  0.1534 -2.3642
 8148TIP3    H245936   3.404   6.828   5.632  0.5171  0.6568 -0.4269
 8149TIP3   OH245937   0.009   2.160   5.404  0.1759 -0.2123  0.2984
 8149TIP3    H145938   0.073   2.104   5.448  0.9448 -0.1539 -0.6829
 8149TIP3    H245939   0.038   2.160   5.312 -0.7551  0.4925 -0.0061
 8150TIP3   OH245940   5.047   3.920   1.280  0.1714 -0.3973  0.2104
 8150TIP3    H145941   4.952   3.929   1.270  0.0978  0.7149  1.6658
 8150TIP3    H245942   5.068   3.965   1.362  2.3148  1.7645 -1.3638
 8151TIP3   OH245943   4.700   3.223  16.764 -0.0051 -0.4299  0.2069
 8151TIP3    H145944   4.731   3.134  16.746  0.2454 -0.1614 -0.7797
 8151TIP3    H245945   4.606   3.214  16.776  0.0405 -0.8549  0.2508
 8152TIP3   OH245946   1.335   3.356   2.769 -0.2583  0.3117  0.7218
 8152TIP3    H145947   1.329   3.296   2.844 -1.0459 -1.7303 -0.8969
 8152TIP3    H245948   1.393   3.311   2.708  1.4018  2.5266  0.5584
 8153TIP3   OH245949   2.256   5.050  11.850  0.5875  0.4313 -0.4799
 8153TIP3    H145950   2.338   5.023  11.894  2.0019  2.4872 -1.6929
 8153TIP3    H245951   2.255   5.145  11.859 -0.9992  0.5547 -1.6914
 8154TIP3   OH245952   4.256   5.858   0.639 -0.5806 -0.0365  0.2356
 8154TIP3    H145953   4.179   5.802   0.656 -0.3258 -0.0296  1.5211
 8154TIP3    H245954   4.280   5.838   0.549 -1.5084 -0.7681  0.1286
 8155TIP3   OH245955   3.355   4.227   3.792 -0.0140  1.4772  0.0724
 8155TIP3    H145956   3.379   4.154   3.734 -0.9376 -0.6541  2.1924
 8155TIP3    H245957   3.263   4.244   3.772 -0.2731  0.8848  0.7245
 8156TIP3   OH245958   2.709   2.183  15.355  0.6762  0.3572  0.0423
 8156TIP3    H145959   2.625   2.209  15.393  0.3882 -0.6771  0.1439
 8156TIP3    H245960   2.710   2.087  15.362  1.3991  0.2765 -0.9201
 8157TIP3   OH245961   2.802   3.602  12.121 -0.4160  0.6588 -0.4724
 8157TIP3    H145962   2.709   3.591  12.143 -0.4501  0.6747 -0.6084
 8157TIP3    H245963   2.843   3.628  12.204 -0.6183  1.1440 -0.5244
 8158TIP3   OH245964   6.803   0.130  10.754  0.0939  0.8705  0.3946
 8158TIP3    H145965   6.714   0.161  10.740 -0.2238 -0.4347 -0.8291
 8158TIP3    H245966   6.802   0.090  10.841 -0.2108  1.8127  0.8337
 8159TIP3   OH245967   6.717   1.189   5.167  0.4820 -0.1204 -0.4548
 8159TIP3    H145968   6.714   1.125   5.238  1.0187 -1.5681 -1.6896
 8159TIP3    H245969   6.633   1.235   5.172 -1.7460 -3.6405 -1.9365
 8160TIP3   OH245970   0.984   4.664  11.274 -0.0146  0.1755  0.0419
 8160TIP3    H145971   1.054   4.621  11.224  0.8860  0.5817  0.9249
 8160TIP3    H245972   0.904   4.624  11.242  0.6906 -0.9977 -0.3190
 8161TIP3   OH245973   5.186   1.740   1.064  0.2803 -0.4419 -0.6119
 8161TIP3    H145974   5.213   1.663   1.115 -1.4322 -2.0286 -1.9624
 8161TIP3    H245975   5.231   1.731   0.980  1.1999  0.8602 -0.2906
 8162TIP3   OH245976   2.388   4.887   2.042  0.0427 -0.4526  0.3436
 8162TIP3    H145977   2.335   4.840   2.106  3.1382 -1.3989  2.4603
 8162TIP3    H245978   2.470   4.838   2.038  1.1645  1.3909 -2.0059
 8163TIP3   OH245979   6.097   6.691   4.454  0.3592  0.1902  0.8397
 8163TIP3    H145980   6.009   6.727   4.454  0.5377  0.6437  1.6935
 8163TIP3    H245981   6.091   6.612   4.508  0.1102 -0.7553 -0.5081
 8164TIP3   OH245982   6.484   2.791  13.495  0.0670 -0.0149 -0.2340
 8164TIP3    H145983   6.487   2.821  13.404 -1.6528  1.3559  0.1168
 8164TIP3    H245984   6.464   2.698  13.489  1.1055 -0.1868 -1.2682
 8165TIP3   OH245985   0.020   2.079   0.938 -0.3112 -0.4014 -0.2562
 8165TIP3    H145986   0.107   2.073   0.978  0.2495 -0.5876 -1.4612
 8165TIP3    H245987  -0.039   2.095   1.012  0.7979  0.2159  0.5354
 8166TIP3   OH245988   4.549   1.081  11.885 -0.1212 -0.4214  0.1806
 8166TIP3    H145989   4.522   1.044  11.969  2.0115 -2.0912  0.2159
 8166TIP3    H245990   4.490   1.043  11.821 -1.1356  0.0996  0.7770
 8167TIP3   OH245991   0.506   4.515  13.383  0.1355  0.1077 -0.1356
 8167TIP3    H145992   0.419   4.493  13.349  0.8453 -1.8240 -0.8505
 8167TIP3    H245993   0.516   4.459  13.460  1.3893 -1.0652 -1.0822
 8168TIP3   OH245994   3.184   1.100   2.687 -0.0396 -0.4094  0.6295
 8168TIP3    H145995   3.260   1.074   2.635  0.4799  1.2990  0.4643
 8168TIP3    H245996   3.114   1.042   2.658  1.2393 -2.2202  0.9838
 8169TIP3   OH245997   2.478   0.857   2.036  0.1611 -0.3121  0.5995
 8169TIP3    H145998   2.498   0.943   2.071  1.5847 -0.7887  1.0084
 8169TIP3    H245999   2.413   0.821   2.096 -0.0538  0.2618  0.7177
 8170TIP3   OH246000   4.725   3.885   4.545  0.0140  0.5481  0.1012
 8170TIP3    H146001   4.763   3.803   4.577  0.4816  0.3155 -0.9902
 8170TIP3    H246002   4.680   3.860   4.464  0.9567  1.5078 -0.7549
 8171TIP3   OH246003   4.525   5.036  15.165 -0.1719 -0.0367 -0.2483
 8171TIP3    H146004   4.503   5.009  15.254  0.2661 -1.4836 -0.5536
 8171TIP3    H246005   4.442   5.034  15.118 -0.2445 -0.2854 -0.1113
 8172TIP3   OH246006   4.159   1.463   1.093  0.6174  0.3723  1.1196
 8172TIP3    H146007   4.124   1.387   1.139  0.1954  0.2857  0.6639
 8172TIP3    H246008   4.245   1.435   1.062  0.7773  0.3330  1.5963
 8173TIP3   OH246009   3.691   4.122  16.726  0.0749  0.5189  0.5150
 8173TIP3    H146010   3.704   4.081  16.812 -0.3549  0.5311  0.5896
 8173TIP3    H246011   3.750   4.075  16.667  1.8588  1.7730  1.1901
 8174TIP3   OH246012   1.050   4.367  15.344  0.0737 -0.4901 -0.3040
 8174TIP3    H146013   1.034   4.402  15.432  1.9152  0.9738 -0.5014
 8174TIP3    H246014   0.966   4.329  15.318 -1.1455  1.0310  1.1999
 8175TIP3   OH246015   1.636   4.183  15.499 -0.2206 -0.7701  0.3122
 8175TIP3    H146016   1.570   4.116  15.518 -1.0880 -1.0952 -3.1330
 8175TIP3    H246017   1.711   4.133  15.467  0.9220 -0.2752  2.1287
 8176TIP3   OH246018   0.479   3.118  13.277 -0.4320  0.2244 -0.3603
 8176TIP3    H146019   0.385   3.110  13.263 -0.3573 -1.1693 -0.1944
 8176TIP3    H246020   0.493   3.211  13.295 -2.0376  0.1543  1.5627
 8177TIP3   OH246021   0.704   1.127   5.831 -0.6485  0.1667 -0.3070
 8177TIP3    H146022   0.763   1.073   5.884 -2.2679 -3.4845 -1.8780
 8177TIP3    H246023   0.651   1.174   5.896  0.0926 -1.0228  1.2571
 8178TIP3   OH246024   3.761   4.072  13.541 -0.2325 -0.1870  0.3256
 8178TIP3    H146025   3.754   4.106  13.630  1.2104  1.1469 -0.0413
 8178TIP3    H246026   3.712   4.134  13.487  0.6121  0.1477 -0.0704
 8179TIP3   OH246027   3.551   5.256  12.830 -0.3114  0.1304 -0.3929
 8179TIP3    H146028   3.629   5.298  12.793  0.6296 -1.9728 -0.9474
 8179TIP3    H246029   3.567   5.256  12.925 -0.4706  1.2353 -0.3543
 8180TIP3   OH246030   4.082   1.168   3.686  0.0286 -0.3414 -0.1107
 8180TIP3    H146031   4.030   1.184   3.765 -0.6987 -1.1504 -0.4010
 8180TIP3    H246032   4.169   1.147   3.718 -0.2718 -0.6961  0.4904
 8181TIP3   OH246033   5.879   4.382   1.115 -0.0703 -0.5275 -0.5497
 8181TIP3    H146034   5.785   4.372   1.130 -0.1333  1.3778  0.6114
 8181TIP3    H246035   5.887   4.461   1.062  0.9257  0.0574  0.4338
 8182TIP3   OH246036   2.359   4.452   4.329 -0.3003 -0.2994  0.4702
 8182TIP3    H146037   2.429   4.451   4.395  0.0644 -1.9541  0.1063
 8182TIP3    H246038   2.291   4.507   4.367  2.6868  4.9025 -0.8115
 8183TIP3   OH246039   4.697   5.635   0.999  0.0436  0.2598  0.6693
 8183TIP3    H146040   4.749   5.715   1.003 -1.3700  1.1912  1.8188
 8183TIP3    H246041   4.722   5.586   1.077 -0.0718  0.2530  0.7033
 8184TIP3   OH246042   0.246   0.933  17.141 -0.4724 -0.2279  0.4526
 8184TIP3    H146043   0.262   1.027  17.130 -0.3117 -0.1213  1.4615
 8184TIP3    H246044   0.332   0.897  17.164 -0.5715 -0.5907  0.2569
 8185TIP3   OH246045   0.905   4.034   0.264  0.0657 -0.4262  0.0935
 8185TIP3    H146046   0.815   4.067   0.266  1.0419  2.4950  1.6982
 8185TIP3    H246047   0.930   4.027   0.356  1.5158 -1.1246 -0.3379
 8186TIP3   OH246048   1.611   4.842  17.026 -0.1951 -0.1112 -0.1635
 8186TIP3    H146049   1.560   4.862  16.947  0.6312 -1.6739 -1.1460
 8186TIP3    H246050   1.548   4.801  17.085 -0.1937 -1.8110 -1.2724
 8187TIP3   OH246051   4.574   4.177   5.745  0.2732  0.2559 -0.2106
 8187TIP3    H146052   4.630   4.189   5.668  0.7690  1.7539  0.3422
 8187TIP3    H246053   4.619   4.112   5.798  0.3814 -0.1326 -0.7678
 8188TIP3   OH246054   5.371   4.882  15.008  0.5745  0.0907  0.3539
 8188TIP3    H146055   5.397   4.870  15.099 -1.6475 -0.8005  0.9401
 8188TIP3    H246056   5.408   4.967  14.984 -1.4063  1.9274  3.1386
 8189TIP3   OH246057   4.859   3.448   1.511 -0.1807 -0.2147 -0.2016
 8189TIP3    H146058   4.819   3.484   1.590  2.3427 -0.3486  1.2325
 8189TIP3    H246059   4.821   3.360   1.504 -0.8528 -0.0023  0.5455
 8190TIP3   OH246060   3.258   0.087  14.393 -0.2695  0.0234 -0.1721
 8190TIP3    H146061   3.241   0.025  14.464 -1.5497  1.3822  0.7660
 8190TIP3    H246062   3.286   0.032  14.320 -0.0231 -1.5258  1.0265
 8191TIP3   OH246063   0.860   1.768   4.324 -0.2249  0.1724 -0.1288
 8191TIP3    H146064   0.856   1.828   4.248 -2.4924  0.3667  0.0833
 8191TIP3    H246065   0.802   1.696   4.300  0.4129 -0.6393  0.7335
 8192TIP3   OH246066   1.582   0.502  16.827 -0.3057  0.5726 -0.7895
 8192TIP3    H146067   1.590   0.412  16.795  0.8381  1.2885 -2.7123
 8192TIP3    H246068   1.658   0.514  16.884 -0.3049  0.4064 -0.7544
 8193TIP3   OH246069   4.624   1.385  16.827 -0.1077 -0.0992 -0.3123
 8193TIP3    H146070   4.629   1.388  16.732 -0.6861  1.7268 -0.3239
 8193TIP3    H246071   4.653   1.471  16.855 -2.0984  0.2011  1.0399
 8194TIP3   OH246072   6.010   6.107   0.846  0.3192  0.0224 -0.3458
 8194TIP3    H146073   6.034   6.191   0.885 -0.4693  0.7432 -1.3781
 8194TIP3    H246074   6.071   6.045   0.886  1.2293  1.1448  0.0809
 8195TIP3   OH246075   0.934   1.431   0.248  0.5490  0.0506 -0.3103
 8195TIP3    H146076   0.860   1.473   0.204 -0.7251 -0.8348  0.9312
 8195TIP3    H246077   0.903   1.413   0.336  1.9290 -1.2220 -0.0425
 8196TIP3   OH246078   3.638   4.488  11.784  0.1325 -0.7960  0.0371
 8196TIP3    H146079   3.651   4.576  11.748 -0.3357 -1.0934 -0.9075
 8196TIP3    H246080   3.605   4.502  11.872 -1.8929  0.0234 -0.7818
 8197TIP3   OH246081   2.657   4.425  14.044 -0.1977 -0.6135  0.1824
 8197TIP3    H146082   2.613   4.442  13.960  0.4259 -1.4926 -0.3392
 8197TIP3    H246083   2.601   4.468  14.109 -0.9598 -0.3405 -0.6254
 8198TIP3   OH246084   3.663   0.078  15.266  0.3919 -0.2029  0.1237
 8198TIP3    H146085   3.586   0.061  15.212  1.1381  0.3289 -1.1520
 8198TIP3    H246086   3.723   0.007  15.246  0.4909 -0.2689  0.6334
 8199TIP3   OH246087   5.212   2.114  15.323 -0.1240  0.5727 -0.2296
 8199TIP3    H146088   5.295   2.114  15.372 -0.6156  1.3948  0.6411
 8199TIP3    H246089   5.193   2.022  15.308  0.6872  0.3536  0.0041
 8200TIP3   OH246090   3.958   6.212  17.056 -0.0117 -0.2760  0.4832
 8200TIP3    H146091   3.895   6.269  17.100 -0.4193 -0.1738 -0.2141
 8200TIP3    H246092   3.912   6.128  17.046 -0.0919 -0.1602 -0.1525
 8201TIP3   OH246093   4.716   4.516   5.731 -0.1419 -0.6871  0.1429
 8201TIP3    H146094   4.770   4.514   5.652  1.4424  1.2097  1.1063
 8201TIP3    H246095   4.745   4.440   5.782  1.2800  0.0168  0.4160
 8202TIP3   OH246096   1.065   6.812  15.354 -0.1150 -0.1319 -0.1773
 8202TIP3    H146097   1.102   6.883  15.302 -1.8996  1.2186  0.3062
 8202TIP3    H246098   0.972   6.832  15.360 -0.4546 -1.8278  1.0729
 8203TIP3   OH246099   6.412   5.942  12.199 -0.4972 -0.3356  0.4370
 8203TIP3    H146100   6.325   5.952  12.238 -0.5633  0.2608  0.1325
 8203TIP3    H246101   6.405   5.983  12.113 -0.1561 -1.0603  0.0558
 8204TIP3   OH246102   2.752   0.126   1.515 -0.6003 -0.1007 -0.8053
 8204TIP3    H146103   2.685   0.110   1.582  0.7252  2.1919  1.2178
 8204TIP3    H246104   2.825   0.069   1.540 -0.5213 -0.0766 -0.9817
 8205TIP3   OH246105   0.692   1.128   2.213  0.3400 -0.0132  0.0106
 8205TIP3    H146106   0.649   1.203   2.255  0.7593 -0.7225  1.8023
 8205TIP3    H246107   0.652   1.052   2.254 -0.1718 -0.8227 -1.8842
 8206TIP3   OH246108   0.463   5.594   2.379  0.5775 -0.0066  0.0959
 8206TIP3    H146109   0.449   5.666   2.440  2.7322 -0.9481  1.8502
 8206TIP3    H246110   0.405   5.613   2.305 -2.3131  1.1355  2.4437
 8207TIP3   OH246111   0.286   1.036  15.541 -0.3370 -0.0090 -0.1516
 8207TIP3    H146112   0.279   1.101  15.610 -3.1838  1.9894 -2.0930
 8207TIP3    H246113   0.351   1.072  15.481 -0.8749  0.3796 -0.5146
 8208TIP3   OH246114   0.657   1.088  14.815 -0.1563  0.4812 -0.3458
 8208TIP3    H146115   0.660   1.156  14.748  3.0425  0.9184  0.0997
 8208TIP3    H246116   0.640   1.007  14.766 -1.9786  1.2736 -1.1122
 8209TIP3   OH246117   3.205   6.345   4.022 -0.5642  0.6696 -0.3486
 8209TIP3    H146118   3.129   6.295   4.052  0.2661 -0.0863  0.5278
 8209TIP3    H246119   3.279   6.307   4.067  0.3884  1.2643 -1.3519
 8210TIP3   OH246120   1.611   5.635   0.568  0.0484 -0.2630 -0.0477
 8210TIP3    H146121   1.598   5.706   0.631 -0.6865  0.1072 -0.5973
 8210TIP3    H246122   1.696   5.654   0.528  1.3636 -1.4359  1.9792
 8211TIP3   OH246123   3.165   0.980  12.258  0.1675 -0.3136  0.8313
 8211TIP3    H146124   3.214   0.905  12.291 -0.2986 -0.5849  0.9254
 8211TIP3    H246125   3.139   1.027  12.337  2.5716  1.3606  0.7232
 8212TIP3   OH246126   6.084   5.975  11.562  0.0667 -0.7475 -0.6036
 8212TIP3    H146127   6.023   5.984  11.635 -0.4244 -0.7559 -1.0068
 8212TIP3    H246128   6.134   5.896  11.582  1.5527  0.4864  0.8921
 8213TIP3   OH246129   3.309   1.039   6.010 -0.4705 -0.1912  0.2047
 8213TIP3    H146130   3.329   0.972   6.076 -2.4554  0.4512  1.5483
 8213TIP3    H246131   3.215   1.033   5.997 -0.5001  1.4686 -0.6101
 8214TIP3   OH246132   0.561   5.413   5.213 -0.0811  0.8534  0.2449
 8214TIP3    H146133   0.649   5.381   5.190  0.0984  1.7838 -0.3951
 8214TIP3    H246134   0.569   5.444   5.303 -0.8510 -3.0708  1.8954
 8215TIP3   OH246135   6.440   6.375   0.144  0.6255  0.2143  0.4265
 8215TIP3    H146136   6.486   6.434   0.203  0.7323  1.3786 -0.7609
 8215TIP3    H246137   6.509   6.322   0.104  0.7252  0.5036  0.2091
 8216TIP3   OH246138   1.193   0.676  14.612  0.1503  0.1323  0.5918
 8216TIP3    H146139   1.233   0.742  14.668 -1.4721  0.9828  0.8220
 8216TIP3    H246140   1.165   0.606  14.672  1.1297 -0.3979  0.4478
 8217TIP3   OH246141   4.980   4.661  16.697  0.0721 -0.0071 -0.3305
 8217TIP3    H146142   4.987   4.663  16.793  0.0952  3.1615 -0.2673
 8217TIP3    H246143   4.996   4.752  16.671 -2.7707 -0.1345 -3.1114
 8218TIP3   OH246144   2.728   0.184   3.537  0.1083  0.0542 -0.1828
 8218TIP3    H146145   2.683   0.248   3.593 -1.2313 -1.2303  0.2808
 8218TIP3    H246146   2.685   0.193   3.452 -0.3430 -0.4701 -0.0152
 8219TIP3   OH246147   2.595   2.406   2.363 -0.4379 -0.3894  0.6600
 8219TIP3    H146148   2.615   2.496   2.389  2.8243 -0.6917 -0.3107
 8219TIP3    H246149   2.599   2.357   2.445 -0.4882  0.0996  0.9631
 8220TIP3   OH246150   5.700   4.537  13.486 -0.0750  0.2096  0.3777
 8220TIP3    H146151   5.779   4.554  13.537 -0.8570  1.2973  1.2758
 8220TIP3    H246152   5.713   4.584  13.404 -0.1109  1.0686  0.8502
 8221TIP3   OH246153   5.768   6.143   4.975 -0.4600 -0.0348  0.0977
 8221TIP3    H146154   5.804   6.137   4.886 -1.4620 -0.7000 -0.2812
 8221TIP3    H246155   5.698   6.208   4.968 -0.0549  0.4559  0.5769
 8222TIP3   OH246156   2.430   5.340  11.490  0.2154 -0.2547  0.5235
 8222TIP3    H146157   2.413   5.419  11.541 -0.5151  0.7503 -1.1654
 8222TIP3    H246158   2.525   5.338  11.480  0.2579  0.2802  0.7823
 8223TIP3   OH246159   3.031   4.564  17.220  0.1772 -0.6175 -0.7601
 8223TIP3    H146160   3.076   4.643  17.190 -0.6603  0.7628  1.3769
 8223TIP3    H246161   3.101   4.504  17.245  0.8193 -0.2083 -1.5459
 8224TIP3   OH246162   2.727   4.962   5.678 -0.5679  0.0718 -0.3866
 8224TIP3    H146163   2.697   4.873   5.658 -0.2101 -0.5676  1.6746
 8224TIP3    H246164   2.820   4.953   5.694 -0.0955  1.2385 -2.1961
 8225TIP3   OH246165   4.789   4.646   1.723  0.2100  0.0924  0.1319
 8225TIP3    H146166   4.777   4.613   1.812 -0.5208  1.8722  0.7453
 8225TIP3    H246167   4.714   4.611   1.674 -0.2617  0.3629  0.6384
 8226TIP3   OH246168   1.427   3.387   3.157 -0.4428  0.2046  0.2419
 8226TIP3    H146169   1.429   3.337   3.075  0.1486 -0.7278  0.8044
 8226TIP3    H246170   1.417   3.320   3.225 -0.3085  0.9196  0.9742
 8227TIP3   OH246171   3.630   0.841  15.105 -0.1385 -0.8398  0.2860
 8227TIP3    H146172   3.593   0.886  15.181 -0.6260  0.3863 -0.6426
 8227TIP3    H246173   3.725   0.852  15.115 -0.2578  1.4362 -0.4621
 8228TIP3   OH246174   0.737   2.419   2.038 -0.2308 -0.5000 -0.5257
 8228TIP3    H146175   0.705   2.331   2.060 -0.3412 -0.6805 -1.3579
 8228TIP3    H246176   0.832   2.410   2.040 -0.2412 -0.6510 -0.6393
 8229TIP3   OH246177   0.982   2.164   3.088  0.0648 -0.7783 -0.4062
 8229TIP3    H146178   0.922   2.090   3.093 -1.1748  0.2257  0.3546
 8229TIP3    H246179   0.938   2.226   3.029  1.1950 -0.7258 -1.2281
 8230TIP3   OH246180   0.515   2.863   4.449 -0.3828  0.2080  0.0768
 8230TIP3    H146181   0.489   2.781   4.491  0.4757  0.7517  1.7879
 8230TIP3    H246182   0.532   2.840   4.358 -3.9282 -0.7369 -0.4873
 8231TIP3   OH246183   3.860   4.335  15.556 -0.2629 -0.0609  0.2723
 8231TIP3    H146184   3.777   4.339  15.510 -0.1769  0.4029  0.1438
 8231TIP3    H246185   3.884   4.243  15.556  0.2083  0.0170 -1.4882
 8232TIP3   OH246186   4.414   6.290   4.204 -0.4914  0.2368  0.0132
 8232TIP3    H146187   4.479   6.234   4.245 -0.6393 -1.1030 -1.4717
 8232TIP3    H246188   4.358   6.320   4.275  1.6744  1.4067  1.3364
 8233TIP3   OH246189   1.990   5.727  12.490  0.0868 -0.1263 -0.3309
 8233TIP3    H146190   1.976   5.793  12.422  1.9855  0.4858 -0.1913
 8233TIP3    H246191   2.008   5.646  12.442  0.8185  0.1679 -0.5626
 8234TIP3   OH246192   4.153   2.576   1.098 -0.0410 -0.3518 -0.5763
 8234TIP3    H146193   4.129   2.484   1.108 -0.7531 -0.1778 -0.6181
 8234TIP3    H246194   4.132   2.596   1.007  0.7215 -0.3201 -0.7450
 8235TIP3   OH246195   5.777   4.937   4.514 -0.2544  0.0662  0.1532
 8235TIP3    H146196   5.715   4.998   4.554 -1.7166 -1.1729 -0.1333
 8235TIP3    H246197   5.736   4.851   4.525  0.3093 -0.5550 -2.1065
 8236TIP3   OH246198   3.943   6.303  11.804  0.9718 -0.0553  0.0276
 8236TIP3    H146199   3.907   6.278  11.719  2.0919 -0.7337 -0.2668
 8236TIP3    H246200   3.906   6.240  11.866  0.2039  0.4022  0.0482
 8237TIP3   OH246201   3.476   5.379   1.471 -0.0274 -0.0466  0.2440
 8237TIP3    H146202   3.450   5.456   1.420  1.2517  0.1734 -0.1118
 8237TIP3    H246203   3.516   5.414   1.550  2.1160 -0.2445 -0.6746
 8238TIP3   OH246204   2.478   6.417   1.200 -0.0961 -0.7021 -0.3858
 8238TIP3    H146205   2.559   6.446   1.157 -0.1047  1.8045  1.0874
 8238TIP3    H246206   2.505   6.391   1.288 -0.9640  1.4054  0.5704
 8239TIP3   OH246207   1.939   0.618  12.076 -0.1372 -0.0992  0.4544
 8239TIP3    H146208   1.869   0.614  12.010  0.3014 -0.8989  0.0227
 8239TIP3    H246209   1.984   0.534  12.068 -0.4294 -0.4647  2.1676
 8240TIP3   OH246210   5.474   0.832   4.700  0.2755  0.1027  0.4251
 8240TIP3    H146211   5.545   0.878   4.656 -0.2654 -0.7963 -1.4817
 8240TIP3    H246212   5.516   0.786   4.772  1.7402 -0.8153 -0.9588
 8241TIP3   OH246213   1.233   0.961  14.011 -0.1878  0.3186  0.0123
 8241TIP3    H146214   1.189   1.040  13.978 -0.3859  0.6606  1.0580
 8241TIP3    H246215   1.163   0.896  14.017 -0.2038  0.3338 -0.0081
 8242TIP3   OH246216   6.631   5.279  13.626 -0.3034 -0.2038 -0.0895
 8242TIP3    H146217   6.546   5.254  13.590 -1.8134 -1.4085  3.7328
 8242TIP3    H246218   6.673   5.196  13.648  1.6233  0.4032 -1.3215
 8243TIP3   OH246219   1.590   1.684   4.789 -0.2393 -0.3954 -0.5311
 8243TIP3    H146220   1.628   1.772   4.778  1.6382 -1.0092  0.5161
 8243TIP3    H246221   1.501   1.692   4.756 -0.0231  1.8307 -0.7450
 8244TIP3   OH246222   6.277   3.053  10.489 -0.0020  0.2966  0.7871
 8244TIP3    H146223   6.242   3.140  10.471  1.0118  0.3121 -1.4452
 8244TIP3    H246224   6.331   3.032  10.412  1.1389 -1.6105  2.0207
 8245TIP3   OH246225   2.389   2.060  10.763 -0.3500 -0.0274 -0.1662
 8245TIP3    H146226   2.320   2.122  10.785 -0.8377 -0.6019 -0.0801
 8245TIP3    H246227   2.470   2.104  10.792 -0.7167  0.4359  0.1733
 8246TIP3   OH246228   5.957   6.443   5.302 -0.1676  0.3994  0.1801
 8246TIP3    H146229   5.926   6.475   5.217  1.3382  0.3199 -0.4222
 8246TIP3    H246230   6.051   6.429   5.290 -0.4015 -2.4838  0.9575
 8247TIP3   OH246231   1.844   5.477  14.685 -0.2106 -0.4625  0.5082
 8247TIP3    H146232   1.789   5.545  14.645  0.3587 -0.2859  0.0263
 8247TIP3    H246233   1.788   5.399  14.686 -0.1506 -0.5337 -0.8499
 8248TIP3   OH246234   3.696   2.118   0.163 -1.0175  0.1726 -0.1055
 8248TIP3    H146235   3.610   2.158   0.152 -1.2285 -0.5884 -1.5140
 8248TIP3    H246236   3.730   2.111   0.073  0.5128  0.4455  0.4252
 8249TIP3   OH246237   5.745   3.212  15.262  0.0150 -0.2496  0.6658
 8249TIP3    H146238   5.726   3.282  15.324 -1.9923  0.0564 -0.2072
 8249TIP3    H246239   5.666   3.205  15.208  1.6238 -0.5402 -1.8443
 8250TIP3   OH246240   5.700   2.621  13.958 -0.4811 -0.3833  0.5362
 8250TIP3    H146241   5.673   2.713  13.968 -0.8462 -0.4058 -0.2016
 8250TIP3    H246242   5.796   2.625  13.955 -0.5126  0.0533 -0.1498
 8251TIP3   OH246243   1.860   1.171  14.939 -0.1387  0.0273  0.1559
 8251TIP3    H146244   1.891   1.234  15.004  1.0984  0.6864 -1.0243
 8251TIP3    H246245   1.906   1.195  14.859 -1.9373 -0.4836 -1.0899
 8252TIP3   OH246246   0.467   5.978   1.408 -0.0348  0.2057  0.1508
 8252TIP3    H146247   0.410   5.955   1.482 -1.3250 -1.5720 -1.2975
 8252TIP3    H246248   0.444   5.914   1.340  1.5862  1.3544 -1.5576
 8253TIP3   OH246249   5.634   2.598   4.990  0.3426  0.0222  0.0604
 8253TIP3    H146250   5.569   2.662   5.021 -0.9590 -1.2689  0.0926
 8253TIP3    H246251   5.584   2.517   4.978  1.1577 -0.1457 -3.3986
 8254TIP3   OH246252   2.277   1.724   5.260  0.2649 -0.5803  0.3808
 8254TIP3    H146253   2.284   1.741   5.354  2.8758  1.1275 -0.0320
 8254TIP3    H246254   2.187   1.750   5.238  0.2319  0.9299  2.0636
 8255TIP3   OH246255   1.643   1.048  11.846  0.2096 -0.9388  0.6587
 8255TIP3    H146256   1.605   1.033  11.760 -1.7454 -1.2213  1.5035
 8255TIP3    H246257   1.703   1.121  11.835 -2.6146  1.4214 -0.3100
 8256TIP3   OH246258   2.973   6.560  16.274  0.1319  0.9598 -0.2661
 8256TIP3    H146259   3.017   6.603  16.201 -0.7303 -1.1255 -2.1293
 8256TIP3    H246260   2.881   6.583  16.263 -0.2083 -0.5064 -0.7574
 8257TIP3   OH246261   3.388   1.669   2.108 -0.4407 -0.1623 -0.7636
 8257TIP3    H146262   3.425   1.639   2.025  0.2414  0.6501 -0.7679
 8257TIP3    H246263   3.399   1.764   2.107 -0.8654 -0.0884  0.0517
 8258TIP3   OH246264   0.742   1.142   6.377  0.2014 -0.2955  0.5366
 8258TIP3    H146265   0.815   1.141   6.438 -0.2366  3.3677  1.3625
 8258TIP3    H246266   0.776   1.188   6.300 -1.1329  1.4499  0.9293
 8259TIP3   OH246267   0.333   1.914  15.355 -0.1135  0.6214  0.0030
 8259TIP3    H146268   0.313   2.007  15.356 -2.2470  0.2213 -0.7118
 8259TIP3    H246269   0.367   1.896  15.443  1.5099  2.2508 -0.2308
 8260TIP3   OH246270   2.316   2.500  15.235 -0.4223 -0.4410  0.1016
 8260TIP3    H146271   2.275   2.418  15.263  0.8341 -1.1106  0.0504
 8260TIP3    H246272   2.398   2.505  15.284  0.2060  0.0577 -0.9551
 8261TIP3   OH246273   4.500   6.066   3.700 -0.0985 -0.5060  0.3544
 8261TIP3    H146274   4.525   6.122   3.627  1.3934 -0.8620  0.5497
 8261TIP3    H246275   4.546   6.104   3.775 -1.1781 -0.4620  1.0038
 8262TIP3   OH246276   1.911   3.196   4.027 -0.1761  0.5482  0.2800
 8262TIP3    H146277   1.931   3.109   4.060  0.0499 -0.1553 -1.5998
 8262TIP3    H246278   1.993   3.245   4.038  0.1087  0.1144  0.1023
 8263TIP3   OH246279   0.888   4.423  12.889  0.3977  0.4970 -0.8291
 8263TIP3    H146280   0.849   4.382  12.812 -1.3497  2.1885 -0.9005
 8263TIP3    H246281   0.823   4.412  12.958  1.5927 -0.2653  0.2374
 8264TIP3   OH246282   6.244   1.431   0.444  0.2839  0.3946  0.1119
 8264TIP3    H146283   6.165   1.417   0.496 -0.7633  1.0137 -1.2355
 8264TIP3    H246284   6.249   1.354   0.387  0.5134  0.4663  0.0342
 8265TIP3   OH246285   3.341   4.115   3.400  0.0600  0.0968 -0.2611
 8265TIP3    H146286   3.370   4.040   3.453  0.8879 -0.1598 -1.0480
 8265TIP3    H246287   3.407   4.183   3.416  0.6623 -0.1894 -1.3970
 8266TIP3   OH246288   6.688   3.177   5.751  0.4940 -0.4463  0.5230
 8266TIP3    H146289   6.642   3.185   5.667 -1.6361 -0.5420  1.5973
 8266TIP3    H246290   6.757   3.243   5.748 -0.2096  0.2521 -0.9018
 8267TIP3   OH246291   2.959   3.681  15.950 -0.6644  0.0447  0.1831
 8267TIP3    H146292   2.875   3.713  15.982 -1.0628 -1.0708  0.3087
 8267TIP3    H246293   2.958   3.700  15.856 -0.6778  0.8218  0.3389
 8268TIP3   OH246294   6.698   2.806  13.643  0.1468  0.6346  0.0065
 8268TIP3    H146295   6.629   2.811  13.576 -0.9468 -0.3619  1.0004
 8268TIP3    H246296   6.653   2.830  13.725  1.5384  2.1752  0.3694
 8269TIP3   OH246297   3.824   2.197  15.208 -0.2625  0.2180 -0.5062
 8269TIP3    H146298   3.905   2.147  15.215 -0.1097  0.6835  2.1972
 8269TIP3    H246299   3.845   2.281  15.249 -2.0557  0.3977  0.1263
 8270TIP3   OH246300   3.350   2.700  10.867 -0.1542  0.2993 -0.4234
 8270TIP3    H146301   3.292   2.623  10.872 -0.4222  0.5557  1.0169
 8270TIP3    H246302   3.414   2.678  10.799 -0.3860 -1.0918 -0.2217
 8271TIP3   OH246303   0.581   6.361  13.128  0.3516 -0.1458 -0.0616
 8271TIP3    H146304   0.664   6.390  13.167 -0.0133  0.2813  0.4194
 8271TIP3    H246305   0.584   6.266  13.134 -0.4171 -0.0904  2.6567
 8272TIP3   OH246306   6.053   3.069  16.910 -0.4423  0.2523 -0.5216
 8272TIP3    H146307   6.101   3.128  16.853 -0.7658 -0.3159 -1.4003
 8272TIP3    H246308   5.961   3.095  16.900 -0.3052  2.2793  2.2186
 8273TIP3   OH246309   1.643   3.905   5.599  0.2174 -0.1490 -0.2333
 8273TIP3    H146310   1.663   3.986   5.551  1.1140 -0.2853 -0.1144
 8273TIP3    H246311   1.548   3.903   5.603  0.1742  1.6111  0.9340
 8274TIP3   OH246312   3.102   1.444   0.162 -0.2492 -0.4328  0.2634
 8274TIP3    H146313   3.038   1.481   0.224 -0.9200 -0.1563 -0.5784
 8274TIP3    H246314   3.114   1.513   0.097  0.2044 -0.8497 -0.0993
 8275TIP3   OH246315   2.415   6.041   1.705 -0.1480 -0.0069  0.0339
 8275TIP3    H146316   2.442   5.975   1.641 -1.0554 -0.1704 -0.1977
 8275TIP3    H246317   2.492   6.055   1.760  0.2745 -0.7290 -0.3648
 8276TIP3   OH246318   6.809   1.864   3.930  0.1111  0.2197  0.8175
 8276TIP3    H146319   6.837   1.803   3.998 -0.8160 -1.4910 -0.2590
 8276TIP3    H246320   6.723   1.833   3.903 -0.3979  2.0328  0.2103
 8277TIP3   OH246321   2.779   0.115   4.576  0.1404 -0.5971 -0.1251
 8277TIP3    H146322   2.684   0.110   4.586  0.1027 -0.5107 -0.4195
 8277TIP3    H246323   2.792   0.156   4.490  0.4369 -1.7290 -0.6526
 8278TIP3   OH246324   6.743   3.469  15.412  0.0324 -0.5677 -0.5317
 8278TIP3    H146325   6.749   3.464  15.317  0.9103  1.0256 -0.5977
 8278TIP3    H246326   6.653   3.444  15.432 -0.1718 -0.8736 -1.7720
 8279TIP3   OH246327   1.582   4.670  13.575 -0.1287  0.5848 -0.2770
 8279TIP3    H146328   1.500   4.636  13.537  0.5521 -0.3780 -0.9653
 8279TIP3    H246329   1.650   4.630  13.521  0.8533  0.1194  1.2513
 8280TIP3   OH246330   2.250   6.492   3.914  0.4996  0.5323  0.2365
 8280TIP3    H146331   2.220   6.576   3.879 -0.4969  0.5250  1.0132
 8280TIP3    H246332   2.170   6.442   3.927  0.7694  0.5654  2.5557
 8281TIP3   OH246333   5.091   5.420   1.827 -0.0219 -0.1560 -0.1456
 8281TIP3    H146334   5.148   5.343   1.837 -0.1100 -0.5583 -2.2504
 8281TIP3    H246335   5.148   5.489   1.794  0.0785  0.7710  1.8460
 8282TIP3   OH246336   1.626   3.343   1.292 -0.2183  0.2476 -0.3052
 8282TIP3    H146337   1.715   3.339   1.328 -0.8568 -0.7927  1.2744
 8282TIP3    H246338   1.624   3.424   1.241  0.7918  1.8635  2.0266
 8283TIP3   OH246339   5.827   1.313  16.406  0.3083 -0.6901 -0.7161
 8283TIP3    H146340   5.778   1.275  16.333  0.5482 -0.8105 -0.8202
 8283TIP3    H246341   5.827   1.407  16.389 -0.1286 -0.6601 -0.5615
 8284TIP3   OH246342   3.012   1.564   2.434  0.2480  0.2923  0.1731
 8284TIP3    H146343   2.971   1.646   2.409 -0.6794 -0.5534 -1.2036
 8284TIP3    H246344   3.091   1.558   2.380 -0.6925 -0.5810 -1.1731
 8285TIP3   OH246345   4.241   2.123   3.802  0.5221 -0.7174 -0.2743
 8285TIP3    H146346   4.257   2.051   3.863  0.0029 -0.1613  0.5376
 8285TIP3    H246347   4.307   2.188   3.823  1.2482 -1.1073 -1.2818
 8286TIP3   OH246348   2.991   1.027  11.042 -0.1190  0.0873  0.1887
 8286TIP3    H146349   2.914   0.994  10.997  0.1292  0.8638 -0.8287
 8286TIP3    H246350   3.062   1.019  10.979  0.8374 -1.3749  1.3753
 8287TIP3   OH246351   2.654   5.230   4.662  0.4825 -0.0698 -0.1830
 8287TIP3    H146352   2.668   5.324   4.649  0.9956  0.1800  1.7807
 8287TIP3    H246353   2.691   5.189   4.584 -2.1792  1.4364 -2.4015
 8288TIP3   OH246354   0.231   3.965  11.138 -0.0755 -0.3271 -0.2089
 8288TIP3    H146355   0.266   3.931  11.220 -0.3700  1.8630  0.8970
 8288TIP3    H246356   0.307   3.996  11.090 -0.0701  0.3185  0.2016
 8289TIP3   OH246357   6.558   1.365  15.815  0.0219  0.0802  0.5283
 8289TIP3    H146358   6.592   1.433  15.757 -0.4308 -0.4093 -0.3230
 8289TIP3    H246359   6.466   1.355  15.790  0.3410 -1.6089 -0.1498
 8290TIP3   OH246360   2.482   2.419   2.995  1.0209 -0.0097  0.3479
 8290TIP3    H146361   2.462   2.337   3.039  0.2489  0.3616  0.7069
 8290TIP3    H246362   2.480   2.485   3.065  1.5379  0.3294  0.0508
 8291TIP3   OH246363   6.115   3.959   4.498  0.5874  0.0451 -0.5224
 8291TIP3    H146364   6.050   4.021   4.465 -1.8547 -0.8845  2.1414
 8291TIP3    H246365   6.126   3.895   4.428 -1.3383  0.3053 -1.1066
 8292TIP3   OH246366   5.337   5.279   2.450 -0.2530  0.8452 -0.4794
 8292TIP3    H146367   5.255   5.274   2.500 -0.3145  1.9442 -0.4471
 8292TIP3    H246368   5.361   5.372   2.453  1.3761  0.4393  0.1147
 8293TIP3   OH246369   0.547   1.648  15.552 -0.2580 -0.0988  0.1026
 8293TIP3    H146370   0.630   1.612  15.581 -0.1579  1.5441  2.1072
 8293TIP3    H246371   0.566   1.687  15.467  1.1296  0.4558  0.6283
 8294TIP3   OH246372   4.468   5.167  11.854  0.0181  0.0432 -0.3110
 8294TIP3    H146373   4.399   5.129  11.909  0.0379 -1.7317 -1.4247
 8294TIP3    H246374   4.529   5.208  11.916 -0.8372 -0.4086  0.8556
 8295TIP3   OH246375   4.355   4.122   5.444  0.3419 -0.4629 -0.0185
 8295TIP3    H146376   4.412   4.058   5.488  2.6827  1.2077 -0.4166
 8295TIP3    H246377   4.412   4.162   5.378 -1.0247  1.9809  0.1830
 8296TIP3   OH246378   2.402   0.382  17.029  0.2035  0.1290 -0.1841
 8296TIP3    H146379   2.423   0.467  17.067  1.1580 -0.9517  1.8419
 8296TIP3    H246380   2.386   0.401  16.936  0.4918  2.4734  0.1794
 8297TIP3   OH246381   5.144   2.282  12.488 -0.3824  0.6429  0.3522
 8297TIP3    H146382   5.127   2.188  12.498 -1.2479  0.8423  0.8595
 8297TIP3    H246383   5.175   2.310  12.574 -1.9820  1.1817  0.7821
 8298TIP3   OH246384   0.796   1.044   1.972  0.0005  0.2730 -0.0029
 8298TIP3    H146385   0.746   0.962   1.965  0.2513  0.1684 -0.7109
 8298TIP3    H246386   0.771   1.081   2.056 -0.7210 -0.1432 -0.0286
 8299TIP3   OH246387   2.643   2.943  12.740  0.1116  0.8133 -0.5281
 8299TIP3    H146388   2.579   3.005  12.705  0.3528 -0.1115 -2.8106
 8299TIP3    H246389   2.593   2.890  12.802 -0.8731  1.3052 -0.8780
 8300TIP3   OH246390   4.821   1.326   2.029  0.3803 -0.5072 -0.2531
 8300TIP3    H146391   4.760   1.257   2.058 -1.7359  0.8872 -1.1364
 8300TIP3    H246392   4.858   1.292   1.948  1.5215 -1.7371  0.7238
 8301TIP3   OH246393   0.577   5.761  10.917  0.3395 -0.9472 -0.4361
 8301TIP3    H146394   0.488   5.781  10.946  0.4164 -1.2402  0.0095
 8301TIP3    H246395   0.572   5.671  10.884  0.4046 -0.8610 -0.6780
 8302TIP3   OH246396   3.016   3.777  15.645 -0.4825  0.5051 -0.0121
 8302TIP3    H146397   3.004   3.867  15.676  0.4009 -0.3266  3.0186
 8302TIP3    H246398   3.102   3.777  15.604  0.2442  0.7274  1.4531
 8303TIP3   OH246399   6.349   2.524   6.281 -0.6367  0.7123  0.2556
 8303TIP3    H146400   6.371   2.572   6.361 -0.9164 -0.5478  1.1161
 8303TIP3    H246401   6.365   2.432   6.303  2.6146  0.5231 -2.2139
 8304TIP3   OH246402   0.497   4.569  17.006  0.4628  0.2027 -0.1991
 8304TIP3    H146403   0.414   4.554  17.052  0.8564  0.7939  0.7318
 8304TIP3    H246404   0.483   4.648  16.954  0.4643  0.3521  0.0264
 8305TIP3   OH246405   3.021   1.425   2.795 -0.0516  0.5164 -0.1278
 8305TIP3    H146406   3.008   1.456   2.705  0.5119  0.6393 -0.1671
 8305TIP3    H246407   3.082   1.352   2.787 -0.9611 -0.2864  0.0232
 8306TIP3   OH246408   5.996   0.420  10.785  0.4635  0.3991 -0.7407
 8306TIP3    H146409   5.947   0.356  10.732  0.5630  0.3731 -0.8017
 8306TIP3    H246410   6.070   0.445  10.729  0.4711  0.5053 -0.6836
 8307TIP3   OH246411   2.468   0.012   3.841  0.4897  0.4975  0.9158
 8307TIP3    H146412   2.389   0.008   3.786  1.8892  0.7651 -1.2123
 8307TIP3    H246413   2.435  -0.004   3.930 -1.6725 -1.6221 -0.1358
 8308TIP3   OH246414   2.021   6.704  11.854  0.0854 -0.3735 -0.1314
 8308TIP3    H146415   2.076   6.760  11.800  1.7395 -0.0097  1.7810
 8308TIP3    H246416   1.931   6.730  11.833  0.7700  2.7864  0.4039
 8309TIP3   OH246417   2.821   5.972  11.877 -0.7737 -0.0229 -0.3745
 8309TIP3    H146418   2.735   6.003  11.851 -0.9618  0.0341  0.2957
 8309TIP3    H246419   2.876   6.051  11.874 -0.8008 -0.0124 -0.5736
 8310TIP3   OH246420   5.770   6.542  13.902 -0.0797  0.1060 -0.1230
 8310TIP3    H146421   5.771   6.491  13.821  0.1250 -0.3777  0.1793
 8310TIP3    H246422   5.688   6.520  13.945 -0.9862  1.6412 -0.9834
 8311TIP3   OH246423   4.837   5.019   4.100 -0.4184 -0.7708 -0.3286
 8311TIP3    H146424   4.773   4.984   4.037  1.0718 -1.2323 -1.6506
 8311TIP3    H246425   4.872   5.097   4.057  0.5685 -1.0474 -0.0579
 8312TIP3   OH246426   1.839   1.084  16.799 -0.1812 -0.7539 -0.1104
 8312TIP3    H146427   1.882   1.030  16.732  0.9235  2.7072 -2.4878
 8312TIP3    H246428   1.908   1.103  16.862  0.6253  1.0003 -1.4343
 8313TIP3   OH246429   1.625   6.526  13.604  0.0770 -0.2699  0.0735
 8313TIP3    H146430   1.678   6.604  13.619 -0.4347 -0.2229  1.8175
 8313TIP3    H246431   1.667   6.483  13.529 -0.0839  2.0408 -1.4361
 8314TIP3   OH246432   0.384   2.908  13.878  0.1266 -0.0849  0.4274
 8314TIP3    H146433   0.395   2.924  13.972  1.0807  3.2162 -0.1458
 8314TIP3    H246434   0.306   2.956  13.854 -0.1123 -0.9060 -0.5216
 8315TIP3   OH246435   1.556   0.973   5.051 -0.0059  0.4407  0.9343
 8315TIP3    H146436   1.521   1.060   5.070 -1.0218 -0.1902  2.1018
 8315TIP3    H246437   1.483   0.914   5.065  0.7247 -0.6387  0.3647
 8316TIP3   OH246438   4.758   5.649   1.741  0.0806 -0.1495  0.2238
 8316TIP3    H146439   4.729   5.606   1.661  1.2515  1.2415 -1.0017
 8316TIP3    H246440   4.828   5.708   1.713  0.6962  0.1888  2.3209
 8317TIP3   OH246441   2.875   4.418  16.236  0.5131 -0.4358  0.0259
 8317TIP3    H146442   2.921   4.339  16.208  1.8130 -0.0928  1.0464
 8317TIP3    H246443   2.935   4.460  16.298  0.1657  1.6920 -0.9534
 8318TIP3   OH246444   1.145   0.124   1.269  0.3889  0.1046 -0.1134
 8318TIP3    H146445   1.061   0.098   1.230  0.2245  0.6399 -0.1254
 8318TIP3    H246446   1.187   0.177   1.202  0.2008  0.8486  0.3451
 8319TIP3   OH246447   4.640   5.572   6.180  0.2934  0.0084 -0.0019
 8319TIP3    H146448   4.684   5.632   6.240  0.8867  0.0841 -0.4967
 8319TIP3    H246449   4.678   5.487   6.198  0.0044 -0.0876  0.1699
 8320TIP3   OH246450   5.480   1.455   3.680 -0.6732 -0.1806 -0.0624
 8320TIP3    H146451   5.431   1.531   3.648  0.4357  0.2231 -0.8971
 8320TIP3    H246452   5.567   1.490   3.700 -0.1154 -1.2304 -0.5656
 8321TIP3   OH246453   5.352   5.585   1.063  0.5198  0.1454 -0.2991
 8321TIP3    H146454   5.391   5.567   0.977 -0.9936 -1.3007 -0.7238
 8321TIP3    H246455   5.405   5.535   1.125  0.6375 -0.0848 -0.5848
 8322TIP3   OH246456   0.203   4.101   6.279  0.4255 -0.4234 -0.4119
 8322TIP3    H146457   0.283   4.139   6.244  0.7907 -1.0205 -0.2534
 8322TIP3    H246458   0.184   4.152   6.357 -0.3649  0.8810 -1.4299
 8323TIP3   OH246459   5.709   6.516  14.971 -0.1518  0.1456  0.0757
 8323TIP3    H146460   5.732   6.453  15.039 -0.8530  0.0182  0.1996
 8323TIP3    H246461   5.727   6.602  15.011 -0.5513  0.0724  0.4260
 8324TIP3   OH246462   1.198   6.070  11.645 -0.6885  0.0494  0.6273
 8324TIP3    H146463   1.221   6.001  11.708 -1.3537 -0.0082  0.8195
 8324TIP3    H246464   1.280   6.088  11.598 -0.4867 -0.8357  0.6103
 8325TIP3   OH246465   3.716   2.396   3.554  0.3109  0.4764 -0.2279
 8325TIP3    H146466   3.757   2.429   3.634  2.0308 -1.0698 -0.4064
 8325TIP3    H246467   3.773   2.426   3.484 -0.3537  0.5218 -0.7635
 8326TIP3   OH246468   5.266   0.688   4.566 -0.7689  0.4856 -0.0120
 8326TIP3    H146469   5.316   0.631   4.508  0.8981 -0.0402  1.8120
 8326TIP3    H246470   5.333   0.739   4.613 -1.8549 -0.2743  2.5764
 8327TIP3   OH246471   2.543   5.451   3.992  0.0536 -0.7717  0.2872
 8327TIP3    H146472   2.619   5.399   3.965  0.1439  0.1510 -1.3608
 8327TIP3    H246473   2.580   5.528   4.034  0.0528 -0.4569 -0.2684
 8328TIP3   OH246474   1.621   1.296  16.151  0.3776 -0.6024 -0.3920
 8328TIP3    H146475   1.683   1.368  16.138  0.8798 -1.2034 -1.4791
 8328TIP3    H246476   1.648   1.230  16.087 -0.7345 -1.3168 -0.1463
 8329TIP3   OH246477   2.897   4.533   4.932  0.4406 -0.3298 -0.2718
 8329TIP3    H146478   2.972   4.583   4.966  0.6545 -0.9720  0.2139
 8329TIP3    H246479   2.931   4.444   4.920 -0.0274 -0.4361 -0.8219
 8330TIP3   OH246480   1.492   0.769  15.463  0.0435  0.4733  0.4534
 8330TIP3    H146481   1.490   0.863  15.481 -0.3187  0.6809 -0.6353
 8330TIP3    H246482   1.407   0.737  15.494 -0.9763  0.9972 -1.6811
 8331TIP3   OH246483   1.948   2.239   3.621  0.1021 -0.3942 -0.2706
 8331TIP3    H146484   1.950   2.330   3.652 -0.9727 -0.4618  0.0603
 8331TIP3    H246485   2.008   2.193   3.679 -1.2054 -0.3424  1.2160
 8332TIP3   OH246486   4.864   5.440  12.072 -0.0039  0.4808  0.3261
 8332TIP3    H146487   4.832   5.529  12.089 -0.2339  0.6540 -0.9112
 8332TIP3    H246488   4.842   5.391  12.152  1.6613  1.8969  1.7364
 8333TIP3   OH246489   0.252   0.085   4.240  0.4466 -0.3159  0.1317
 8333TIP3    H146490   0.198   0.113   4.166 -1.2621 -0.3991  1.2868
 8333TIP3    H246491   0.303   0.163   4.263 -0.8999  0.5282  0.4366
 8334TIP3   OH246492   1.139   2.468  12.645  0.1383 -0.0460 -0.4494
 8334TIP3    H146493   1.160   2.427  12.561  0.2603  0.5766 -0.7262
 8334TIP3    H246494   1.152   2.562  12.631  1.1128 -0.0159  0.5456
 8335TIP3   OH246495   1.935   5.988   6.137 -0.1674 -0.2947  0.2405
 8335TIP3    H146496   1.845   5.971   6.163 -0.4213 -0.2755 -0.5814
 8335TIP3    H246497   1.988   5.963   6.212 -0.9802  1.7036  1.5527
 8336TIP3   OH246498   2.645   4.932  12.461  0.1318 -0.2204 -0.1843
 8336TIP3    H146499   2.629   4.908  12.370 -0.1346  0.2044 -0.2562
 8336TIP3    H246500   2.557   4.939  12.499  0.0858  2.0875 -0.5676
 8337TIP3   OH246501   1.388   5.681  13.429  0.2639  0.0400 -0.6943
 8337TIP3    H146502   1.396   5.588  13.451  1.2954  0.1295 -0.6336
 8337TIP3    H246503   1.318   5.684  13.365  0.5103 -0.8503 -1.0250
 8338TIP3   OH246504   4.103   2.204   5.017  0.1285  0.8076 -0.0737
 8338TIP3    H146505   4.045   2.281   5.021  0.4074  1.0029  0.3207
 8338TIP3    H246506   4.047   2.131   5.043  0.7410  1.4040  3.4048
 8339TIP3   OH246507   4.608   2.210   2.848  0.1688  0.4848  0.2740
 8339TIP3    H146508   4.629   2.170   2.933 -1.3542  1.4800  1.1781
 8339TIP3    H246509   4.516   2.189   2.834  0.2551  0.8103 -0.8914
 8340TIP3   OH246510   5.482   6.242  13.668  0.7420 -0.1756  0.1138
 8340TIP3    H146511   5.551   6.272  13.609 -0.0913  0.4209 -0.5789
 8340TIP3    H246512   5.481   6.147  13.656 -0.3080  0.0226 -1.9017
 8341TIP3   OH246513   0.211   5.616   5.691  0.1696 -0.0963  0.4360
 8341TIP3    H146514   0.152   5.669   5.744  1.2882  2.9466 -1.1442
 8341TIP3    H246515   0.271   5.577   5.754 -0.8861  0.2122  1.6813
 8342TIP3   OH246516   5.669   3.715   1.285  0.9348  0.4208  0.9144
 8342TIP3    H146517   5.580   3.702   1.317  0.6726 -0.4729 -0.0825
 8342TIP3    H246518   5.678   3.810   1.274  0.4212  0.5823  1.8653
 8343TIP3   OH246519   4.884   1.955  15.204  0.6570 -0.2978 -0.3237
 8343TIP3    H146520   4.940   2.032  15.218 -0.4167  0.9037 -2.1279
 8343TIP3    H246521   4.802   1.976  15.248 -0.5859  0.8751 -2.9299
 8344TIP3   OH246522   3.954   6.749   5.888 -0.1273 -0.1850 -0.1591
 8344TIP3    H146523   4.033   6.714   5.928 -0.4629 -2.2217 -1.1016
 8344TIP3    H246524   3.924   6.818   5.947  0.2939 -1.9050  2.1844
 8345TIP3   OH246525   3.360   1.384  16.570 -0.1191  0.1754  0.3954
 8345TIP3    H146526   3.315   1.428  16.498  0.1784  1.9653  1.2472
 8345TIP3    H246527   3.453   1.397  16.552  0.1263 -2.3225 -0.6308
 8346TIP3   OH246528   4.457   4.013   6.382 -0.5490  0.0755 -0.4965
 8346TIP3    H146529   4.524   3.955   6.347 -0.7069 -0.7746  0.5467
 8346TIP3    H246530   4.498   4.055   6.458 -1.3978 -1.0230  0.6110
 8347TIP3   OH246531   0.707   5.058   4.392 -0.0265 -0.7039 -0.8452
 8347TIP3    H146532   0.765   5.027   4.323 -1.0921 -1.7961 -1.2925
 8347TIP3    H246533   0.765   5.080   4.465  1.0359 -0.3836 -1.7720
 8348TIP3   OH246534   5.310   6.736  13.410  0.9841 -0.7432  0.1486
 8348TIP3    H146535   5.322   6.641  13.408  3.1040 -0.5601  1.3444
 8348TIP3    H246536   5.265   6.753  13.493  1.2440 -0.6468  0.2697
 8349TIP3   OH246537   3.494   6.007   3.593 -0.0357  0.2311  0.5174
 8349TIP3    H146538   3.523   5.960   3.515 -1.4574 -3.1202  1.7686
 8349TIP3    H246539   3.569   6.005   3.652  0.6366  1.6354 -0.2661
 8350TIP3   OH246540   0.177   4.677  11.926  0.0452  0.7539  0.2477
 8350TIP3    H146541   0.141   4.588  11.928  1.5372  0.1301  1.3352
 8350TIP3    H246542   0.139   4.717  11.848 -0.7049 -0.8041 -0.2247
 8351TIP3   OH246543   4.725   0.097   1.979  0.4520 -0.3227  0.3846
 8351TIP3    H146544   4.671   0.088   1.901 -0.4164  2.2875  0.5885
 8351TIP3    H246545   4.664   0.082   2.052 -0.2267  2.7925  0.6198
 8352TIP3   OH246546   4.170   2.853  12.912 -0.2225 -0.1029  0.5052
 8352TIP3    H146547   4.139   2.884  12.997 -0.7794  1.1257 -0.1243
 8352TIP3    H246548   4.204   2.931  12.869  0.8648 -0.8636 -0.0722
 8353TIP3   OH246549   2.977   5.386   1.841  0.0270  0.0047  0.3379
 8353TIP3    H146550   2.896   5.404   1.792 -0.4748 -0.6958  0.8855
 8353TIP3    H246551   2.994   5.293   1.827  0.4985  0.0520  0.5820
 8354TIP3   OH246552   5.123   4.331   3.581  0.3756  0.3749  0.1738
 8354TIP3    H146553   5.175   4.281   3.517  0.5359  0.1059  0.5132
 8354TIP3    H246554   5.151   4.298   3.666 -1.8001 -1.2890  0.3465
 8355TIP3   OH246555   6.560   5.121   0.635 -0.6441 -0.3634 -0.2095
 8355TIP3    H146556   6.569   5.033   0.671 -1.3644 -0.6633 -0.7194
 8355TIP3    H246557   6.536   5.107   0.543 -0.2164  0.3695 -0.4410
 8356TIP3   OH246558   4.750   3.963  13.766 -0.0770 -0.0754 -0.1140
 8356TIP3    H146559   4.688   3.952  13.693 -0.9724  0.5471  0.5299
 8356TIP3    H246560   4.738   3.885  13.820 -1.3161  0.6604  0.7259
 8357TIP3   OH246561   0.741   1.244  16.774  0.4936 -0.1758 -0.2873
 8357TIP3    H146562   0.676   1.288  16.721  0.9721  1.4828  0.4363
 8357TIP3    H246563   0.694   1.217  16.853  0.5057  0.3271 -0.1069
 8358TIP3   OH246564   1.548   3.799  12.914 -0.4024  0.5312 -0.5323
 8358TIP3    H146565   1.639   3.826  12.925 -0.4183  0.1839  0.5094
 8358TIP3    H246566   1.532   3.809  12.820  0.4383  1.4301 -0.6038
 8359TIP3   OH246567   6.760   0.829   5.683 -0.2732 -0.0036 -0.2161
 8359TIP3    H146568   6.708   0.779   5.619  0.3959 -0.2054 -0.6048
 8359TIP3    H246569   6.776   0.768   5.754  0.4528 -0.3221 -0.6432
 8360TIP3   OH246570   1.847   4.276  13.501 -0.3557 -0.1723  0.3638
 8360TIP3    H146571   1.845   4.346  13.435 -2.1972  0.4328  1.0043
 8360TIP3    H246572   1.813   4.199  13.456  1.3398 -0.6080 -0.2411
 8361TIP3   OH246573   4.895   3.099  14.561 -0.5285  0.6132  0.1307
 8361TIP3    H146574   4.836   3.173  14.573  2.1670  3.0774 -0.5000
 8361TIP3    H246575   4.966   3.134  14.507  1.0626 -2.3900  0.0542
 8362TIP3   OH246576   5.126   1.087   2.056  0.3626  0.0346  0.1635
 8362TIP3    H146577   5.068   1.054   1.987  0.0306  0.0534  0.4347
 8362TIP3    H246578   5.201   1.027   2.055  1.1109  0.9224 -1.2674
 8363TIP3   OH246579   2.169   3.778  13.991  0.3658 -0.1244  0.2735
 8363TIP3    H146580   2.173   3.682  13.995  0.0441 -0.2717 -1.6172
 8363TIP3    H246581   2.136   3.796  13.902 -2.5151  1.6622  1.5520
 8364TIP3   OH246582   1.285   1.764   3.735 -0.3889 -0.1221  0.2610
 8364TIP3    H146583   1.369   1.768   3.689  0.2536  1.8841  1.4724
 8364TIP3    H246584   1.230   1.826   3.688 -1.0562 -1.0756 -0.2341
 8365TIP3   OH246585   5.869   0.574   4.767 -0.2216 -0.3660  0.3454
 8365TIP3    H146586   5.824   0.601   4.687  0.4410  0.7214  0.3301
 8365TIP3    H246587   5.799   0.535   4.820 -1.3721  1.8336  0.5746
 8366TIP3   OH246588   1.081   5.496   1.969 -0.4575  0.3182  0.5202
 8366TIP3    H146589   1.028   5.478   2.046 -0.6234  0.9682  0.5681
 8366TIP3    H246590   1.163   5.530   2.004 -0.7482  1.1613  0.4064
 8367TIP3   OH246591   1.996   2.467  13.174  0.2716  0.4480  0.1480
 8367TIP3    H146592   2.036   2.399  13.228 -0.1723 -0.4868 -0.6624
 8367TIP3    H246593   2.050   2.544  13.189  0.7351 -0.0492  1.1580
 8368TIP3   OH246594   4.551   1.931   2.363 -0.2938  0.8196  0.1381
 8368TIP3    H146595   4.481   1.911   2.426 -0.3355 -1.9778 -0.6441
 8368TIP3    H246596   4.628   1.888   2.398  0.0954  0.6688 -0.8667
 8369TIP3   OH246597   4.045   1.687   3.082  0.3889  0.0025  0.4537
 8369TIP3    H146598   3.950   1.678   3.080  0.4453 -0.9226  1.2455
 8369TIP3    H246599   4.068   1.720   2.995 -0.6880  0.6724  0.4052
 8370TIP3   OH246600   6.430   6.142   5.297 -0.3950 -0.1475 -0.4613
 8370TIP3    H146601   6.480   6.063   5.277  0.2603 -0.5329  2.3840
 8370TIP3    H246602   6.490   6.199   5.344 -1.7952  0.6191  0.4962
 8371TIP3   OH246603   3.914   4.367  13.635 -0.0294  0.0945 -0.0820
 8371TIP3    H146604   3.989   4.425  13.647  1.2300 -0.8737 -2.5133
 8371TIP3    H246605   3.856   4.387  13.708  1.5720  2.4663  0.6556
 8372TIP3   OH246606   0.925   1.782  13.741  0.0349  0.0470 -0.0236
 8372TIP3    H146607   0.887   1.869  13.749  1.6556  0.8793 -0.8820
 8372TIP3    H246608   0.940   1.754  13.831 -0.6828  0.5462  0.2606
 8373TIP3   OH246609   4.455   1.312   4.644 -0.0114  0.3534  0.4677
 8373TIP3    H146610   4.519   1.246   4.617  0.7432  1.1131  0.3650
 8373TIP3    H246611   4.468   1.321   4.739 -0.8085 -0.3522  0.6646
 8374TIP3   OH246612   6.338   1.988  17.019 -0.6154 -0.4238  0.5946
 8374TIP3    H146613   6.253   1.970  17.059  0.5035  0.7908  3.7746
 8374TIP3    H246614   6.402   1.953  17.080  1.2461  1.8451  0.0780
 8375TIP3   OH246615   2.533   1.847  16.276 -0.0534 -0.1561 -0.0322
 8375TIP3    H146616   2.605   1.839  16.213  0.1051  0.7063  0.0243
 8375TIP3    H246617   2.574   1.881  16.355 -0.4439 -0.0997  0.1495
 8376TIP3   OH246618   0.088   3.544  16.875 -0.1660  0.3958  0.3255
 8376TIP3    H146619   0.042   3.519  16.955  0.5258 -1.2948  0.2431
 8376TIP3    H246620   0.152   3.609  16.905 -2.0557  2.2437  0.5487
 8377TIP3   OH246621   6.557   1.837  12.820  0.2584  0.6271  0.1600
 8377TIP3    H146622   6.494   1.873  12.881  1.1408  0.4196  1.2173
 8377TIP3    H246623   6.641   1.841  12.866  1.2990  2.1682 -1.7008
 8378TIP3   OH246624   3.069   2.206   6.550 -0.1287  0.0227 -0.5761
 8378TIP3    H146625   3.004   2.271   6.576  0.3705 -0.6606  2.7892
 8378TIP3    H246626   3.018   2.134   6.513 -1.1371  0.3063  0.2330
 8379TIP3   OH246627   3.406   2.213   0.460  0.1774  0.0273  0.6584
 8379TIP3    H146628   3.499   2.229   0.479  0.3754 -0.8820  0.5384
 8379TIP3    H246629   3.360   2.237   0.540  0.4496  1.0309  0.5233
 8380TIP3   OH246630   1.975   6.753   2.657  0.3594  0.5091  0.2086
 8380TIP3    H146631   2.035   6.814   2.615 -0.0100  0.4009 -0.5068
 8380TIP3    H246632   1.889   6.775   2.620 -0.1515  1.0327  1.6298
 8381TIP3   OH246633   6.123   3.034  17.174  0.0788 -0.2213 -0.0111
 8381TIP3    H146634   6.219   3.037  17.165  0.0523  0.3698 -0.1246
 8381TIP3    H246635   6.090   3.031  17.085  0.0070 -1.4907  0.0312
 8382TIP3   OH246636   2.626   1.969   0.117  0.1041 -0.2195 -0.0708
 8382TIP3    H146637   2.576   2.009   0.046  0.8984  0.1689 -0.4265
 8382TIP3    H246638   2.714   1.958   0.081  0.3469 -0.6246  0.6334
 8383TIP3   OH246639   6.070   0.295  17.057 -0.3950  0.1924 -0.1085
 8383TIP3    H146640   6.137   0.228  17.072  0.8527  1.6342  1.1685
 8383TIP3    H246641   6.011   0.256  16.993  1.2596 -1.4381 -0.7422
 8384TIP3   OH246642   6.152   0.301  15.422 -0.3882 -0.1132 -0.5015
 8384TIP3    H146643   6.117   0.385  15.453  1.1227  0.6501 -0.7811
 8384TIP3    H246644   6.152   0.245  15.500  1.9053  1.2834  0.6124
 8385TIP3   OH246645   5.337   0.385  11.893  0.0093 -0.3106  0.6048
 8385TIP3    H146646   5.336   0.307  11.836  0.8855 -0.2546  0.5047
 8385TIP3    H246647   5.244   0.403  11.909 -0.5499  1.5957 -3.4589
 8386TIP3   OH246648   4.666   0.560  16.393  0.5602 -0.1575 -0.1800
 8386TIP3    H146649   4.581   0.564  16.437  0.6208  1.2100 -0.1329
 8386TIP3    H246650   4.721   0.507  16.450 -0.3941 -1.5473 -0.4879
 8387TIP3   OH246651   6.129   3.422  16.500  0.3552 -0.5932  0.0080
 8387TIP3    H146652   6.185   3.449  16.427 -0.4376  0.6860 -0.1567
 8387TIP3    H246653   6.090   3.503  16.531  0.5766 -1.1269  1.7899
 8388TIP3   OH246654   3.949   5.897  11.412 -0.1849 -0.0185  0.5874
 8388TIP3    H146655   4.011   5.856  11.472 -0.2765  2.1813  2.3095
 8388TIP3    H246656   3.882   5.830  11.396 -0.0604 -0.7387  2.8190
 8389TIP3   OH246657   4.193   1.413  13.559 -0.3262 -0.2465  0.2096
 8389TIP3    H146658   4.189   1.479  13.628 -0.0664 -1.2880  1.2507
 8389TIP3    H246659   4.151   1.335  13.596 -1.8450 -0.3012 -1.4694
 8390TIP3   OH246660   0.379   4.277   4.772 -1.1336 -0.5814 -0.0366
 8390TIP3    H146661   0.376   4.206   4.836 -1.2214 -2.4466 -1.9581
 8390TIP3    H246662   0.361   4.356   4.822 -2.2359 -2.0477  2.0384
 8391TIP3   OH246663   5.031   6.519  13.109 -0.1440  0.1022 -0.0346
 8391TIP3    H146664   4.947   6.492  13.144  0.9206 -2.2377  0.9399
 8391TIP3    H246665   5.020   6.514  13.014 -1.1468  0.0327  0.0770
 8392TIP3   OH246666   5.399   5.699   5.331  0.5468 -0.1588 -0.5566
 8392TIP3    H146667   5.443   5.681   5.414 -1.0283  0.0436  0.3749
 8392TIP3    H246668   5.420   5.624   5.276 -0.2292 -1.4597  0.8341
 8393TIP3   OH246669   4.870   2.974   1.131  0.5979 -0.7331 -0.2198
 8393TIP3    H146670   4.777   2.992   1.120  0.9038  0.7246 -0.6822
 8393TIP3    H246671   4.883   2.970   1.225  0.5310  2.0739 -0.0025
 8394TIP3   OH246672   0.869   0.209  13.112  0.2713 -0.3094 -0.6251
 8394TIP3    H146673   0.945   0.260  13.084  0.4684 -0.9094 -1.2121
 8394TIP3    H246674   0.836   0.168  13.031 -0.4876 -0.3055 -0.3294
 8395TIP3   OH246675   3.305   1.401  16.830 -0.8476 -0.6409 -0.6530
 8395TIP3    H146676   3.301   1.401  16.735 -1.2600  0.7891 -0.6552
 8395TIP3    H246677   3.380   1.346  16.851 -0.0457 -0.0286 -1.8417
 8396TIP3   OH246678   5.178   6.220  11.514 -0.4637 -0.1043 -0.9632
 8396TIP3    H146679   5.238   6.291  11.537 -0.5625 -0.2989 -0.0688
 8396TIP3    H246680   5.091   6.256  11.530 -0.4896 -0.7675  0.5897
 8397TIP3   OH246681   6.438   3.403  16.717 -0.3528 -0.1562  0.5703
 8397TIP3    H146682   6.512   3.373  16.664 -2.1255 -0.7986 -1.7287
 8397TIP3    H246683   6.416   3.489  16.681  0.0681  0.6420  2.1423
 8398TIP3   OH246684   5.472   5.183   4.181 -0.5134  0.0185 -0.0674
 8398TIP3    H146685   5.422   5.210   4.258 -2.3722  0.2902 -1.2957
 8398TIP3    H246686   5.546   5.134   4.216 -2.0824 -1.1404  1.8604
 8399TIP3   OH246687   2.596   1.219   4.221  0.1251 -0.1602  0.0260
 8399TIP3    H146688   2.663   1.159   4.188 -0.4095 -0.4939 -0.4709
 8399TIP3    H246689   2.515   1.168   4.219 -0.2262  0.3827  0.1803
 8400TIP3   OH246690   6.647   0.816   1.768 -0.6769 -0.2266 -0.1562
 8400TIP3    H146691   6.665   0.791   1.859 -1.5820 -1.9108 -0.3906
 8400TIP3    H246692   6.562   0.859   1.772  0.1356  1.4325  0.0172
 8401TIP3   OH246693   2.259   5.864  14.020 -0.3819  0.0212  0.3846
 8401TIP3    H146694   2.201   5.793  14.049  0.8265 -0.9907  0.4093
 8401TIP3    H246695   2.304   5.893  14.100  0.6963 -0.6698  0.0515
 8402TIP3   OH246696   0.518   1.580   4.857 -0.4990  0.1517 -0.2088
 8402TIP3    H146697   0.479   1.541   4.935 -1.7573  1.3684 -0.1840
 8402TIP3    H246698   0.589   1.635   4.890  1.8857 -2.6587 -0.3097
 8403TIP3   OH246699   4.515   5.410  13.576  0.2748 -0.4853 -0.4810
 8403TIP3    H146700   4.584   5.383  13.637  1.2194 -1.1763 -1.7864
 8403TIP3    H246701   4.523   5.505  13.571 -0.7699 -0.2523  1.5207
 8404TIP3   OH246702   2.222   2.462  11.431 -0.3952 -0.3565 -0.0767
 8404TIP3    H146703   2.278   2.463  11.353 -0.5452 -0.8750 -0.1972
 8404TIP3    H246704   2.141   2.421  11.400  0.1293 -2.1170  0.7437
 8405TIP3   OH246705   1.252   0.461  11.987 -0.3648  0.0877 -0.5577
 8405TIP3    H146706   1.246   0.486  11.895  1.3971 -1.3556 -1.1274
 8405TIP3    H246707   1.176   0.404  12.002 -1.4023  1.3875 -0.7100
 8406TIP3   OH246708   4.599   1.892  13.937  0.2192  0.1602  0.5587
 8406TIP3    H146709   4.683   1.862  13.902  0.6518  1.8835  0.0600
 8406TIP3    H246710   4.597   1.858  14.027  0.8111 -1.0694  0.1234
 8407TIP3   OH246711   1.314   2.950   2.763 -0.0735 -0.1377 -0.0438
 8407TIP3    H146712   1.294   2.873   2.709 -0.8715 -0.5960  0.8791
 8407TIP3    H246713   1.246   3.014   2.742  0.9906  0.6112 -1.3304
 8408TIP3   OH246714   5.328   2.109   3.835  0.3187  0.7199 -0.5130
 8408TIP3    H146715   5.332   2.146   3.923 -0.9543 -0.4733  0.0943
 8408TIP3    H246716   5.417   2.081   3.816  0.7029  1.4328  0.1913
 8409TIP3   OH246717   3.280   2.953  15.423 -0.1615  0.2781 -0.1820
 8409TIP3    H146718   3.247   2.941  15.334 -2.0533 -0.6384  0.5749
 8409TIP3    H246719   3.217   3.013  15.463  0.7022  0.7254  0.5310
 8410TIP3   OH246720   1.226   3.736   2.911 -0.1156 -0.6068  0.2567
 8410TIP3    H146721   1.304   3.740   2.966  0.1027  1.5966 -0.1041
 8410TIP3    H246722   1.153   3.745   2.973 -0.0106 -1.1799  0.4627
 8411TIP3   OH246723   1.435   2.134  16.605 -0.2108 -0.0998  0.5480
 8411TIP3    H146724   1.408   2.091  16.686 -0.5931 -0.6913  0.1156
 8411TIP3    H246725   1.491   2.206  16.634  2.0501 -2.0061  1.2048
 8412TIP3   OH246726   0.888   4.418  13.872  0.9332 -0.9708 -0.8724
 8412TIP3    H146727   0.962   4.471  13.842  0.2465  0.6411  0.1369
 8412TIP3    H246728   0.839   4.397  13.793 -0.3755  2.4363 -1.1180
 8413TIP3   OH246729   0.760   3.881  14.092 -0.1736  0.2382 -0.1061
 8413TIP3    H146730   0.853   3.860  14.091 -0.3436 -0.5142 -0.7137
 8413TIP3    H246731   0.730   3.865  14.003 -1.5138 -2.4970  0.7286
 8414TIP3   OH246732   5.774   4.686   1.566  0.6827 -0.2858 -0.5354
 8414TIP3    H146733   5.822   4.608   1.539  2.6717  0.8357 -0.4238
 8414TIP3    H246734   5.743   4.667   1.654  0.7012 -1.1285 -0.7071
 8415TIP3   OH246735   3.803   5.531  15.043 -0.0203  0.0138 -0.0188
 8415TIP3    H146736   3.811   5.622  15.071  0.0363 -0.7045  2.5952
 8415TIP3    H246737   3.771   5.485  15.121  3.3678 -2.7988 -0.0559
 8416TIP3   OH246738   4.001   4.797   5.264  0.2647 -0.4576 -1.2039
 8416TIP3    H146739   3.919   4.804   5.312  0.8225  0.6430 -0.3553
 8416TIP3    H246740   3.994   4.865   5.196  0.9512  0.5181 -0.3372
 8417TIP3   OH246741   1.390   4.326   1.782 -0.6477 -0.2604 -0.0443
 8417TIP3    H146742   1.407   4.267   1.708 -0.0722 -0.4783  0.2584
 8417TIP3    H246743   1.296   4.346   1.775 -0.1756  1.5025 -2.1295
 8418TIP3   OH246744   0.956   1.316  12.071  0.2776 -0.4423 -0.2211
 8418TIP3    H146745   0.992   1.245  12.123  4.0649  0.7186 -0.8797
 8418TIP3    H246746   0.968   1.394  12.125  0.1684  0.2031 -1.0947
 8419TIP3   OH246747   3.108   3.212   6.243  0.6352  0.1233  0.5209
 8419TIP3    H146748   3.054   3.153   6.294  2.1710 -0.2508  1.8108
 8419TIP3    H246749   3.194   3.170   6.241  0.8641  0.6084 -1.5907
 8420TIP3   OH246750   0.993   1.982   5.494 -0.0036  1.0021  0.3342
 8420TIP3    H146751   1.077   2.012   5.458 -1.3321  2.3474 -1.9215
 8420TIP3    H246752   0.993   1.888   5.479  0.9610  1.0335  0.0538
 8421TIP3   OH246753   2.059   1.172  14.322  0.2922  0.3558  0.0658
 8421TIP3    H146754   2.065   1.142  14.413 -2.8659  0.6564  0.4721
 8421TIP3    H246755   2.140   1.221  14.308  1.7470 -1.2726  2.0606
 8422TIP3   OH246756   3.738   4.272  12.362  0.1545 -0.0559  0.6780
 8422TIP3    H146757   3.831   4.268  12.381  0.3966 -0.4296 -0.5367
 8422TIP3    H246758   3.716   4.365  12.371  0.4597 -0.0721  1.7362
 8423TIP3   OH246759   0.330   6.277  12.714  0.4762  0.2203  0.0337
 8423TIP3    H146760   0.241   6.276  12.680  0.6177 -0.7150 -0.3488
 8423TIP3    H246761   0.367   6.359  12.681  0.1567  0.0068 -0.8895
 8424TIP3   OH246762   4.783   3.192   1.497  0.3797 -0.0807  0.2170
 8424TIP3    H146763   4.756   3.155   1.581  3.2516  0.5311  1.5324
 8424TIP3    H246764   4.802   3.116   1.443 -0.6327 -0.4749  0.3766
 8425TIP3   OH246765   5.147   4.016   1.512 -0.0927 -0.5968  0.7537
 8425TIP3    H146766   5.237   4.002   1.483  0.4831  0.5677  1.8455
 8425TIP3    H246767   5.154   4.024   1.607 -0.8540  2.6777  0.6369
 8426TIP3   OH246768   2.813   5.193   1.664 -0.2816 -0.0407 -0.0543
 8426TIP3    H146769   2.907   5.174   1.656 -0.4272 -0.3372 -1.3772
 8426TIP3    H246770   2.801   5.273   1.612 -0.7491  0.0494  0.1920
 8427TIP3   OH246771   1.499   0.144  16.404 -0.4551 -0.1851  0.5566
 8427TIP3    H146772   1.496   0.209  16.334 -0.5861  0.8260  1.4860
 8427TIP3    H246773   1.504   0.195  16.484  0.7122 -1.3366  1.2539
 8428TIP3   OH246774   2.686   3.771  17.300 -0.0035 -0.4665 -0.3112
 8428TIP3    H146775   2.728   3.841  17.250 -1.7913  2.5935  2.0604
 8428TIP3    H246776   2.594   3.775  17.274 -0.5108 -0.4482  1.3715
 8429TIP3   OH246777   1.842   5.787   2.572  0.0715  0.3516 -0.1862
 8429TIP3    H146778   1.854   5.876   2.537 -1.3851 -0.0917 -1.9919
 8429TIP3    H246779   1.812   5.800   2.662 -2.0095  1.8099 -1.0095
 8430TIP3   OH246780   6.233   4.782  15.409 -0.2806 -0.0240  0.2200
 8430TIP3    H146781   6.191   4.756  15.491  0.8847  1.5135  1.3640
 8430TIP3    H246782   6.267   4.700  15.373 -1.2348 -0.8016  0.9981
 8431TIP3   OH246783   3.620   5.522   0.946 -0.1339  0.9452  0.2004
 8431TIP3    H146784   3.599   5.591   1.009  0.3007 -0.1102  1.5720
 8431TIP3    H246785   3.535   5.490   0.916 -0.3936  0.6938  1.1625
 8432TIP3   OH246786   6.797   4.538  15.651 -0.0776 -0.2857  0.2557
 8432TIP3    H146787   6.881   4.571  15.620  0.4349 -1.4312  0.3624
 8432TIP3    H246788   6.793   4.563  15.744  0.1203 -0.1825  0.2353
 8433TIP3   OH246789   1.229   2.716  12.877  0.2595  0.0598 -0.0960
 8433TIP3    H146790   1.177   2.791  12.849 -0.9477 -1.3430 -1.9003
 8433TIP3    H246791   1.267   2.682  12.795  3.1070  0.3264  1.0149
 8434TIP3   OH246792   4.172   0.244   3.184  0.5314  0.2612  0.1668
 8434TIP3    H146793   4.252   0.285   3.216  1.0449  0.2532 -1.0398
 8434TIP3    H246794   4.121   0.225   3.263  1.0432  1.6286  0.8583
 8435TIP3   OH246795   0.688   6.332   1.775 -0.6813  0.4374  0.5458
 8435TIP3    H146796   0.752   6.366   1.712 -0.2814 -0.4003  0.4912
 8435TIP3    H246797   0.639   6.266   1.726 -1.6324  1.1097  0.5746
 8436TIP3   OH246798   1.288   5.455   3.288 -0.1717  0.1202  0.5280
 8436TIP3    H146799   1.274   5.500   3.371  2.3729 -0.1577  1.2000
 8436TIP3    H246800   1.326   5.370   3.313 -0.3133 -0.3851 -0.8808
 8437TIP3   OH246801   0.406   4.468   3.539  0.2165  0.0737 -0.0428
 8437TIP3    H146802   0.438   4.446   3.627  0.8218  0.1982 -0.2305
 8437TIP3    H246803   0.437   4.557   3.524  0.5078 -0.1165 -0.5655
 8438TIP3   OH246804   0.565   4.152  13.900  0.8375 -0.1195  0.2062
 8438TIP3    H146805   0.528   4.106  13.975 -1.8188 -1.2155 -1.6413
 8438TIP3    H246806   0.561   4.244  13.924  2.0131 -0.5252  2.1727
 8439TIP3   OH246807   2.384   1.220   1.670  0.6264  0.1038 -0.2983
 8439TIP3    H146808   2.418   1.271   1.597  0.8645 -0.1173 -0.3390
 8439TIP3    H246809   2.375   1.284   1.741  1.0850  0.1729 -0.2979
 8440TIP3   OH246810   0.125   6.709  10.556  0.4989 -0.3616 -0.6488
 8440TIP3    H146811   0.185   6.704  10.482 -1.6099 -2.0895 -2.3946
 8440TIP3    H246812   0.044   6.744  10.519 -0.9237 -2.1661  0.5828
 8441TIP3   OH246813   1.036   0.885   1.348 -0.1036 -0.5523 -0.2356
 8441TIP3    H146814   0.958   0.918   1.393 -2.4776 -3.6284 -1.7305
 8441TIP3    H246815   1.100   0.872   1.418 -2.4460 -1.9655  1.8067
 8442TIP3   OH246816   5.249   4.205  14.639  0.3019 -0.3338 -0.1438
 8442TIP3    H146817   5.159   4.204  14.671 -0.1548 -1.4302 -1.3430
 8442TIP3    H246818   5.287   4.284  14.676 -1.5198  0.8225 -0.5857
 8443TIP3   OH246819   1.666   6.039   0.684  0.0308  0.3542 -0.0941
 8443TIP3    H146820   1.717   6.101   0.737  1.4434 -1.7130  1.1001
 8443TIP3    H246821   1.716   6.029   0.603 -0.2417  0.8198 -0.3224
 8444TIP3   OH246822   0.207   2.421   1.938  0.1028 -0.1063  0.2159
 8444TIP3    H146823   0.230   2.512   1.956  0.6398 -0.6950  2.9272
 8444TIP3    H246824   0.210   2.378   2.024 -1.9570 -2.2952 -0.6990
 8445TIP3   OH246825   1.532   2.956   3.066  0.0853  0.5107  0.0174
 8445TIP3    H146826   1.464   3.016   3.097 -0.4065 -0.5713  1.1399
 8445TIP3    H246827   1.590   3.011   3.013 -0.2204  2.0317  1.1763
 8446TIP3   OH246828   2.177   3.261   0.350 -1.1155  0.2083 -0.0576
 8446TIP3    H146829   2.115   3.275   0.422 -1.2706  1.1012 -0.3505
 8446TIP3    H246830   2.141   3.313   0.278 -0.8445 -0.4979 -0.7159
 8447TIP3   OH246831   1.720   0.802   2.477  0.1290 -0.6478 -0.4581
 8447TIP3    H146832   1.780   0.876   2.466 -0.9231 -0.0137 -2.3314
 8447TIP3    H246833   1.777   0.728   2.498  1.5145  0.0895 -1.4399
 8448TIP3   OH246834   2.790   4.126   5.545 -0.7728 -0.1392  0.4325
 8448TIP3    H146835   2.793   4.044   5.594  0.8336 -1.5564 -1.8590
 8448TIP3    H246836   2.697   4.140   5.527 -1.0974 -1.2806  1.1262
 8449TIP3   OH246837   4.551   2.344   3.998 -0.0244  0.7706  0.3835
 8449TIP3    H146838   4.594   2.429   4.005 -0.6055  1.1971 -0.9377
 8449TIP3    H246839   4.481   2.358   3.934 -1.9687  0.0373  2.1936
 8450TIP3   OH246840   1.369   0.080  10.390  0.5335 -0.2850  0.0713
 8450TIP3    H146841   1.365   0.171  10.419  0.7383 -0.1205 -0.4026
 8450TIP3    H246842   1.440   0.078  10.325  0.0840 -0.6340 -0.4241
 8451TIP3   OH246843   0.806   2.068   0.520  0.1027 -0.3455 -0.0989
 8451TIP3    H146844   0.870   2.115   0.467 -0.4477  0.0441 -0.4326
 8451TIP3    H246845   0.852   1.991   0.551  0.7569 -0.0287 -0.2662
 8452TIP3   OH246846   3.933   4.324   3.431 -0.0337  0.0689  0.0690
 8452TIP3    H146847   3.853   4.372   3.409 -0.8257 -1.4237 -0.4506
 8452TIP3    H246848   3.981   4.317   3.348  0.5453  0.7699  0.3347
 8453TIP3   OH246849   2.421   3.781  17.267  0.6854 -0.1817  0.8195
 8453TIP3    H146850   2.403   3.687  17.261  1.6155 -0.4376  1.7563
 8453TIP3    H246851   2.380   3.818  17.190 -0.8591 -1.1758  1.1168
 8454TIP3   OH246852   4.555   1.634  16.715 -0.0158  0.1846 -0.0387
 8454TIP3    H146853   4.488   1.651  16.649 -1.1182 -0.8225  0.7670
 8454TIP3    H246854   4.506   1.626  16.797  1.1146 -0.3402  0.6075
 8455TIP3   OH246855   0.702   4.543   0.491 -0.5769 -0.0215  0.2593
 8455TIP3    H146856   0.772   4.592   0.447 -0.7715 -0.9850 -1.2019
 8455TIP3    H246857   0.718   4.558   0.585 -0.1405  2.1022 -0.0946
 8456TIP3   OH246858   1.527   3.631  12.194  0.0066 -0.0802 -0.3606
 8456TIP3    H146859   1.437   3.602  12.186  0.7634 -2.4737 -1.1168
 8456TIP3    H246860   1.523   3.726  12.183 -2.5239  0.0362  1.0050
 8457TIP3   OH246861   1.827   1.639  17.283 -0.8075  0.7445  0.3565
 8457TIP3    H146862   1.791   1.636  17.371 -0.2237 -0.1688  0.5740
 8457TIP3    H246863   1.792   1.561  17.240  0.4409  0.1408  0.4016
 8458TIP3   OH246864   6.250   4.519  15.247  0.3061 -0.5707 -0.2458
 8458TIP3    H146865   6.259   4.514  15.152 -0.3404 -1.3812 -0.2746
 8458TIP3    H246866   6.298   4.443  15.280  1.1052  0.0793  0.1268
 8459TIP3   OH246867   1.690   0.950   5.652 -0.5808 -0.0879 -0.2315
 8459TIP3    H146868   1.782   0.923   5.649 -0.8668 -0.9913 -1.3975
 8459TIP3    H246869   1.667   0.944   5.744  0.6515  0.6261  0.1606
 8460TIP3   OH246870   6.179   1.933   5.522  0.3058 -0.2969 -0.0478
 8460TIP3    H146871   6.214   2.020   5.538  0.9498 -0.2280 -1.5925
 8460TIP3    H246872   6.100   1.928   5.576  0.8862  0.7918  0.9490
 8461TIP3   OH246873   0.204   2.809  17.134  0.2056  0.0060  0.2016
 8461TIP3    H146874   0.124   2.759  17.150 -0.2075  0.5994  0.0532
 8461TIP3    H246875   0.275   2.751  17.160 -0.2792 -0.5039  0.4025
 8462TIP3   OH246876   0.159   0.907   1.969 -0.4447 -0.5492 -0.5086
 8462TIP3    H146877   0.105   0.946   1.900 -1.0747 -1.5860 -0.6314
 8462TIP3    H246878   0.114   0.825   1.991  0.3892 -0.8092  0.3093
 8463TIP3   OH246879   4.224   0.415   2.234 -0.1466 -0.4160  0.6300
 8463TIP3    H146880   4.143   0.453   2.270  0.3917 -0.6162  2.0982
 8463TIP3    H246881   4.207   0.321   2.231  0.2718 -0.5358  1.6298
 8464TIP3   OH246882   4.186   5.827  11.625  0.3059 -0.3808  0.1870
 8464TIP3    H146883   4.114   5.842  11.686  0.8358  2.8004  0.1661
 8464TIP3    H246884   4.231   5.749  11.659 -2.1322 -1.4890  1.0915
 8465TIP3   OH246885   1.979   6.537   4.204  0.1823  0.1087  0.5952
 8465TIP3    H146886   2.062   6.527   4.251  1.2831  0.3285 -1.1966
 8465TIP3    H246887   1.975   6.459   4.148 -0.2292  0.6849 -0.1841
 8466TIP3   OH246888   3.688   1.892  16.865  0.2601  0.7608  0.5667
 8466TIP3    H146889   3.770   1.928  16.897  0.6475  0.2418  0.1597
 8466TIP3    H246890   3.643   1.966  16.825  0.6669  0.9750  0.5049
 8467TIP3   OH246891   0.988   5.615  13.070 -0.3676 -0.1021  0.6084
 8467TIP3    H146892   0.996   5.665  12.989  1.1375  1.4894  1.6706
 8467TIP3    H246893   1.040   5.536  13.054  0.7675  0.6737  0.3433
 8468TIP3   OH246894   1.789   0.175   3.663 -0.3443 -0.1170  0.1635
 8468TIP3    H146895   1.715   0.235   3.672  0.3796  0.7952  0.2158
 8468TIP3    H246896   1.813   0.181   3.570  1.3195  1.6570  0.6520
 8469TIP3   OH246897   3.519   0.776  12.582  0.3653  0.0619 -0.0224
 8469TIP3    H146898   3.436   0.731  12.565 -0.4760  1.8479 -0.9669
 8469TIP3    H246899   3.553   0.736  12.661 -1.4753 -0.6374  0.4533
 8470TIP3   OH246900   6.254   5.477   2.192 -0.3064  0.3809  0.1254
 8470TIP3    H146901   6.319   5.493   2.260  0.4478 -0.9723 -0.2212
 8470TIP3    H246902   6.180   5.533   2.214  0.4691  0.9742  1.2771
 8471TIP3   OH246903   4.688   2.215   2.352 -0.4410 -0.2646  0.2180
 8471TIP3    H146904   4.664   2.122   2.347  0.3829 -0.4317 -1.6514
 8471TIP3    H246905   4.687   2.245   2.262  1.1446  1.0546  0.5801
 8472TIP3   OH246906   4.442   0.683   5.861 -0.2843 -0.2604  0.2295
 8472TIP3    H146907   4.431   0.595   5.825 -0.1868 -0.5691  0.9335
 8472TIP3    H246908   4.478   0.734   5.789 -0.1140 -0.8611 -0.1191
 8473TIP3   OH246909   4.187   5.359  11.185  0.4214  0.2198  0.5351
 8473TIP3    H146910   4.192   5.407  11.103  2.1123  0.9256  1.0035
 8473TIP3    H246911   4.098   5.324  11.187 -0.1565  1.4925 -0.8511
 8474TIP3   OH246912   3.566   0.278   4.614  0.4033  0.1839  0.2962
 8474TIP3    H146913   3.538   0.345   4.551  3.4758  0.3505 -1.0769
 8474TIP3    H246914   3.597   0.328   4.690  0.2723  0.1827  0.3506
 8475TIP3   OH246915   5.995   3.801   5.489  0.6503 -0.1060  0.0720
 8475TIP3    H146916   6.057   3.808   5.561 -0.8351 -0.0424  1.4080
 8475TIP3    H246917   5.910   3.816   5.530 -0.1417  1.1995 -1.9278
 8476TIP3   OH246918   0.862   3.269   4.320  0.2513  0.0266 -0.3090
 8476TIP3    H146919   0.877   3.362   4.337  1.9827 -0.3571  0.3820
 8476TIP3    H246920   0.892   3.224   4.399 -0.8999 -1.1133 -0.4822
 8477TIP3   OH246921   5.927   0.464   2.043  0.3079 -0.5011 -0.3219
 8477TIP3    H146922   5.924   0.434   2.134 -0.1100  0.2892 -0.0575
 8477TIP3    H246923   6.019   0.487   2.028  0.3327 -0.3959 -0.0162
 8478TIP3   OH246924   6.060   1.289  15.247  0.0118 -0.2304 -0.3191
 8478TIP3    H146925   5.966   1.306  15.256  0.2151  0.5036  0.5168
 8478TIP3    H246926   6.100   1.336  15.320  1.1416  0.3750 -1.2942
 8479TIP3   OH246927   5.809   3.968  14.560 -0.0965 -0.1687 -0.1521
 8479TIP3    H146928   5.821   4.022  14.638  1.3179  1.5411 -1.4520
 8479TIP3    H246929   5.864   3.891  14.576 -0.8503 -0.4745  1.0565
 8480TIP3   OH246930   2.260   0.387  11.596 -0.7003 -0.4241 -0.0112
 8480TIP3    H146931   2.255   0.479  11.568  0.3306 -0.0495  1.0008
 8480TIP3    H246932   2.278   0.339  11.515  1.7974  0.5935 -0.1438
 8481TIP3   OH246933   3.665   2.779  10.549 -0.3129  0.4649 -1.0991
 8481TIP3    H146934   3.723   2.715  10.508  2.2803  1.6267  0.5365
 8481TIP3    H246935   3.595   2.726  10.588  1.9742 -1.5110  0.6205
 8482TIP3   OH246936   5.401   6.701  13.704 -0.0520  0.5778 -0.0085
 8482TIP3    H146937   5.474   6.690  13.643 -0.5384  1.4669 -0.7821
 8482TIP3    H246938   5.399   6.796  13.722  0.2926  0.3019  1.6803
 8483TIP3   OH246939   3.157   0.821   2.395 -0.1337  0.5022  0.2564
 8483TIP3    H146940   3.239   0.846   2.354 -1.0326  2.3840 -0.4964
 8483TIP3    H246941   3.101   0.794   2.323 -0.5788  0.4117  0.6290
 8484TIP3   OH246942   0.861   5.159  13.409  0.6732  0.3212 -0.4125
 8484TIP3    H146943   0.787   5.220  13.413 -1.0438 -1.6320 -0.6321
 8484TIP3    H246944   0.880   5.151  13.316 -0.8754 -1.4079 -0.6316
 8485TIP3   OH246945   2.269   4.735  15.568 -0.0148  0.0468  0.0563
 8485TIP3    H146946   2.278   4.799  15.639  0.1846 -0.6233  0.6514
 8485TIP3    H246947   2.355   4.732  15.527  1.1280 -2.4281  2.3223
 8486TIP3   OH246948   4.740   4.900   2.009 -0.1110 -0.2162 -0.2291
 8486TIP3    H146949   4.738   4.984   2.056 -0.1340 -0.6235  0.5214
 8486TIP3    H246950   4.829   4.867   2.023 -0.2318 -0.5161 -0.1588
 8487TIP3   OH246951   3.167   6.368  11.661  0.0068  0.2118  0.5378
 8487TIP3    H146952   3.087   6.386  11.710 -1.0889 -1.8667 -0.3730
 8487TIP3    H246953   3.212   6.301  11.712  0.6551  0.6252  0.5184
 8488TIP3   OH246954   3.577   2.884   1.366  0.3093  0.3190  0.7018
 8488TIP3    H146955   3.498   2.835   1.344 -0.3326  1.8434 -0.6050
 8488TIP3    H246956   3.649   2.823   1.350 -0.5222 -0.6297  0.4875
 8489TIP3   OH246957   5.071   1.574  13.524  0.0366 -0.3988  0.5025
 8489TIP3    H146958   5.011   1.626  13.578 -0.0580 -0.5045  0.5001
 8489TIP3    H246959   5.040   1.587  13.434 -1.0277 -1.7666  0.6270
 8490TIP3   OH246960   6.332   0.552  12.772  0.2177  0.0920 -0.1114
 8490TIP3    H146961   6.421   0.522  12.790 -0.0555 -0.5838  0.1028
 8490TIP3    H246962   6.277   0.476  12.786 -0.6598  1.0318  1.9285
 8491TIP3   OH246963   5.567   0.386   1.682  0.0378  0.1971 -0.4455
 8491TIP3    H146964   5.550   0.299   1.717 -0.0047  0.1390 -0.6110
 8491TIP3    H246965   5.479   0.424   1.670  0.0643  0.4110 -0.0004
 8492TIP3   OH246966   4.852   6.440  10.442  0.5104 -0.1702  0.7606
 8492TIP3    H146967   4.841   6.353  10.404  1.0170 -0.0777  0.3891
 8492TIP3    H246968   4.767   6.483  10.430  0.1480 -0.7277  1.2640
 8493TIP3   OH246969   4.773   0.622  10.998  0.0699  0.3904  0.5591
 8493TIP3    H146970   4.806   0.653  11.082  2.1910 -2.0048  0.7207
 8493TIP3    H246971   4.850   0.587  10.953 -1.4962 -1.0958 -1.1328
 8494TIP3   OH246972   0.667   5.234  15.614  0.0810  0.3432 -0.7520
 8494TIP3    H146973   0.706   5.199  15.534  2.0218  2.1506 -0.6829
 8494TIP3    H246974   0.717   5.193  15.685  0.0010  0.6211 -0.5341
 8495TIP3   OH246975   2.625   6.454  12.664 -0.3084 -0.1149 -0.5303
 8495TIP3    H146976   2.643   6.547  12.650  0.4977 -0.3790 -1.3574
 8495TIP3    H246977   2.688   6.427  12.731  0.6375 -0.4469 -1.5380
 8496TIP3   OH246978   5.936   0.152  13.753 -0.0983  0.4993  0.2083
 8496TIP3    H146979   5.868   0.089  13.778  0.4183 -0.2674 -0.2884
 8496TIP3    H246980   6.016   0.117  13.791  0.3235  0.4567 -0.6985
 8497TIP3   OH246981   4.523   5.202  12.692 -0.4424 -0.3583 -0.6324
 8497TIP3    H146982   4.468   5.262  12.642 -0.1412  0.0317 -0.5140
 8497TIP3    H246983   4.462   5.142  12.734 -1.1812  2.2152  2.4133
 8498TIP3   OH246984   3.059   0.290  14.038  0.4328  0.0834 -0.0939
 8498TIP3    H146985   3.146   0.309  14.073 -0.1322 -0.8721  2.0192
 8498TIP3    H246986   3.008   0.369  14.055  0.8765  0.6516 -1.3527
 8499TIP3   OH246987   0.952   2.527   5.184  0.4674  0.0946 -0.8654
 8499TIP3    H146988   1.032   2.545   5.133  0.7170  0.7661 -0.2453
 8499TIP3    H246989   0.922   2.613   5.213 -0.2310 -0.1976 -0.7021
 8500TIP3   OH246990   5.854   2.871   0.954  0.0117 -0.5767  0.1246
 8500TIP3    H146991   5.936   2.854   0.910  1.2188  0.9909  1.5906
 8500TIP3    H246992   5.849   2.804   1.022 -0.5313 -1.3800 -0.6890
 8501TIP3   OH246993   3.790   2.090   6.526 -0.1246  0.2044  0.3281
 8501TIP3    H146994   3.777   2.184   6.514  0.3686  0.1265 -0.9652
 8501TIP3    H246995   3.703   2.052   6.515 -0.1639  0.4276 -0.1594
 8502TIP3   OH246996   4.039   4.417  14.719 -0.0197 -0.1865  0.0401
 8502TIP3    H146997   3.978   4.460  14.779 -0.6277 -1.0516  0.0762
 8502TIP3    H246998   4.125   4.453  14.741  0.0821 -1.7394  2.7184
 8503TIP3   OH246999   1.370   1.032   5.448  0.6934  0.2627 -0.2964
 8503TIP3    H147000   1.278   1.023   5.424  0.9326  0.2918 -1.2794
 8503TIP3    H247001   1.396   0.944   5.476  0.3140  0.3080  0.2201
 8504TIP3   OH247002   0.280   4.794  13.367  0.0449  0.2019  0.1835
 8504TIP3    H147003   0.306   4.702  13.378 -1.5709 -0.2488  0.4780
 8504TIP3    H247004   0.362   4.840  13.352  0.7973 -1.4614 -1.1787
 8505TIP3   OH247005   5.073   5.174   3.187 -0.6627  0.5138  0.4015
 8505TIP3    H147006   5.138   5.225   3.235  0.6466 -0.6593 -0.0812
 8505TIP3    H247007   5.012   5.144   3.254  0.0146  0.5573  1.0430
 8506TIP3   OH247008   3.092   4.666   5.064  0.6043  0.1110  0.9068
 8506TIP3    H147009   3.119   4.742   5.116  2.2965  1.0784 -1.2280
 8506TIP3    H247010   3.152   4.596   5.091  1.4793  0.6100  0.3056
 8507TIP3   OH247011   0.651   0.626  13.170 -0.4143  0.4404  0.6880
 8507TIP3    H147012   0.718   0.557  13.176 -1.3820 -0.6750 -0.6782
 8507TIP3    H247013   0.695   0.698  13.126  0.0057 -0.1249  0.1648
 8508TIP3   OH247014   2.735   5.296  13.541  0.2262 -0.1940  0.0718
 8508TIP3    H147015   2.644   5.267  13.547 -0.2666  1.3234  0.3420
 8508TIP3    H247016   2.781   5.247  13.609 -0.3103 -1.2046 -0.2740
 8509TIP3   OH247017   1.672   2.072   4.369 -0.0965 -0.2702  0.1852
 8509TIP3    H147018   1.767   2.070   4.354  0.0561 -0.1964  1.0653
 8509TIP3    H247019   1.661   2.131   4.444 -0.8308 -0.3444  0.1433
 8510TIP3   OH247020   3.135   2.619   5.209  0.7431 -0.3270 -0.5458
 8510TIP3    H147021   3.106   2.710   5.216  0.9792 -0.3129  0.4392
 8510TIP3    H247022   3.059   2.572   5.174 -0.0518 -0.0658  0.7488
 8511TIP3   OH247023   5.072   6.276  11.825 -0.3783  0.2256  0.5065
 8511TIP3    H147024   5.036   6.356  11.787 -0.0036  0.5949  0.9097
 8511TIP3    H247025   5.015   6.206  11.795  0.2255  0.4266 -1.2143
 8512TIP3   OH247026   6.303   3.291  13.709  0.3531  0.2368  0.1645
 8512TIP3    H147027   6.310   3.370  13.656 -2.5217  1.4312  1.3464
 8512TIP3    H247028   6.261   3.227  13.652 -1.1530  0.9670  0.4016
 8513TIP3   OH247029   0.327   4.414  15.703 -0.0700  0.0265 -0.3696
 8513TIP3    H147030   0.315   4.476  15.775 -2.6596  0.8604 -1.3944
 8513TIP3    H247031   0.411   4.439  15.664 -0.4803  2.1818 -0.0355
 8514TIP3   OH247032   2.464   6.438   4.091  0.1410 -0.6725 -0.4251
 8514TIP3    H147033   2.396   6.469   4.031  1.1860  0.1420 -1.2254
 8514TIP3    H247034   2.474   6.507   4.156 -1.3196 -1.7548  1.0368
 8515TIP3   OH247035   5.835   1.568   3.310 -0.1906  0.3674 -0.0389
 8515TIP3    H147036   5.768   1.603   3.367  1.1898  1.3126  1.0777
 8515TIP3    H247037   5.832   1.623   3.232 -1.9702 -0.8243 -0.8726
 8516TIP3   OH247038   0.839   0.250   0.732  0.0579 -0.6285 -0.2626
 8516TIP3    H147039   0.908   0.216   0.790  0.9431  0.8166 -0.4088
 8516TIP3    H247040   0.828   0.341   0.760 -1.2669 -0.6190 -0.7600
 8517TIP3   OH247041   2.148   6.793   2.244 -0.1361  0.5222  0.1660
 8517TIP3    H147042   2.192   6.719   2.202 -0.9265  0.3978 -0.4673
 8517TIP3    H247043   2.219   6.852   2.269  0.4798 -0.2915  0.3795
 8518TIP3   OH247044   2.379   1.736   0.886 -0.2771  0.1658  0.5525
 8518TIP3    H147045   2.419   1.823   0.892  2.6038 -1.0883  0.9064
 8518TIP3    H247046   2.365   1.711   0.978 -2.1142  0.6118  0.4390
 8519TIP3   OH247047   6.481   1.028  12.349  0.6837 -0.9280  0.1945
 8519TIP3    H147048   6.525   1.112  12.352 -1.1455  0.0950  0.1627
 8519TIP3    H247049   6.457   1.016  12.257 -0.2804 -0.7859  0.4149
 8520TIP3   OH247050   2.525   4.982  13.467  0.1974  0.0362  0.0588
 8520TIP3    H147051   2.537   4.901  13.517  2.1871  0.2036 -0.0529
 8520TIP3    H247052   2.611   4.998  13.428 -0.4077  1.7393 -0.6464
 8521TIP3   OH247053   5.558   0.225  12.061 -0.2462  0.1264 -0.6176
 8521TIP3    H147054   5.467   0.232  12.032  0.2494  1.8619 -1.9596
 8521TIP3    H247055   5.604   0.186  11.987 -0.1476 -2.5273  0.7502
 8522TIP3   OH247056   0.029   5.247   4.347 -0.2543 -0.5280  0.4396
 8522TIP3    H147057  -0.001   5.255   4.257 -0.0792 -2.0381  0.2303
 8522TIP3    H247058   0.111   5.295   4.350  1.2797 -2.8709 -0.9997
 8523TIP3   OH247059   3.659   0.525   3.804  0.7225  0.5271  0.4594
 8523TIP3    H147060   3.658   0.605   3.855  0.9274  0.2061  0.9718
 8523TIP3    H247061   3.712   0.546   3.727 -0.6077  1.3847 -0.2442
 8524TIP3   OH247062   4.642   0.021  12.754 -0.0094 -0.2860 -0.0169
 8524TIP3    H147063   4.661  -0.071  12.736  0.4788  0.0245 -1.2024
 8524TIP3    H247064   4.611   0.056  12.671 -0.5695  0.5336  0.5215
 8525TIP3   OH247065   0.355   4.980   3.416 -0.3573 -0.0641 -0.0308
 8525TIP3    H147066   0.361   5.068   3.452 -1.1049  0.4247 -1.0411
 8525TIP3    H247067   0.287   4.986   3.349 -0.2160 -1.3422 -0.3187
 8526TIP3   OH247068   1.856   3.865  12.928 -0.2651 -0.3376 -1.1805
 8526TIP3    H147069   1.932   3.893  12.979 -0.2357 -1.4434 -0.6014
 8526TIP3    H247070   1.893   3.836  12.844 -0.2797  1.1319 -1.7212
 8527TIP3   OH247071   4.849   2.250   1.069 -0.7056 -0.0744 -0.3834
 8527TIP3    H147072   4.789   2.175   1.068 -2.0715  0.9494 -3.1229
 8527TIP3    H247073   4.795   2.325   1.045  0.8139  1.7250  1.3932
 8528TIP3   OH247074   2.105   4.309  14.125 -0.1116 -0.1374  0.5292
 8528TIP3    H147075   2.056   4.391  14.116 -1.9815 -1.2990 -0.6838
 8528TIP3    H247076   2.040   4.246  14.155  1.2902 -1.2077  1.4493
 8529TIP3   OH247077   0.267   4.141  13.183 -0.6640  0.3942  0.2915
 8529TIP3    H147078   0.253   4.211  13.119 -1.5857 -0.6605 -0.7051
 8529TIP3    H247079   0.352   4.103  13.159 -1.0333 -0.0347 -0.3557
 8530TIP3   OH247080   0.296   4.645  12.832  0.2894 -0.2163  0.8838
 8530TIP3    H147081   0.388   4.672  12.833 -0.3443  2.1540  1.8874
 8530TIP3    H247082   0.277   4.620  12.923  0.3388 -2.4271  0.3477
 8531TIP3   OH247083   3.164   3.737   4.328 -0.1513  0.3671 -0.2018
 8531TIP3    H147084   3.169   3.708   4.237 -3.5549 -0.2651 -0.3436
 8531TIP3    H247085   3.237   3.694   4.372  2.1115  1.3922 -2.7324
 8532TIP3   OH247086   1.250   1.818   0.715 -0.5979  0.1892  0.0005
 8532TIP3    H147087   1.220   1.730   0.693  0.1461 -0.1922  0.4664
 8532TIP3    H247088   1.245   1.822   0.811 -2.0278  1.1775 -0.0824
 8533TIP3   OH247089   3.181   4.951  14.477 -0.7749 -0.1036 -0.3478
 8533TIP3    H147090   3.246   4.937  14.409  0.8567  0.3631  1.0554
 8533TIP3    H247091   3.185   4.873  14.531  0.1923  0.8223  0.9724
 8534TIP3   OH247092   2.135   3.627   3.484 -0.0284  0.0140 -0.0498
 8534TIP3    H147093   2.050   3.600   3.519 -0.3992 -0.5142 -1.2947
 8534TIP3    H247094   2.156   3.561   3.417  1.9849 -0.6096  1.0966
 8535TIP3   OH247095   0.460   3.954  10.613 -0.0330  0.1663 -0.1598
 8535TIP3    H147096   0.367   3.973  10.609 -0.0367 -0.0556 -1.5970
 8535TIP3    H247097   0.480   3.911  10.530  1.0180 -1.3471  0.8160
 8536TIP3   OH247098   3.572   2.956   4.929  0.3092  0.5675 -0.0592
 8536TIP3    H147099   3.544   2.892   4.863  1.0134 -1.7200  1.7488
 8536TIP3    H247100   3.580   3.038   4.880 -0.6796 -0.6665 -2.4828
 8537TIP3   OH247101   6.035   0.685  13.164 -0.2142  0.1531 -0.8535
 8537TIP3    H147102   6.114   0.724  13.204  0.3091 -0.8711 -0.8652
 8537TIP3    H247103   6.052   0.690  13.070  0.6031 -1.5496 -0.8354
 8538TIP3   OH247104   0.388   1.428   1.646  0.1693  0.0696 -0.2947
 8538TIP3    H147105   0.366   1.429   1.739  2.4120  2.4259  0.3407
 8538TIP3    H247106   0.426   1.341   1.632 -0.7873 -0.5571  0.8158
 8539TIP3   OH247107   5.901   3.244  10.649  0.4585 -0.5413 -0.4309
 8539TIP3    H147108   5.925   3.163  10.604 -0.2108 -1.0666  0.1308
 8539TIP3    H247109   5.847   3.291  10.586  0.0666 -0.9753 -0.4283
 8540TIP3   OH247110   1.254   1.372   5.005  0.3194 -0.5284 -0.3979
 8540TIP3    H147111   1.235   1.464   5.026  0.2536 -0.5075 -0.5491
 8540TIP3    H247112   1.173   1.325   5.026  0.5140 -0.6300  0.1563
 8541TIP3   OH247113   5.502   3.247  16.238  0.6398  0.4204  0.0221
 8541TIP3    H147114   5.474   3.222  16.150 -0.6745  0.9303  0.2750
 8541TIP3    H247115   5.422   3.244  16.290  1.4625 -0.1851  1.2800
 8542TIP3   OH247116   5.193   4.825  12.054  0.0034 -0.0391  0.2092
 8542TIP3    H147117   5.146   4.856  11.976  0.9096  1.4465  0.2059
 8542TIP3    H247118   5.240   4.747  12.024  2.0657  1.6703 -1.4361
 8543TIP3   OH247119   4.190   0.579   2.884 -0.3516  0.3122  0.4443
 8543TIP3    H147120   4.284   0.595   2.882  0.7201 -4.3704  0.3505
 8543TIP3    H247121   4.160   0.598   2.795  0.7660  0.7237  0.1419
 8544TIP3   OH247122   3.658   6.513   3.178 -0.0725 -0.1463  0.1899
 8544TIP3    H147123   3.572   6.477   3.158  0.6111 -1.9158  0.2602
 8544TIP3    H247124   3.683   6.562   3.100 -0.9361  0.0043  0.0005
 8545TIP3   OH247125   3.462   4.133   4.907  0.1567  0.2238  0.5367
 8545TIP3    H147126   3.448   4.170   4.995 -0.0945  2.4928 -0.3873
 8545TIP3    H247127   3.527   4.064   4.920  0.1659  0.5378  2.4866
 8546TIP3   OH247128   2.253   0.260  17.224  0.3101  0.1551 -0.1420
 8546TIP3    H147129   2.296   0.246  17.140  1.4192 -0.6069  0.5199
 8546TIP3    H247130   2.172   0.305  17.203 -0.4623 -1.8729 -1.8482
 8547TIP3   OH247131   6.351   0.342  15.234  0.3114  0.3150 -0.5018
 8547TIP3    H147132   6.298   0.359  15.312 -0.2071  1.5091 -1.0915
 8547TIP3    H247133   6.329   0.252  15.209  1.0458 -0.3782  1.1336
 8548TIP3   OH247134   4.895   4.004   0.185 -0.5261 -0.3949  0.0381
 8548TIP3    H147135   4.812   3.964   0.209 -1.3101  1.2518  0.2397
 8548TIP3    H247136   4.957   3.931   0.179 -1.7423 -1.5395  0.9090
 8549TIP3   OH247137   5.287   2.628  16.030  0.5923  0.7184 -0.1275
 8549TIP3    H147138   5.283   2.671  15.945  0.3089 -1.3952 -1.2505
 8549TIP3    H247139   5.345   2.553  16.017 -1.9832 -1.5843  0.5274
 8550TIP3   OH247140   0.539   0.491   4.015  0.0947  0.1270 -0.5392
 8550TIP3    H147141   0.476   0.420   4.021  0.1547  0.1394  4.1152
 8550TIP3    H247142   0.621   0.450   3.989 -0.1731 -1.3778  0.8360
 8551TIP3   OH247143   2.775   0.918   3.072  0.1111 -0.3596  0.0106
 8551TIP3    H147144   2.736   0.841   3.114  0.2018 -0.1475  0.4901
 8551TIP3    H247145   2.869   0.900   3.072  0.1961  0.0463  0.7416
 8552TIP3   OH247146   0.383   6.187  14.211  0.2635  0.2349 -0.3732
 8552TIP3    H147147   0.422   6.213  14.128  0.1000  1.4989 -0.0814
 8552TIP3    H247148   0.455   6.189  14.274  0.0931  0.8341 -0.1858
 8553TIP3   OH247149   0.049   3.554  12.814  0.4705  0.1987  0.5108
 8553TIP3    H147150   0.086   3.636  12.847  2.3382 -0.4172  0.0314
 8553TIP3    H247151   0.001   3.580  12.735  1.4008  0.7860  0.1300
 8554TIP3   OH247152   0.683   6.104  13.135  0.1155  0.3602 -0.0053
 8554TIP3    H147153   0.620   6.048  13.089 -1.9385  0.1872  2.7428
 8554TIP3    H247154   0.710   6.051  13.211 -0.5053  2.3183  1.6834
 8555TIP3   OH247155   0.527   2.927   6.135  0.3528  0.0636  0.8109
 8555TIP3    H147156   0.563   2.898   6.219 -0.5322 -1.5564  0.6840
 8555TIP3    H247157   0.568   2.870   6.070  0.5674  0.8947  0.2015
 8556TIP3   OH247158   2.254   3.419  16.280 -0.7129  0.1510 -0.0822
 8556TIP3    H147159   2.265   3.331  16.244 -1.3860  0.3724 -0.8576
 8556TIP3    H247160   2.167   3.418  16.319 -0.3458  0.1936  0.7641
 8557TIP3   OH247161   3.649   5.577   2.425  0.4646  0.1488  0.1545
 8557TIP3    H147162   3.645   5.668   2.454 -0.4199  0.1536  0.0245
 8557TIP3    H247163   3.561   5.557   2.394  0.8993 -0.4537 -0.7340
 8558TIP3   OH247164   5.468   4.437   0.924 -0.0651 -0.2128 -0.0660
 8558TIP3    H147165   5.393   4.410   0.978  0.2021 -0.7553  0.0377
 8558TIP3    H247166   5.545   4.416   0.978  0.2087 -0.8300 -0.6932
 8559TIP3   OH247167   4.999   6.815   2.341 -0.3826  0.3559 -0.2482
 8559TIP3    H147168   5.038   6.776   2.264 -1.0181  1.2634 -1.0568
 8559TIP3    H247169   4.934   6.751   2.371  0.4446 -0.3602  0.0403
 8560TIP3   OH247170   6.037   2.821   5.614 -0.2951  0.3591 -0.3631
 8560TIP3    H147171   5.956   2.842   5.660  1.3568  0.4453  2.8145
 8560TIP3    H247172   6.102   2.880   5.651  0.9964  1.5683 -4.0958
 8561TIP3   OH247173   4.695   2.717  15.428 -0.5864  0.0608 -0.3267
 8561TIP3    H147174   4.654   2.683  15.349 -0.4944  1.0048 -0.7950
 8561TIP3    H247175   4.740   2.797  15.399 -0.4456  0.3473  0.6513
 8562TIP3   OH247176   4.452   5.733  14.711 -0.2495  0.1688  0.5324
 8562TIP3    H147177   4.460   5.815  14.758  1.3025 -0.6935  1.8425
 8562TIP3    H247178   4.468   5.665  14.777 -0.5020 -1.1644 -0.7202
 8563TIP3   OH247179   0.119   5.100  14.099 -0.0302 -0.0304  0.0563
 8563TIP3    H147180   0.118   5.012  14.137  0.0411  0.1616  0.5141
 8563TIP3    H247181   0.195   5.099  14.041 -0.1656 -0.3435 -0.1196
 8564TIP3   OH247182   4.008   0.463   0.445  0.3285 -0.6215 -0.1439
 8564TIP3    H147183   3.928   0.465   0.498  0.1305  0.1269 -0.4674
 8564TIP3    H247184   3.983   0.413   0.367 -0.2079  0.7050 -0.8427
 8565TIP3   OH247185   0.557   5.427  13.890 -0.0418 -0.2436 -0.1874
 8565TIP3    H147186   0.636   5.444  13.940 -0.5950 -0.6444  0.8543
 8565TIP3    H247187   0.550   5.502  13.830  1.2302 -0.3213 -0.4517
 8566TIP3   OH247188   6.156   2.572   5.694  0.0778  0.4286  0.3023
 8566TIP3    H147189   6.119   2.519   5.764 -0.1803 -1.1103 -0.9457
 8566TIP3    H247190   6.088   2.636   5.674  0.0999  0.7993  1.3368
 8567TIP3   OH247191   3.248   0.999  13.995  0.1157  0.2822  0.4899
 8567TIP3    H147192   3.199   0.997  13.913 -0.5115  1.4502  0.8135
 8567TIP3    H247193   3.198   0.944  14.055 -0.4870  0.9861  0.6428
 8568TIP3   OH247194   4.177   3.134  15.790  0.0711  0.0774  0.0010
 8568TIP3    H147195   4.216   3.111  15.874  4.3340  1.0625 -1.4718
 8568TIP3    H247196   4.147   3.050  15.753  1.7601 -0.9712  0.8915
 8569TIP3   OH247197   3.037   5.382   2.653  0.1868 -0.8535  0.0641
 8569TIP3    H147198   3.125   5.358   2.681  0.8803 -0.2328 -1.4757
 8569TIP3    H247199   3.022   5.329   2.574 -0.2004  0.1534 -0.5568
 8570TIP3   OH247200   2.742   0.784   5.246  0.4391  0.0914 -0.0105
 8570TIP3    H147201   2.776   0.750   5.328  0.9543  1.4571  0.3787
 8570TIP3    H247202   2.673   0.845   5.272  0.1443  0.0292 -0.6286
 8571TIP3   OH247203   6.166   5.922   4.618  0.0879  0.2978  0.0551
 8571TIP3    H147204   6.092   5.902   4.561 -0.3849  0.0199  0.7489
 8571TIP3    H247205   6.138   5.891   4.705  0.3979  1.5756  0.6325
 8572TIP3   OH247206   5.679   0.118   1.929  0.0236  0.2610  0.1941
 8572TIP3    H147207   5.742   0.169   1.877 -0.8166  0.9516 -0.1691
 8572TIP3    H247208   5.683   0.156   2.016  0.9022 -0.4245  0.4758
 8573TIP3   OH247209   6.143   1.783   6.477  0.6633 -0.2125 -0.2012
 8573TIP3    H147210   6.058   1.804   6.515 -0.1380  0.7747 -2.3834
 8573TIP3    H247211   6.161   1.693   6.506 -0.1765  0.2385  1.8607
 8574TIP3   OH247212   0.505   3.432   2.983 -0.3141 -0.7575  0.1855
 8574TIP3    H147213   0.483   3.378   3.059  1.3967 -1.0171  0.5320
 8574TIP3    H247214   0.463   3.517   3.001 -0.4559 -1.0097  1.1156
 8575TIP3   OH247215   2.149   5.309  13.756 -0.2402 -0.2501 -0.9531
 8575TIP3    H147216   2.100   5.291  13.836  0.8467 -3.2202 -0.8283
 8575TIP3    H247217   2.151   5.404  13.750 -0.9711  0.0607  2.1425
 8576TIP3   OH247218   2.657   4.164  13.390 -0.3828 -0.1369  0.4791
 8576TIP3    H147219   2.702   4.129  13.467 -2.8892 -2.6752  0.9315
 8576TIP3    H247220   2.698   4.118  13.316 -0.4976 -0.4966  0.6390
 8577TIP3   OH247221   1.745   5.722  16.173 -0.0550 -0.3060 -0.0100
 8577TIP3    H147222   1.717   5.809  16.146 -0.9598 -1.0932 -1.7449
 8577TIP3    H247223   1.840   5.730  16.184 -0.0749  0.7958 -0.5282
 8578TIP3   OH247224   0.684   1.651   3.043  0.2563 -0.1020  0.2198
 8578TIP3    H147225   0.591   1.645   3.019 -0.2340 -0.7810  2.1006
 8578TIP3    H247226   0.698   1.743   3.063  0.1160  0.0815 -0.4917
 8579TIP3   OH247227   4.769   2.771  13.956  0.0795 -0.6533 -0.2882
 8579TIP3    H147228   4.716   2.700  13.993 -0.7415 -0.2618 -0.6884
 8579TIP3    H247229   4.848   2.772  14.010 -0.0792 -1.5980 -0.0163
 8580TIP3   OH247230   0.845   2.681   2.983 -0.1756  0.1182 -0.1353
 8580TIP3    H147231   0.810   2.717   2.902 -0.8599 -2.1837 -0.9425
 8580TIP3    H247232   0.938   2.699   2.979 -0.3128  0.6914 -1.0672
 8581TIP3   OH247233   1.160   5.730  17.125  0.1246  0.2189 -0.0929
 8581TIP3    H147234   1.150   5.816  17.166  2.4422  0.1791  0.7239
 8581TIP3    H247235   1.148   5.668  17.198 -2.6326 -0.3000 -0.8685
 8582TIP3   OH247236   5.140   0.528   5.460  0.1507  0.5123  0.0054
 8582TIP3    H147237   5.177   0.555   5.543  1.6275  1.5752 -0.9472
 8582TIP3    H247238   5.093   0.446   5.479  1.4870  0.0853  1.6250
 8583TIP3   OH247239   6.174   0.185  12.963 -0.2077  0.5971 -0.3666
 8583TIP3    H147240   6.214   0.123  13.024 -0.9983  0.5271  0.0969
 8583TIP3    H247241   6.091   0.144  12.939 -0.2874  1.0193 -0.8315
 8584TIP3   OH247242   6.072   3.178  12.350 -0.3172 -0.1755 -0.3744
 8584TIP3    H147243   5.994   3.223  12.317  0.2978  2.1112  1.0908
 8584TIP3    H247244   6.039   3.118  12.416 -0.9483  0.0723 -0.4537
 8585TIP3   OH247245   0.836   5.821   2.867  0.0933 -0.0503 -0.3627
 8585TIP3    H147246   0.908   5.819   2.804  1.7943 -0.7934  1.5243
 8585TIP3    H247247   0.822   5.914   2.884  0.7494  0.0982 -0.6014
 8586TIP3   OH247248   5.345   6.468  13.864  0.2411  0.4574 -0.3983
 8586TIP3    H147249   5.347   6.550  13.814  1.7863  0.2725 -0.7031
 8586TIP3    H247250   5.317   6.403  13.801  1.6664  0.3174 -0.9300
 8587TIP3   OH247251   0.225   0.858   0.553 -0.2995  0.2959 -0.4681
 8587TIP3    H147252   0.225   0.770   0.593  0.4104  0.7031  0.4709
 8587TIP3    H247253   0.168   0.849   0.477  0.1038 -1.1023 -0.6439
 8588TIP3   OH247254   0.514   6.224   2.131 -0.1784  0.3198 -0.1845
 8588TIP3    H147255   0.513   6.136   2.094  1.0126 -0.7425  2.0707
 8588TIP3    H247256   0.546   6.280   2.060  1.6337 -1.5280 -0.9346
 8589TIP3   OH247257   1.615   1.313  13.529  0.5268  0.1494 -0.1424
 8589TIP3    H147258   1.659   1.284  13.608  0.2546 -0.8659 -0.3478
 8589TIP3    H247259   1.686   1.345  13.472  1.3348 -3.2947 -1.2711
 8590TIP3   OH247260   0.497   2.854   4.995 -0.3283  0.1399  0.5266
 8590TIP3    H147261   0.414   2.856   4.948  1.1091 -0.4647 -2.2999
 8590TIP3    H247262   0.491   2.777   5.052 -2.9684  2.1367  3.1790
 8591TIP3   OH247263   2.968   0.216   4.138  0.0391  0.0558 -0.1167
 8591TIP3    H147264   3.021   0.139   4.157 -1.5765 -0.6410  1.9815
 8591TIP3    H247265   2.948   0.209   4.044  1.2641 -1.1834 -0.3034
 8592TIP3   OH247266   2.142   3.450   0.810  0.4916 -0.5835  0.3880
 8592TIP3    H147267   2.169   3.510   0.880 -1.7648  1.8697 -0.6367
 8592TIP3    H247268   2.095   3.380   0.854  0.0410  0.3585  1.4530
 8593TIP3   OH247269   4.025   4.450  14.111 -0.0698  0.4445  0.5695
 8593TIP3    H147270   3.968   4.382  14.149 -1.5043 -0.3573 -2.6515
 8593TIP3    H247271   4.113   4.413  14.118 -0.7031 -1.3209 -0.1349
 8594TIP3   OH247272   1.322   4.001  15.754 -1.0414  0.6538 -0.0616
 8594TIP3    H147273   1.339   4.095  15.754  0.8723  0.3540  1.0512
 8594TIP3    H247274   1.247   3.990  15.812  0.4924  1.2841  2.1724
 8595TIP3   OH247275   1.175   0.712  11.300  0.2665  0.5372  0.2315
 8595TIP3    H147276   1.098   0.697  11.245 -0.3147  1.5325  0.7361
 8595TIP3    H247277   1.241   0.651  11.267 -0.4435  0.3052 -0.8001
 8596TIP3   OH247278   0.913   5.371   2.621 -0.3941  0.2223  0.3597
 8596TIP3    H147279   0.868   5.287   2.612  0.9475 -0.4564 -0.3801
 8596TIP3    H247280   0.853   5.435   2.584 -1.1316 -0.5208  0.2356
 8597TIP3   OH247281   3.311   0.595  13.886  0.6234 -0.1359 -0.2882
 8597TIP3    H147282   3.221   0.596  13.853 -0.1589  0.9064  1.6773
 8597TIP3    H247283   3.359   0.653  13.826 -0.2255  0.0308 -0.8298
 8598TIP3   OH247284   1.450   1.956  15.149  0.6353 -0.2201 -0.2559
 8598TIP3    H147285   1.415   2.007  15.076 -2.9558 -2.1658 -0.1428
 8598TIP3    H247286   1.545   1.960  15.138  0.3251  1.3144 -3.7825
 8599TIP3   OH247287   0.225   3.168   3.441  0.2043 -0.3115 -0.3006
 8599TIP3    H147288   0.243   3.221   3.363 -2.1688  1.8369  0.4665
 8599TIP3    H247289   0.224   3.232   3.513  1.3006 -2.0660  1.3812
 8600TIP3   OH247290   1.945   3.929  15.834  0.8082  0.5201  0.4070
 8600TIP3    H147291   2.037   3.954  15.829  0.8715  0.1720 -0.3520
 8600TIP3    H247292   1.897   4.012  15.824  0.9737  0.3581 -3.7607
 8601TIP3   OH247293   6.680   4.529   2.683  0.3115 -0.0109  0.6605
 8601TIP3    H147294   6.646   4.496   2.600 -1.5023  0.3045  1.2420
 8601TIP3    H247295   6.631   4.610   2.699  0.2877 -0.3148  2.2590
 8602TIP3   OH247296   5.696   5.810  13.261 -0.0806  0.0164  0.0759
 8602TIP3    H147297   5.785   5.836  13.237  0.5081 -2.2628 -0.5060
 8602TIP3    H247298   5.708   5.727  13.308 -1.8053  0.5256  1.5222
 8603TIP3   OH247299   6.627   3.238   1.181 -0.3160 -0.5350 -0.1167
 8603TIP3    H147300   6.673   3.316   1.151 -0.2644  0.0769  1.4626
 8603TIP3    H247301   6.543   3.270   1.212 -0.0595 -1.0045  1.1012
 8604TIP3   OH247302   3.726   5.811  14.515 -0.6031  0.0577 -0.5541
 8604TIP3    H147303   3.750   5.878  14.451  2.5134  0.0964  0.4783
 8604TIP3    H247304   3.768   5.731  14.482 -2.5292 -0.9468 -0.6893
 8605TIP3   OH247305   4.169   0.917  16.880  0.2223  0.3554 -0.4273
 8605TIP3    H147306   4.143   0.851  16.945  0.4630  1.0741  0.4131
 8605TIP3    H247307   4.132   0.999  16.912 -0.0274  0.6524 -1.4379
 8606TIP3   OH247308   3.325   4.359   2.555 -0.0131 -0.2322 -0.5005
 8606TIP3    H147309   3.359   4.388   2.640 -0.6802 -0.6880 -0.0567
 8606TIP3    H247310   3.402   4.349   2.500  0.3967  0.4656 -0.0678
 8607TIP3   OH247311   5.282   2.184   6.612 -0.2176  0.4691 -0.2397
 8607TIP3    H147312   5.307   2.161   6.523 -0.9176  0.2242 -0.3820
 8607TIP3    H247313   5.218   2.118   6.637 -0.5363  0.9321  0.1958
 8608TIP3   OH247314   5.069   0.808  13.415 -0.8272  0.2787  0.3923
 8608TIP3    H147315   5.127   0.748  13.462  0.5926  1.8183  0.7516
 8608TIP3    H247316   5.086   0.791  13.323  0.9726  1.2821  0.4696
 8609TIP3   OH247317   4.282   0.769   1.923 -0.0222  0.0494 -0.3677
 8609TIP3    H147318   4.255   0.687   1.963  1.7837 -0.6289 -0.4477
 8609TIP3    H247319   4.297   0.828   1.997 -1.0058  0.2304 -0.2957
 8610TIP3   OH247320   5.920   5.299  15.659  0.8651  0.2924  0.2188
 8610TIP3    H147321   5.980   5.228  15.634  1.1491  0.7574 -0.4459
 8610TIP3    H247322   5.834   5.268  15.630  1.1615  0.7405 -1.2267
 8611TIP3   OH247323   5.916   0.108   1.599 -0.6399  0.1226  0.5521
 8611TIP3    H147324   5.900   0.174   1.667 -0.0136  0.6359  0.2031
 8611TIP3    H247325   5.921   0.158   1.518 -1.0907 -0.4606  0.1540
 8612TIP3   OH247326   1.790   3.942  15.548 -0.3807 -0.0547 -0.3726
 8612TIP3    H147327   1.883   3.919  15.560  0.1677  2.2295  0.2026
 8612TIP3    H247328   1.750   3.924  15.633 -0.4130 -0.7265 -0.5224
 8613TIP3   OH247329   2.576   3.198   5.694  0.1229 -0.6088 -0.7672
 8613TIP3    H147330   2.609   3.152   5.616  0.9262 -4.3327  1.5287
 8613TIP3    H247331   2.654   3.214   5.747 -0.6434 -0.1435  0.2443
 8614TIP3   OH247332   3.097   6.155  15.105  0.2510 -0.1786  0.4904
 8614TIP3    H147333   3.033   6.103  15.057 -4.5387  2.8813  2.6717
 8614TIP3    H247334   3.091   6.123  15.195  0.1503  1.5236  1.1231
 8615TIP3   OH247335   6.132   2.200   1.088 -0.3933 -0.3648 -0.0083
 8615TIP3    H147336   6.120   2.284   1.133  0.3792  0.3508 -1.0724
 8615TIP3    H247337   6.064   2.200   1.021  1.2867  0.7246 -1.8163
 8616TIP3   OH247338   6.000   2.332   5.023 -0.2958 -0.1560  0.5254
 8616TIP3    H147339   5.910   2.308   5.002  0.0154 -1.2812  0.4406
 8616TIP3    H247340   6.054   2.266   4.979  0.6156  0.9927 -0.1590
 8617TIP3   OH247341   2.309   6.557  13.367  0.0186  0.3601  0.0541
 8617TIP3    H147342   2.277   6.513  13.288  1.7304  1.6236 -1.4309
 8617TIP3    H247343   2.284   6.499  13.439 -1.4011 -0.9579 -1.4245
 8618TIP3   OH247344   1.515   1.418   4.292  0.0270  0.0346 -0.0078
 8618TIP3    H147345   1.553   1.465   4.218  0.3003  0.0873  0.1649
 8618TIP3    H247346   1.559   1.454   4.369  0.5913 -0.8408  0.0897
 8619TIP3   OH247347   3.016   2.806   2.164 -0.2710 -0.2758  0.0269
 8619TIP3    H147348   3.062   2.825   2.082  2.3904  0.6562  1.6307
 8619TIP3    H247349   2.950   2.875   2.170  1.3813  1.3875 -0.0409
 8620TIP3   OH247350   0.114   0.571  11.835  0.9027 -0.5392 -0.2085
 8620TIP3    H147351   0.095   0.655  11.876 -0.4453 -1.2056  0.5819
 8620TIP3    H247352   0.037   0.553  11.781  1.9148 -0.4864 -1.7490
 8621TIP3   OH247353   4.464   6.001  13.738  0.1010 -0.5280 -0.0589
 8621TIP3    H147354   4.551   5.967  13.758  0.2040  0.6143  1.7793
 8621TIP3    H247355   4.404   5.933  13.770  0.3284 -0.0224  1.5725
 8622TIP3   OH247356   6.557   3.038  11.772  0.1749 -0.9735  0.7206
 8622TIP3    H147357   6.512   2.997  11.846  0.5818  1.1674  2.2714
 8622TIP3    H247358   6.628   2.978  11.750 -0.7562 -2.2868  1.1583
 8623TIP3   OH247359   2.936   3.632   6.509 -0.8165  0.3493  0.5596
 8623TIP3    H147360   2.871   3.586   6.562 -0.4574 -1.2435 -0.3275
 8623TIP3    H247361   3.010   3.572   6.503  0.2653  1.6322  0.5330
 8624TIP3   OH247362   5.719   4.896   3.909 -0.0862 -0.2178  0.1904
 8624TIP3    H147363   5.673   4.821   3.872 -0.0191 -0.0388 -0.2618
 8624TIP3    H247364   5.796   4.859   3.952  0.9946 -0.2485 -1.6861
 8625TIP3   OH247365   5.858   5.256  15.351 -0.0574 -0.9502 -0.3118
 8625TIP3    H147366   5.812   5.237  15.433 -1.2189  1.8490 -0.2041
 8625TIP3    H247367   5.948   5.229  15.367 -0.4141 -1.1773  1.5963
 8626TIP3   OH247368   3.376   1.743  16.152  0.4245  0.8499  0.5697
 8626TIP3    H147369   3.332   1.784  16.077  2.1346  0.6115 -0.6342
 8626TIP3    H247370   3.464   1.781  16.153  1.0633 -0.5330  1.2782
 8627TIP3   OH247371   6.173   4.921   4.825 -0.1006  0.0766  0.2900
 8627TIP3    H147372   6.140   5.010   4.812  0.6340  0.5571  1.5523
 8627TIP3    H247373   6.121   4.868   4.765  0.4127  1.5426 -1.5647
 8628TIP3   OH247374   4.123   6.159   4.743 -0.8298  0.0298 -0.2819
 8628TIP3    H147375   4.189   6.130   4.680 -0.1434 -1.0252  0.8637
 8628TIP3    H247376   4.161   6.239   4.781  0.2117 -0.9945  0.9309
 8629TIP3   OH247377   4.392   1.784   3.415  0.4548 -0.5418  0.0436
 8629TIP3    H147378   4.335   1.763   3.341  0.7996 -0.7977 -0.1528
 8629TIP3    H247379   4.465   1.723   3.407  1.2935  0.4673 -0.3317
 8630TIP3   OH247380   2.961   2.624   4.566 -0.0976  0.4463  0.3884
 8630TIP3    H147381   3.007   2.553   4.521 -0.2473  0.1694  0.6779
 8630TIP3    H247382   3.025   2.660   4.626 -0.9088 -1.4605  2.5335
 8631TIP3   OH247383   4.071   2.316   5.485 -0.5065  0.9375  0.0520
 8631TIP3    H147384   4.130   2.392   5.487 -1.8859  2.1333  3.8469
 8631TIP3    H247385   4.130   2.241   5.475  1.0148  2.3060 -2.4795
 8632TIP3   OH247386   1.057   5.157   4.307  0.4707 -0.3658  0.2131
 8632TIP3    H147387   1.012   5.080   4.342 -1.0920  0.7007  0.6389
 8632TIP3    H247388   1.100   5.125   4.227  0.9529 -1.9558  1.0653
 8633TIP3   OH247389   0.684   2.284   2.529  0.6942 -0.0215  0.2009
 8633TIP3    H147390   0.595   2.296   2.563 -0.0255 -3.0785 -0.3036
 8633TIP3    H247391   0.672   2.281   2.434  1.7889  2.1480 -0.0687
 8634TIP3   OH247392   0.699   5.901  10.518  0.5745 -0.3639  0.1638
 8634TIP3    H147393   0.749   5.980  10.541  0.2685 -0.4403  1.1172
 8634TIP3    H247394   0.649   5.880  10.597 -1.0150 -0.2633 -0.7646
 8635TIP3   OH247395   1.444   4.285  17.298 -0.1252 -0.0014  0.4321
 8635TIP3    H147396   1.508   4.226  17.336 -0.2714  0.4975  1.4793
 8635TIP3    H247397   1.374   4.228  17.266  0.4927 -0.4947 -0.0821
 8636TIP3   OH247398   5.939   3.504  13.430  0.0425 -0.3077 -0.0337
 8636TIP3    H147399   5.998   3.485  13.357  0.1427  0.3257 -0.1292
 8636TIP3    H247400   5.991   3.560  13.489 -1.0988  2.1267 -1.1875
 8637TIP3   OH247401   1.255   3.587   3.209 -0.1094  0.2038  0.3825
 8637TIP3    H147402   1.323   3.533   3.167  0.6682  1.2739  0.2079
 8637TIP3    H247403   1.180   3.528   3.219  0.5227 -0.7503 -0.2891
 8638TIP3   OH247404   4.837   2.972   0.373 -0.7924 -0.4839  0.5160
 8638TIP3    H147405   4.912   2.915   0.362 -2.5195 -2.6144 -0.9939
 8638TIP3    H247406   4.817   2.968   0.467  0.6935 -0.2009  0.8633
 8639TIP3   OH247407   2.898   1.050   5.186  0.0249 -0.5393 -0.3177
 8639TIP3    H147408   2.880   0.977   5.126 -1.1280  0.2693 -0.9889
 8639TIP3    H247409   2.839   1.120   5.157  2.4364  1.3739 -0.9380
 8640TIP3   OH247410   6.549   3.766  14.125 -0.2405 -0.0464  0.2077
 8640TIP3    H147411   6.636   3.805  14.123 -0.5034  0.5065 -0.9832
 8640TIP3    H247412   6.566   3.671  14.124  0.3481  0.0228  1.1808
 8641TIP3   OH247413   5.248   5.446  12.868  0.2557  0.7182  0.7296
 8641TIP3    H147414   5.287   5.391  12.936 -0.6051  0.0241  0.6941
 8641TIP3    H247415   5.211   5.383  12.805  1.5564  1.3249 -0.7200
 8642TIP3   OH247416   6.103   6.478   3.162 -0.0572  0.5328  0.1260
 8642TIP3    H147417   6.088   6.566   3.128  0.0163  0.7995  0.7661
 8642TIP3    H247418   6.032   6.426   3.127 -0.4600  0.9893  0.2511
 8643TIP3   OH247419   2.427   6.616  14.648  0.3973  0.2981 -0.1402
 8643TIP3    H147420   2.456   6.698  14.688  0.8810  0.1773 -0.2394
 8643TIP3    H247421   2.502   6.557  14.658 -0.8892 -1.0361  2.4709
 8644TIP3   OH247422   1.008   5.091   4.933 -0.5419  0.3118 -0.1257
 8644TIP3    H147423   1.030   5.175   4.973  0.3845  0.6989 -1.3774
 8644TIP3    H247424   1.076   5.077   4.867 -2.1187 -0.1601 -1.7465
 8645TIP3   OH247425   1.308   1.150   2.964  0.1541  0.3238 -0.1204
 8645TIP3    H147426   1.329   1.161   2.871  1.4645 -0.1968  0.0990
 8645TIP3    H247427   1.342   1.230   3.005  2.1758 -0.6792  0.2875
 8646TIP3   OH247428   0.841   2.391   2.925 -0.5448 -0.2564  0.6061
 8646TIP3    H147429   0.881   2.402   2.839 -2.1135 -1.8693 -0.3893
 8646TIP3    H247430   0.840   2.480   2.963  2.7117  0.0739  0.2125
 8647TIP3   OH247431   1.148   6.568   3.994 -0.2674 -0.3504 -0.2496
 8647TIP3    H147432   1.154   6.663   3.997  0.3008 -0.2564 -2.4428
 8647TIP3    H247433   1.236   6.539   3.971 -0.3245 -1.4669  0.8160
 8648TIP3   OH247434   5.391   5.297  15.432 -0.4926  0.0185  0.6915
 8648TIP3    H147435   5.324   5.363  15.446 -1.1000 -0.5865  0.7291
 8648TIP3    H247436   5.342   5.215  15.421  0.1761 -0.2661 -0.4050
 8649TIP3   OH247437   4.572   6.326   3.217  0.0452  0.4611  0.6500
 8649TIP3    H147438   4.530   6.412   3.228 -0.3310  0.3760 -0.0408
 8649TIP3    H247439   4.540   6.274   3.291 -0.6838  0.5538  0.4091
 8650TIP3   OH247440   3.369   6.150   3.313  0.7153  0.0630  0.1704
 8650TIP3    H147441   3.429   6.123   3.244 -2.0210 -0.1434 -2.3378
 8650TIP3    H247442   3.380   6.084   3.382  2.4742 -0.6290 -0.7176
 8651TIP3   OH247443   5.072   6.300  12.159 -0.5465 -0.0740  0.2543
 8651TIP3    H147444   5.003   6.363  12.181 -1.9751 -1.7160  0.7027
 8651TIP3    H247445   5.035   6.248  12.088  0.1418 -1.1073  0.6271
 8652TIP3   OH247446   0.183   6.664   2.887 -0.0292 -0.2831  0.1513
 8652TIP3    H147447   0.265   6.698   2.922  0.9156  1.2323 -3.1946
 8652TIP3    H247448   0.148   6.735   2.834 -1.5476 -2.1893 -1.5632
 8653TIP3   OH247449   6.331   0.144  12.225 -0.3219 -0.1865 -0.5049
 8653TIP3    H147450   6.402   0.126  12.287  0.3294  1.0265 -0.8522
 8653TIP3    H247451   6.274   0.205  12.272  0.2348  0.8299 -1.0870
 8654TIP3   OH247452   1.600   5.801   4.390 -0.2414  0.1998 -0.5512
 8654TIP3    H147453   1.670   5.753   4.436 -0.6679 -0.4883 -0.6022
 8654TIP3    H247454   1.636   5.888   4.375  1.1762 -0.5653 -1.8807
 8655TIP3   OH247455   2.230   6.308   4.789 -0.3599 -0.0328  0.1263
 8655TIP3    H147456   2.306   6.254   4.811 -0.6076 -0.2993  0.3382
 8655TIP3    H247457   2.227   6.375   4.857  0.4780  0.8118 -0.6360
 8656TIP3   OH247458   1.727   6.038  13.067 -0.0158  0.2358 -0.5053
 8656TIP3    H147459   1.802   5.996  13.109 -0.1847 -1.7310 -2.0011
 8656TIP3    H247460   1.753   6.129  13.057  0.6704  0.4096  2.2576
 8657TIP3   OH247461   1.358   2.297   3.667 -0.6444  0.1228 -0.4527
 8657TIP3    H147462   1.417   2.347   3.610 -0.5739  0.5969  0.0339
 8657TIP3    H247463   1.343   2.354   3.742 -0.3422 -0.7119  0.2444
 8658TIP3   OH247464   5.662   2.535   0.396 -0.0327 -0.3160 -0.1993
 8658TIP3    H147465   5.694   2.617   0.359  2.4413 -1.3257 -0.4856
 8658TIP3    H247466   5.624   2.488   0.321  1.4043 -0.7080 -0.7158
 8659TIP3   OH247467   3.724   0.439   0.522  0.6567  0.2200 -0.7093
 8659TIP3    H147468   3.677   0.426   0.604  1.4690 -1.5522 -0.4825
 8659TIP3    H247469   3.656   0.435   0.454  0.3104 -0.9587 -0.3030
 8660TIP3   OH247470   1.899   4.134   6.294 -0.0695 -0.1722 -0.1125
 8660TIP3    H147471   1.902   4.105   6.385 -2.4999 -0.9052 -0.1766
 8660TIP3    H247472   1.807   4.157   6.279  0.2950  0.1131 -2.3290
 8661TIP3   OH247473   6.441   0.959   0.266  0.0807  0.3441 -0.3561
 8661TIP3    H147474   6.456   1.006   0.184  0.4153  2.4817  0.8487
 8661TIP3    H247475   6.498   1.004   0.330 -1.2807 -0.2580  1.3628
 8662TIP3   OH247476   1.421   4.078   2.442 -0.5276 -0.5546  0.3100
 8662TIP3    H147477   1.491   4.119   2.492 -0.4995 -0.6271  0.3307
 8662TIP3    H247478   1.465   4.039   2.366 -0.2274 -2.4165  1.3834
 8663TIP3   OH247479   1.724   4.103   2.407 -0.2244 -0.4637  0.2896
 8663TIP3    H147480   1.729   4.140   2.496 -0.0835 -0.2112  0.1778
 8663TIP3    H247481   1.761   4.015   2.416 -0.1263 -0.4060  0.4638
 8664TIP3   OH247482   3.442   4.126  15.331  0.2678  0.0814 -0.1170
 8664TIP3    H147483   3.461   4.116  15.424  0.1851  1.1505  0.0260
 8664TIP3    H247484   3.503   4.193  15.301  0.0716 -0.0197 -0.7661
 8665TIP3   OH247485   0.540   1.984  11.775  0.2153  0.3746 -0.1002
 8665TIP3    H147486   0.630   2.017  11.764 -0.3073  2.0353  0.2692
 8665TIP3    H247487   0.485   2.061  11.762 -1.0089  0.0141  2.3124
 8666TIP3   OH247488   4.627   1.651  14.557 -0.0560 -0.7013 -0.3518
 8666TIP3    H147489   4.663   1.679  14.473 -0.0987  0.2818 -0.0521
 8666TIP3    H247490   4.602   1.559  14.543 -1.0296 -0.2618 -1.7230
 8667TIP3   OH247491   6.744   6.216   2.050 -1.1304 -0.0119  0.0088
 8667TIP3    H147492   6.685   6.283   2.084 -1.3360 -0.0130 -0.3414
 8667TIP3    H247493   6.802   6.262   1.990 -2.5588 -0.4477 -1.8100
 8668TIP3   OH247494   1.669   2.783   3.525 -0.2817  0.2704 -0.4083
 8668TIP3    H147495   1.669   2.878   3.514  0.7331  0.1744 -1.3516
 8668TIP3    H247496   1.723   2.750   3.454  0.8735 -0.9008  0.9557
 8669TIP3   OH247497   6.584   5.215   1.344  0.2838  0.6746  0.2997
 8669TIP3    H147498   6.593   5.144   1.407 -0.8419  1.8036  1.8341
 8669TIP3    H247499   6.503   5.259   1.369  0.1895  1.6499 -1.4913
 8670TIP3   OH247500   1.646   2.333   3.831  0.6214 -0.6358 -0.6666
 8670TIP3    H147501   1.605   2.358   3.914  1.4433 -0.1782 -0.3907
 8670TIP3    H247502   1.693   2.411   3.802  2.0376 -1.3962 -0.5190
 8671TIP3   OH247503   5.221   6.289  13.212  0.0985  0.3421  0.6003
 8671TIP3    H147504   5.260   6.272  13.126  0.7118 -0.7017  1.0738
 8671TIP3    H247505   5.128   6.301  13.194 -0.2089 -2.3005  0.0353
 8672TIP3   OH247506   4.798   2.518  13.538  0.6476  0.2664 -0.4669
 8672TIP3    H147507   4.772   2.568  13.460 -2.2814 -1.7360 -0.9384
 8672TIP3    H247508   4.764   2.570  13.611 -2.0202 -0.6829 -0.9298
 8673TIP3   OH247509   0.026   3.494   1.375 -0.3865 -0.4453  0.1404
 8673TIP3    H147510  -0.016   3.573   1.410 -4.1705 -1.4090 -1.6725
 8673TIP3    H247511  -0.014   3.422   1.423  1.1602 -1.3952  0.0611
 8674TIP3   OH247512   4.468   5.226  16.801 -0.1771 -0.2003  0.1214
 8674TIP3    H147513   4.447   5.176  16.722 -0.6837 -0.2044  0.2534
 8674TIP3    H247514   4.442   5.170  16.873  0.9238 -0.4805  0.3188
 8675TIP3   OH247515   0.768   5.245   2.968 -0.1739 -0.1139 -0.4158
 8675TIP3    H147516   0.705   5.243   2.895  0.2569 -2.3974 -0.7903
 8675TIP3    H247517   0.766   5.157   3.004 -1.6542  1.3397  3.5524
 8676TIP3   OH247518   5.214   0.712   3.870  0.6109 -0.2178  0.3567
 8676TIP3    H147519   5.128   0.745   3.897 -0.5733 -1.1967 -1.9056
 8676TIP3    H247520   5.251   0.781   3.815 -0.0844 -0.9493 -1.0817
 8677TIP3   OH247521   0.996   5.851  12.332 -0.1249  0.0772 -0.2175
 8677TIP3    H147522   0.939   5.824  12.403  0.6408 -1.1033 -0.0294
 8677TIP3    H247523   0.979   5.945  12.322  0.3508  0.4544  2.0648
 8678TIP3   OH247524   2.889   4.534   4.446  0.3088  0.4486 -0.0228
 8678TIP3    H147525   2.857   4.601   4.386  0.5196  1.2305  0.7157
 8678TIP3    H247526   2.910   4.582   4.526  1.9847 -0.2512  0.0015
 8679TIP3   OH247527   0.588   6.119  14.393 -0.0056 -0.0639 -0.1465
 8679TIP3    H147528   0.639   6.056  14.342  0.6372 -3.4427  4.0191
 8679TIP3    H247529   0.508   6.071  14.417  0.8664  0.1029  3.8838
 8680TIP3   OH247530   2.539   3.468   3.239 -0.0716  0.2081  0.6006
 8680TIP3    H147531   2.485   3.543   3.216 -0.3704 -0.0838  0.3437
 8680TIP3    H247532   2.501   3.435   3.320 -0.0408  0.2409  0.6280
 8681TIP3   OH247533   0.109   4.794   0.624  0.4641 -0.4857 -0.5067
 8681TIP3    H147534   0.164   4.870   0.607  0.1468 -0.5654 -2.0631
 8681TIP3    H247535   0.158   4.721   0.587  1.4586 -1.3559  2.2456
 8682TIP3   OH247536   0.445   4.484  14.137  0.4530 -0.1306 -0.1836
 8682TIP3    H147537   0.523   4.453  14.090 -1.1789 -2.5713 -1.4741
 8682TIP3    H247538   0.441   4.430  14.215  0.4551  0.5382  0.2900
 8683TIP3   OH247539   3.302   4.895   2.638 -0.3928  0.2827  0.1258
 8683TIP3    H147540   3.349   4.939   2.567  1.0344 -1.4611 -0.0985
 8683TIP3    H247541   3.345   4.927   2.718 -0.8303  0.9232  0.1131
 8684TIP3   OH247542   2.038   5.611  15.700 -0.0483 -0.0271 -0.3583
 8684TIP3    H147543   1.964   5.597  15.641  1.0143 -0.2777 -1.6546
 8684TIP3    H247544   2.031   5.540  15.764 -2.0508  1.0845  0.7487
 8685TIP3   OH247545   0.542   3.764  15.114  1.4827 -0.3449  0.1942
 8685TIP3    H147546   0.570   3.741  15.203  1.6335  1.1736  0.5627
 8685TIP3    H247547   0.548   3.859  15.111  1.6863 -0.3863 -1.5280
 8686TIP3   OH247548   0.862   5.908   3.760  0.0113 -0.1245 -0.0362
 8686TIP3    H147549   0.892   5.817   3.771  0.4124 -0.2118 -1.6442
 8686TIP3    H247550   0.943   5.960   3.764  0.2734 -0.2077 -2.7252
 8687TIP3   OH247551   2.241   5.610   6.496  0.0817 -0.6834  0.1873
 8687TIP3    H147552   2.283   5.558   6.564  0.5853  0.7120  0.9912
 8687TIP3    H247553   2.230   5.550   6.422  1.1591 -1.7626  0.8727
 8688TIP3   OH247554   5.825   0.870   2.948 -0.1929  0.6690 -0.1079
 8688TIP3    H147555   5.746   0.816   2.951  1.6134 -2.1598  0.2551
 8688TIP3    H247556   5.795   0.958   2.969 -3.4055 -0.0482 -1.2104
 8689TIP3   OH247557   4.883   4.574   3.113 -0.1280 -0.0384  0.1984
 8689TIP3    H147558   4.898   4.585   3.207 -2.1779  0.5717  0.4890
 8689TIP3    H247559   4.788   4.576   3.103  0.0474 -0.1749 -1.8938
 8690TIP3   OH247560   4.467   2.282  11.575 -0.1712  0.6272  0.0221
 8690TIP3    H147561   4.383   2.329  11.574  0.5608  1.9826  0.4944
 8690TIP3    H247562   4.503   2.298  11.662  1.8322  2.3951 -1.0431
 8691TIP3   OH247563   2.821   4.528   5.849  0.2394  0.3055  0.0250
 8691TIP3    H147564   2.883   4.531   5.776 -0.8854 -0.6168 -1.0097
 8691TIP3    H247565   2.851   4.597   5.908  0.4029  2.0417 -1.9620
 8692TIP3   OH247566   0.451   6.541  11.801 -0.2467  0.1079 -0.2388
 8692TIP3    H147567   0.475   6.631  11.824 -0.6285 -0.1129  1.0744
 8692TIP3    H247568   0.534   6.495  11.797 -0.0637  0.4628 -0.7373
 8693TIP3   OH247569   3.005   2.265  16.614 -0.4427 -0.0133  0.4904
 8693TIP3    H147570   3.012   2.238  16.522 -1.8642 -0.4597  0.4918
 8693TIP3    H247571   2.955   2.346  16.611 -0.2394  0.1250  0.8496
 8694TIP3   OH247572   5.154   4.710   5.942  0.0970 -0.1840  0.4631
 8694TIP3    H147573   5.135   4.760   6.021 -0.2866 -0.8135  0.7730
 8694TIP3    H247574   5.153   4.775   5.871  0.4647  0.3856  0.9691
 8695TIP3   OH247575   4.362   0.523  12.898 -1.0373 -0.2050  0.2355
 8695TIP3    H147576   4.348   0.442  12.947 -1.8551 -0.4618 -0.4030
 8695TIP3    H247577   4.382   0.588  12.966 -0.4325 -0.9182  0.7569
 8696TIP3   OH247578   0.865   3.244  13.127  0.1361 -0.7054  0.9082
 8696TIP3    H147579   0.783   3.280  13.161 -0.5722  0.0452 -1.3868
 8696TIP3    H247580   0.916   3.321  13.102 -0.2555 -1.1530 -1.5379
 8697TIP3   OH247581   5.829   5.513   0.532 -0.1483 -0.5384 -0.5448
 8697TIP3    H147582   5.882   5.592   0.542 -0.9218 -0.0383 -0.3193
 8697TIP3    H247583   5.887   5.442   0.562  0.2214  0.0541  0.1895
 8698TIP3   OH247584   6.562   5.376  14.628 -0.1845 -0.2440  0.0522
 8698TIP3    H147585   6.496   5.410  14.688 -0.8770  0.8969 -1.2820
 8698TIP3    H247586   6.630   5.443  14.627 -1.2657  0.9677 -2.1168
 8699TIP3   OH247587   2.446   1.397   0.590  0.0157  0.2142 -0.1898
 8699TIP3    H147588   2.483   1.356   0.512 -0.0255 -0.9661  0.3775
 8699TIP3    H247589   2.393   1.469   0.557  1.0015  0.5163 -1.1580
 8700TIP3   OH247590   1.379   6.773  11.435  0.3234  0.2158 -0.3657
 8700TIP3    H147591   1.409   6.813  11.353  0.4967 -1.6725 -1.2809
 8700TIP3    H247592   1.293   6.736  11.413  0.3303 -0.2274  0.3352
 8701TIP3   OH247593   2.838   0.687   0.867  0.2764 -0.2948 -0.5246
 8701TIP3    H147594   2.879   0.609   0.904 -1.5514 -1.5557 -0.9878
 8701TIP3    H247595   2.907   0.753   0.866  1.6648 -1.6559  0.6376
 8702TIP3   OH247596   5.298   4.941  14.358 -0.3630  0.6872 -0.2175
 8702TIP3    H147597   5.313   4.965  14.267 -0.5025  2.0117  0.0799
 8702TIP3    H247598   5.359   4.869  14.374 -0.6016  0.1898 -1.4504
 8703TIP3   OH247599   5.395   6.609  16.894  0.0339 -0.1055  0.4948
 8703TIP3    H147600   5.331   6.560  16.842  0.3792 -3.1723  2.6763
 8703TIP3    H247601   5.453   6.649  16.829 -1.5677 -0.7974 -1.4764
 8704TIP3   OH247602   2.575   0.820   3.739  0.1094  0.1223 -1.0042
 8704TIP3    H147603   2.512   0.865   3.682  1.2513  2.5877 -0.4328
 8704TIP3    H247604   2.660   0.848   3.707  0.8089  1.4937  1.7504
 8705TIP3   OH247605   6.445   1.885   5.487 -0.4010  0.5289  0.4282
 8705TIP3    H147606   6.475   1.964   5.532 -1.2655  0.8998  0.3753
 8705TIP3    H247607   6.351   1.899   5.473 -0.4646 -0.2821 -0.0508
 8706TIP3   OH247608   4.172   1.353  11.397 -0.0702  0.2081  0.4987
 8706TIP3    H147609   4.223   1.430  11.423  0.3274 -0.4161  1.6641
 8706TIP3    H247610   4.172   1.355  11.301 -0.6061  1.9934  0.5044
 8707TIP3   OH247611   5.540   0.239   4.266 -0.1601  0.0259 -0.6287
 8707TIP3    H147612   5.508   0.326   4.289 -0.1164 -0.0866 -0.1231
 8707TIP3    H247613   5.608   0.221   4.331 -1.0454 -0.9083  0.0544
 8708TIP3   OH247614   4.198   4.056  16.376  0.3635  0.2843  0.2066
 8708TIP3    H147615   4.191   4.105  16.458  1.1197  0.2046  0.3184
 8708TIP3    H247616   4.122   3.997  16.378  1.2620 -0.8853  1.6283
 8709TIP3   OH247617   1.173   5.468   3.564  0.1727 -0.1256  0.3753
 8709TIP3    H147618   1.253   5.470   3.616 -0.6289 -0.2547  1.6397
 8709TIP3    H247619   1.138   5.557   3.570  0.6504  0.1721 -0.9030
 8710TIP3   OH247620   5.173   6.041   1.966 -0.0574  0.6226  0.6506
 8710TIP3    H147621   5.164   5.946   1.977  0.5375  0.3590 -0.9598
 8710TIP3    H247622   5.085   6.075   1.983 -0.5354 -0.3335  0.1860
 8711TIP3   OH247623   2.403   4.200   4.137 -0.4630 -0.4125  0.4048
 8711TIP3    H147624   2.373   4.262   4.203 -0.8868 -0.8825  0.6620
 8711TIP3    H247625   2.364   4.232   4.055 -1.0225 -0.5664  0.6044
 8712TIP3   OH247626   4.601   2.742   3.568  0.1547 -0.3308  0.2377
 8712TIP3    H147627   4.585   2.803   3.496  2.3337  2.5909  2.0448
 8712TIP3    H247628   4.516   2.736   3.613 -0.0037  1.9556  0.3738
 8713TIP3   OH247629   2.666   4.657  14.538 -0.4738 -0.2975 -0.0184
 8713TIP3    H147630   2.753   4.677  14.572 -0.1187  1.1833 -1.6115
 8713TIP3    H247631   2.613   4.639  14.615  1.2283 -1.1925  0.9819
 8714TIP3   OH247632   1.260   5.396  14.807  0.0886 -0.0896 -0.8379
 8714TIP3    H147633   1.327   5.461  14.786 -1.0562  1.0188 -1.1805
 8714TIP3    H247634   1.206   5.439  14.874 -1.5409 -0.0923 -2.1008
 8715TIP3   OH247635   4.297   1.085   3.286 -0.1797  0.0044 -0.8618
 8715TIP3    H147636   4.371   1.052   3.338 -0.1563 -0.5918 -1.2629
 8715TIP3    H247637   4.297   1.179   3.302  0.3022 -0.0695 -0.3866
 8716TIP3   OH247638   5.786   1.069   1.259  0.1619 -0.0606 -0.3658
 8716TIP3    H147639   5.749   1.065   1.347  0.2483 -0.6748 -0.3486
 8716TIP3    H247640   5.714   1.102   1.205  0.2880  0.8795  0.0202
 8717TIP3   OH247641   6.398   4.048  12.584  1.3069  0.3546 -0.4082
 8717TIP3    H147642   6.390   3.996  12.664  3.0328 -0.5839 -0.7854
 8717TIP3    H247643   6.340   4.005  12.521  0.9347  0.3102 -0.0318
 8718TIP3   OH247644   5.689   6.719   3.566 -0.0633 -0.1694 -0.4428
 8718TIP3    H147645   5.768   6.666   3.556 -0.1929 -0.5609  0.5127
 8718TIP3    H247646   5.707   6.774   3.642 -0.1767  0.7280 -1.0508
 8719TIP3   OH247647   2.102   2.999   0.666 -0.7395 -0.0036 -0.4586
 8719TIP3    H147648   2.067   2.972   0.751 -3.9500  0.4047 -1.5198
 8719TIP3    H247649   2.101   2.919   0.613  1.9295 -0.4191 -0.0024
 8720TIP3   OH247650   4.421   5.208  13.403  0.5477 -0.0737  0.0396
 8720TIP3    H147651   4.502   5.174  13.366 -0.0617 -3.8892  1.7109
 8720TIP3    H247652   4.448   5.256  13.481  1.2831  0.3961 -0.4978
 8721TIP3   OH247653   5.158   0.790  14.226 -0.5769 -0.2175 -0.0493
 8721TIP3    H147654   5.197   0.820  14.144 -1.2628  0.8965  0.0093
 8721TIP3    H247655   5.179   0.697  14.231  0.1300 -0.1252 -1.1062
 8722TIP3   OH247656   2.745   5.782  11.315  0.0460 -0.8349  0.2328
 8722TIP3    H147657   2.813   5.748  11.257  0.9113 -0.9884  1.3198
 8722TIP3    H247658   2.663   5.758  11.272  0.6519 -0.3188 -1.2888
 8723TIP3   OH247659   4.555   5.467  16.878  0.0760  0.0715  0.3400
 8723TIP3    H147660   4.535   5.374  16.869  1.6199 -0.3567  1.0514
 8723TIP3    H247661   4.488   5.500  16.937  0.5510 -0.9974  1.5198
 8724TIP3   OH247662   1.767   5.167   2.002 -0.2916  0.3918  0.2994
 8724TIP3    H147663   1.701   5.098   2.006  0.1021  0.0190  0.4395
 8724TIP3    H247664   1.836   5.139   2.061  0.0084  0.7641  0.1367
 8725TIP3   OH247665   6.464   3.935   2.421  0.0851 -0.0114  0.4943
 8725TIP3    H147666   6.510   4.017   2.405 -0.5066  0.3375  0.5796
 8725TIP3    H247667   6.533   3.868   2.419  0.5464  0.4678  0.2906
 8726TIP3   OH247668   3.836   4.661  16.562 -0.3420  0.3501  0.3237
 8726TIP3    H147669   3.841   4.753  16.585  1.9052  1.3521 -3.2606
 8726TIP3    H247670   3.905   4.620  16.614 -0.3684  0.9753  0.8651
 8727TIP3   OH247671   6.537   2.883   3.781 -0.1822  1.1024  0.1840
 8727TIP3    H147672   6.496   2.802   3.810 -0.6274  0.5004 -1.9753
 8727TIP3    H247673   6.553   2.932   3.862  1.2569 -1.6262  1.6834
 8728TIP3   OH247674   2.072   3.957   5.971  0.1346 -0.5199 -0.0507
 8728TIP3    H147675   2.157   3.986   6.003 -0.6709 -0.5850  2.3353
 8728TIP3    H247676   2.009   4.007   6.023 -1.3127 -0.4565 -1.7749
 8729TIP3   OH247677   2.806   2.642   3.190 -0.1642 -0.1241 -0.2060
 8729TIP3    H147678   2.821   2.731   3.222  0.3873  0.2475 -1.4437
 8729TIP3    H247679   2.862   2.635   3.113 -1.6094 -0.8955 -1.2398
 8730TIP3   OH247680   2.176   0.674   6.678  0.0393  0.4711  0.5746
 8730TIP3    H147681   2.160   0.649   6.587  0.9718 -0.9182  0.7593
 8730TIP3    H247682   2.263   0.713   6.678 -0.6819  2.1632  0.6008
 8731TIP3   OH247683   5.787   6.658   1.841 -0.0495  0.1234  0.2826
 8731TIP3    H147684   5.779   6.752   1.856 -0.1317  0.3132 -0.8669
 8731TIP3    H247685   5.699   6.630   1.815 -0.0064 -0.2583  0.5348
 8732TIP3   OH247686   6.462   2.423  12.566  0.1255  0.1795 -0.0504
 8732TIP3    H147687   6.550   2.389  12.551  0.0246  0.2560 -0.8869
 8732TIP3    H247688   6.472   2.518  12.567  0.2035  0.1701  0.9239
 8733TIP3   OH247689   5.450   1.959   4.629  0.5004  0.4459 -0.0419
 8733TIP3    H147690   5.455   1.864   4.644  1.4415  0.5189  0.1391
 8733TIP3    H247691   5.396   1.967   4.550 -0.1519 -0.1994  0.3146
 8734TIP3   OH247692   3.647   1.322  11.867 -0.7164  0.0342  0.0046
 8734TIP3    H147693   3.696   1.291  11.943  1.1573 -1.7560 -1.8080
 8734TIP3    H247694   3.556   1.326  11.897 -0.1473 -1.3555  2.1213
 8735TIP3   OH247695   1.891   6.382   0.009  0.2960  0.3209 -0.5623
 8735TIP3    H147696   1.876   6.387  -0.086 -0.7401  1.2115 -0.3696
 8735TIP3    H247697   1.917   6.291   0.024 -3.1888 -0.9571 -1.2371
 8736TIP3   OH247698   5.089   2.882   3.700 -0.0269  0.2500  0.0014
 8736TIP3    H147699   5.108   2.812   3.762  0.3284 -0.6234 -1.0717
 8736TIP3    H247700   5.175   2.919   3.678 -0.0908  0.1274 -0.4621
 8737TIP3   OH247701   4.127   5.808  13.402  0.4693  0.3021 -0.4227
 8737TIP3    H147702   4.082   5.873  13.455  0.3768  0.4147 -0.6398
 8737TIP3    H247703   4.058   5.768  13.349  0.1132 -1.5124  1.2506
 8738TIP3   OH247704   0.811   0.895  13.363 -0.1048  0.5205  0.6813
 8738TIP3    H147705   0.884   0.938  13.407 -0.8300  2.7676 -0.1420
 8738TIP3    H247706   0.735   0.917  13.417 -0.1844 -2.5665  2.0549
 8739TIP3   OH247707   0.625   1.581  16.106  0.3364  0.3432  0.0662
 8739TIP3    H147708   0.580   1.501  16.077 -2.1863  1.1047  1.5063
 8739TIP3    H247709   0.706   1.550  16.145 -0.3315 -1.4843  0.1173
 8740TIP3   OH247710   6.608   3.298  14.949 -0.5867  0.0930  0.6801
 8740TIP3    H147711   6.523   3.314  14.909 -0.2061 -0.2728 -0.2953
 8740TIP3    H247712   6.670   3.306  14.877  0.1214 -0.4983  1.2136
 8741TIP3   OH247713   1.932   2.078  14.130 -0.2525 -0.1750 -0.1182
 8741TIP3    H147714   2.015   2.031  14.123 -0.2059 -0.3152  1.1199
 8741TIP3    H247715   1.946   2.139  14.203 -0.8446  0.6323 -0.6690
 8742TIP3   OH247716   3.472   4.710   2.887 -0.0911 -0.0958 -0.1161
 8742TIP3    H147717   3.393   4.708   2.940 -0.7998  0.7235 -1.0956
 8742TIP3    H247718   3.493   4.803   2.877  0.7167 -0.2814 -0.2726
 8743TIP3   OH247719   1.187   6.220  15.200 -0.5260 -0.5890  0.0651
 8743TIP3    H147720   1.152   6.277  15.131 -0.8267  1.8861  2.1321
 8743TIP3    H247721   1.110   6.181  15.241 -0.4406 -0.6780  0.1427
 8744TIP3   OH247722   5.840   0.473  15.367  0.2357  0.3609 -0.3162
 8744TIP3    H147723   5.861   0.402  15.306  0.5457  0.3482 -0.1986
 8744TIP3    H247724   5.855   0.553  15.316  1.3990  0.3719  0.0108
 8745TIP3   OH247725   3.205   0.639   6.376 -0.4015  0.2636 -0.2425
 8745TIP3    H147726   3.192   0.699   6.303  3.1794  0.1878 -1.1627
 8745TIP3    H247727   3.150   0.564   6.357 -2.2465  1.7283 -0.9388
 8746TIP3   OH247728   6.128   0.074  11.357 -0.6520  0.3920 -0.2855
 8746TIP3    H147729   6.148   0.082  11.263  2.6671 -1.1359  0.1520
 8746TIP3    H247730   6.119  -0.021  11.371  1.1962  0.3908  1.2638
 8747TIP3   OH247731   1.888   2.457  10.899 -0.6542  0.0169 -0.2681
 8747TIP3    H147732   1.979   2.488  10.892 -0.9424  0.6660 -1.4087
 8747TIP3    H247733   1.845   2.492  10.821 -1.9277 -0.1619  0.3293
 8748TIP3   OH247734   0.009   2.326  16.013 -0.4849 -0.3484 -0.3194
 8748TIP3    H147735   0.057   2.287  16.085  0.0144  0.7259 -0.0427
 8748TIP3    H247736  -0.007   2.254  15.952 -0.2482 -1.1094  0.5111
 8749TIP3   OH247737   1.501   5.230   5.605  0.5214 -0.1172  0.3324
 8749TIP3    H147738   1.476   5.248   5.514  2.4215  0.7877 -0.0600
 8749TIP3    H247739   1.520   5.136   5.606 -1.9457 -0.6913  0.4788
 8750TIP3   OH247740   2.964   4.722   4.627 -0.1644 -0.0957  0.0661
 8750TIP3    H147741   3.049   4.710   4.668 -0.3108 -0.1478  0.3532
 8750TIP3    H247742   2.960   4.816   4.608 -1.0300  0.3803  2.2608
 8751TIP3   OH247743   2.106   3.893  13.038 -0.1235 -0.1619  0.2593
 8751TIP3    H147744   2.128   3.985  13.027  0.0609 -0.0981  1.1221
 8751TIP3    H247745   2.180   3.855  13.086 -0.7573 -0.4747  1.0275
 8752TIP3   OH247746   4.959   2.274  16.955 -0.5904  0.3518  0.5577
 8752TIP3    H147747   4.982   2.357  16.996 -0.9085  0.5651  0.3066
 8752TIP3    H247748   4.952   2.212  17.028 -1.6780  0.8453  0.8908
 8753TIP3   OH247749   0.406   6.055  15.341 -0.2750 -0.0623  0.5266
 8753TIP3    H147750   0.389   6.045  15.435  1.9593  0.4223  1.0355
 8753TIP3    H247751   0.363   6.137  15.318 -2.5723 -1.1469  0.5983
 8754TIP3   OH247752   6.309   1.737   3.998  0.2139 -0.3874  0.2292
 8754TIP3    H147753   6.225   1.763   3.960  0.3146  1.1776  0.9974
 8754TIP3    H247754   6.328   1.652   3.958  0.3364  1.1337 -3.2523
 8755TIP3   OH247755   3.097   1.344  16.355 -0.0024  0.1129  0.0183
 8755TIP3    H147756   3.160   1.415  16.368  0.1166 -0.1637  1.0100
 8755TIP3    H247757   3.021   1.386  16.316  0.8346  0.4320 -1.3291
 8756TIP3   OH247758   4.922   0.457  14.114  0.3666 -0.6246 -0.0561
 8756TIP3    H147759   4.892   0.499  14.195  2.6961 -2.2216  1.7795
 8756TIP3    H247760   4.908   0.522  14.046 -0.5554  1.2588  1.8373
 8757TIP3   OH247761   2.108   0.728   5.415 -0.0457 -0.1306  0.3466
 8757TIP3    H147762   2.098   0.659   5.349  0.3023  1.1003 -1.0314
 8757TIP3    H247763   2.202   0.746   5.415 -0.4663  2.7025 -1.8630
 8758TIP3   OH247764   1.053   1.760  12.918  0.4848  0.3101  0.0229
 8758TIP3    H147765   0.997   1.705  12.974  0.5908 -0.1606 -0.3312
 8758TIP3    H247766   1.088   1.826  12.978  1.4277 -0.7947  0.7551
 8759TIP3   OH247767   3.838   4.066  15.260  0.3381 -0.2929  0.1767
 8759TIP3    H147768   3.813   3.984  15.304 -0.3780 -0.0731  0.1973
 8759TIP3    H247769   3.808   4.055  15.170  0.6789 -0.2446  0.0556
 8760TIP3   OH247770   3.031   1.177  14.856 -0.2503 -0.4231  0.2401
 8760TIP3    H147771   3.124   1.160  14.871  0.0317  0.3632 -0.5497
 8760TIP3    H247772   3.009   1.122  14.781  0.4401  1.7950 -1.7327
 8761TIP3   OH247773   5.137   6.608   2.591  0.3608 -0.3007  0.5366
 8761TIP3    H147774   5.066   6.557   2.632 -0.1786  0.7452  0.9425
 8761TIP3    H247775   5.134   6.584   2.499 -0.6372 -0.1513  0.5211
 8762TIP3   OH247776   4.043   6.554  11.570  0.0325 -0.0789 -0.1755
 8762TIP3    H147777   4.123   6.572  11.521  0.3837  0.6743  0.6625
 8762TIP3    H247778   4.059   6.589  11.657 -1.6018  1.0556 -0.2880
 8763TIP3   OH247779   3.916   3.459   1.386  0.3814 -0.7103  0.3605
 8763TIP3    H147780   3.836   3.457   1.332 -1.0086  1.8879  2.0993
 8763TIP3    H247781   3.980   3.503   1.331  0.1310 -1.2872 -0.4286
 8764TIP3   OH247782   3.701   3.679  16.704  0.2042  0.2965 -0.1948
 8764TIP3    H147783   3.774   3.710  16.758  0.2266 -0.6380  0.3391
 8764TIP3    H247784   3.637   3.645  16.767  1.0906 -2.6948 -0.7497
 8765TIP3   OH247785   4.095   2.385  15.979  0.0502 -0.5467 -0.1123
 8765TIP3    H147786   4.096   2.447  16.051  0.4498  0.5449 -1.0223
 8765TIP3    H247787   4.003   2.380  15.953  0.3261  2.5279 -2.3269
 8766TIP3   OH247788   5.999   2.862  15.816  0.2112  0.3320  0.0641
 8766TIP3    H147789   6.029   2.864  15.725  0.6585  0.0109  0.1969
 8766TIP3    H247790   6.073   2.897  15.866  0.3956 -0.5227  0.4043
 8767TIP3   OH247791   5.388   4.058   6.275  0.3832  0.0414  0.6485
 8767TIP3    H147792   5.472   4.084   6.238 -0.2418  1.1548 -0.0705
 8767TIP3    H247793   5.325   4.121   6.238 -0.5830 -0.0140  2.1086
 8768TIP3   OH247794   1.689   2.180  12.852  0.1312 -0.0916 -0.2162
 8768TIP3    H147795   1.684   2.086  12.867 -0.3930 -0.0288 -0.0005
 8768TIP3    H247796   1.752   2.211  12.917  0.8351 -0.3854 -0.7354
 8769TIP3   OH247797   0.790   2.301   5.765  0.1270 -0.7329 -0.4741
 8769TIP3    H147798   0.736   2.359   5.819  1.0028  0.3931 -0.7921
 8769TIP3    H247799   0.762   2.319   5.675  0.6306 -0.5615 -0.5983
 8770TIP3   OH247800   2.409   4.688  13.921  0.4188  0.3886 -0.0447
 8770TIP3    H147801   2.445   4.605  13.891 -0.1334  0.4692 -0.9816
 8770TIP3    H247802   2.368   4.668  14.005  1.5026  0.0220  0.4005
 8771TIP3   OH247803   2.395   0.293   3.533  0.9475  0.1627  0.0564
 8771TIP3    H147804   2.338   0.216   3.530  0.1808  0.7436 -1.4028
 8771TIP3    H247805   2.455   0.281   3.459  1.6192  0.3876  0.5585
 8772TIP3   OH247806   0.177   1.034   5.847 -0.1904  0.5203  0.4684
 8772TIP3    H147807   0.272   1.037   5.836  0.0417 -1.9214  1.2531
 8772TIP3    H247808   0.143   1.062   5.762  1.3321 -1.8737 -1.0690
 8773TIP3   OH247809   6.437   6.454   1.252 -0.1902 -0.1553 -0.2927
 8773TIP3    H147810   6.465   6.534   1.296  0.6354 -1.6519  2.1014
 8773TIP3    H247811   6.342   6.459   1.250 -0.2295  0.2357  1.2247
 8774TIP3   OH247812   3.612   4.636   5.552 -0.1110  0.3620  0.1077
 8774TIP3    H147813   3.647   4.553   5.584 -0.7065 -0.0051 -0.1733
 8774TIP3    H247814   3.690   4.687   5.529  0.2535 -0.7496 -1.3014
 8775TIP3   OH247815   6.735   3.432  15.134 -0.4665 -0.4381  0.0522
 8775TIP3    H147816   6.816   3.382  15.129 -0.5374 -0.4872 -0.7287
 8775TIP3    H247817   6.678   3.394  15.067  0.1435  1.8392 -1.9261
 8776TIP3   OH247818   4.878   3.242  13.880  0.4654 -0.0964  0.3802
 8776TIP3    H147819   4.817   3.169  13.870 -0.6444  0.9437 -0.6801
 8776TIP3    H247820   4.825   3.313  13.917  1.1464  0.6544 -0.0516
 8777TIP3   OH247821   2.073   3.496   0.211  0.1560 -0.2958 -0.1104
 8777TIP3    H147822   2.057   3.478   0.119  2.9414  2.8779 -1.4248
 8777TIP3    H247823   2.040   3.584   0.225  0.3044 -0.4968  1.7760
 8778TIP3   OH247824   4.068   2.014   0.308 -0.0537  0.0301 -0.3906
 8778TIP3    H147825   4.121   2.080   0.263  0.1848  0.8019  0.9674
 8778TIP3    H247826   3.981   2.053   0.315 -0.2477 -0.3403 -0.7156
 8779TIP3   OH247827   5.173   0.506   0.522 -0.2349  0.2837  0.4634
 8779TIP3    H147828   5.267   0.490   0.521 -0.1172  0.9243  0.4084
 8779TIP3    H247829   5.133   0.421   0.540  0.3802  0.1286  1.1052
 8780TIP3   OH247830   6.203   5.141  12.725 -0.4045  0.4296 -0.1071
 8780TIP3    H147831   6.163   5.086  12.658  0.4828  1.1234 -1.2428
 8780TIP3    H247832   6.168   5.229  12.709  0.9466  0.8952 -0.6465
 8781TIP3   OH247833   0.980   4.255   5.631  0.0386 -0.2311  0.3278
 8781TIP3    H147834   0.944   4.305   5.558 -0.0631  0.5262  0.8831
 8781TIP3    H247835   1.072   4.281   5.635  0.1816 -0.6870  0.1359
 8782TIP3   OH247836   3.820   2.820   3.047  0.5857  0.2596 -0.3266
 8782TIP3    H147837   3.771   2.902   3.059  0.5542  0.0056  1.5914
 8782TIP3    H247838   3.752   2.753   3.038  0.6118  0.3911 -1.6271
 8783TIP3   OH247839   5.945   5.832   5.703  0.3376  0.6235  0.4358
 8783TIP3    H147840   5.912   5.889   5.633  1.6624  0.0527 -0.7076
 8783TIP3    H247841   5.978   5.893   5.769  1.9327  1.2490 -0.8575
 8784TIP3   OH247842   0.846   2.718  13.835 -0.3705  0.0490  0.2849
 8784TIP3    H147843   0.814   2.751  13.751  0.1526 -1.3447 -0.4847
 8784TIP3    H247844   0.901   2.643  13.812  1.7477  1.0905  1.7107
 8785TIP3   OH247845   3.512   6.492   5.415 -0.1893 -0.3250  0.4876
 8785TIP3    H147846   3.455   6.567   5.426 -2.2505 -1.9555  1.5497
 8785TIP3    H247847   3.601   6.528   5.422 -0.9942  2.3235 -1.4084
 8786TIP3   OH247848   6.696   1.404   3.114  0.5975 -0.2578 -0.0826
 8786TIP3    H147849   6.608   1.436   3.093 -0.2808 -1.3856  1.6151
 8786TIP3    H247850   6.681   1.327   3.169  2.6632 -0.8199 -0.2239
 8787TIP3   OH247851   3.117   6.415  16.467  0.2924 -0.0068  0.1147
 8787TIP3    H147852   3.107   6.320  16.479  1.4574 -0.2989 -1.0258
 8787TIP3    H247853   3.066   6.434  16.388 -1.2817  0.6393  1.2157
 8788TIP3   OH247854   4.498   6.554  12.965 -0.5028 -0.4181 -0.2586
 8788TIP3    H147855   4.593   6.566  12.970 -0.7585  1.2399  1.3145
 8788TIP3    H247856   4.483   6.521  12.876  1.4809 -0.1901 -0.7193
 8789TIP3   OH247857   3.579   3.342   5.314  0.2788  0.3073 -0.1869
 8789TIP3    H147858   3.622   3.410   5.365  0.6772  1.5381 -2.0766
 8789TIP3    H247859   3.545   3.281   5.379  1.7274  1.2078  1.4834
 8790TIP3   OH247860   2.021   4.524   5.819  0.6076 -0.2588  0.7225
 8790TIP3    H147861   2.059   4.587   5.881  0.3527 -1.7880  2.5144
 8790TIP3    H247862   2.042   4.439   5.857  0.1891 -1.2524 -1.1935
 8791TIP3   OH247863   4.449   2.148  12.776 -0.1005 -0.8222 -0.0901
 8791TIP3    H147864   4.502   2.093  12.718 -1.6222 -1.3095 -1.0599
 8791TIP3    H247865   4.507   2.167  12.849  1.0224 -2.3584 -0.5204
 8792TIP3   OH247866   5.312   0.084  12.067 -0.0823  0.0796 -0.2658
 8792TIP3    H147867   5.376   0.047  12.006  0.3088  1.3761 -0.6816
 8792TIP3    H247868   5.244   0.017  12.075  0.8273 -0.9069 -0.6048
 8793TIP3   OH247869   6.007   0.912   2.586  0.0652 -0.0312  0.3080
 8793TIP3    H147870   5.992   0.827   2.628 -1.4844  0.0478 -0.0432
 8793TIP3    H247871   6.100   0.912   2.564  0.7846 -0.4400  2.9317
 8794TIP3   OH247872   2.243   3.833   2.792  0.1540  0.2990  0.4709
 8794TIP3    H147873   2.300   3.905   2.765  0.1791  0.2852  0.4870
 8794TIP3    H247874   2.194   3.868   2.868 -0.2212  0.4805  0.1508
 8795TIP3   OH247875   4.967   4.080  15.582  0.1203  0.2636 -0.2041
 8795TIP3    H147876   5.057   4.060  15.607 -0.1463 -2.3032 -1.0276
 8795TIP3    H247877   4.968   4.174  15.564  2.4325  0.4485  0.5496
 8796TIP3   OH247878   6.434   1.639  11.305  0.3114  0.0483  0.5225
 8796TIP3    H147879   6.466   1.714  11.356  2.0643  1.3954 -2.2419
 8796TIP3    H247880   6.508   1.579  11.303 -0.9536 -1.6842  2.3785
 8797TIP3   OH247881   1.903   4.668  12.750 -0.1009  0.0848  0.4525
 8797TIP3    H147882   1.959   4.667  12.828 -0.5810  2.1754  0.8734
 8797TIP3    H247883   1.941   4.735  12.693 -1.2890  0.4770  0.0846
 8798TIP3   OH247884   1.440   0.674  16.018  0.0970  0.3784  0.0988
 8798TIP3    H147885   1.359   0.661  16.068  0.4851 -1.4965  0.3083
 8798TIP3    H247886   1.414   0.728  15.944 -1.2307  0.2501  0.4494
 8799TIP3   OH247887   0.087   6.608   6.021  0.0546 -0.6791  0.2427
 8799TIP3    H147888   0.176   6.574   6.015  0.3621  0.0274  0.7582
 8799TIP3    H247889   0.045   6.555   6.089  0.8098  0.5354  1.7070
 8800TIP3   OH247890   6.559   3.910  14.677 -0.2168 -0.2937 -0.0219
 8800TIP3    H147891   6.632   3.954  14.635 -0.6947  0.6167  0.0657
 8800TIP3    H247892   6.580   3.912  14.770 -0.5888  0.4593  0.0575
 8801TIP3   OH247893   4.808   3.309   5.687  0.1840 -0.5369 -0.2106
 8801TIP3    H147894   4.791   3.350   5.772  0.1601 -1.3850  0.2064
 8801TIP3    H247895   4.875   3.363   5.646  1.4515 -1.0637  1.0846
 8802TIP3   OH247896   5.652   0.906   4.366 -0.2921  0.7293  0.3233
 8802TIP3    H147897   5.731   0.958   4.347 -0.1484  0.7685  1.0315
 8802TIP3    H247898   5.618   0.942   4.447  0.4202 -0.9736  1.4406
 8803TIP3   OH247899   4.150   6.071  16.612  0.3213 -0.0242  0.2009
 8803TIP3    H147900   4.077   6.127  16.636  0.6489 -0.5722  2.7567
 8803TIP3    H247901   4.132   5.988  16.657  2.5645 -0.1145  1.0372
 8804TIP3   OH247902   5.078   0.589   3.445  0.8214 -0.2738  0.1727
 8804TIP3    H147903   5.107   0.674   3.413  2.6050 -0.6643  0.6157
 8804TIP3    H247904   4.999   0.569   3.394 -0.4588  2.2209  1.0029
 8805TIP3   OH247905   2.630   0.254  16.890 -0.7735  0.3162  0.8794
 8805TIP3    H147906   2.629   0.314  16.816 -2.3984 -1.2452 -0.4550
 8805TIP3    H247907   2.546   0.269  16.933 -0.8425 -0.4416  1.0076
 8806TIP3   OH247908   5.725   0.202   3.493  0.2721 -0.1625 -0.0424
 8806TIP3    H147909   5.643   0.222   3.449  0.4610  0.4356 -0.1276
 8806TIP3    H247910   5.747   0.113   3.463  1.0458  0.6997 -2.1921
 8807TIP3   OH247911   3.140   3.025  14.886 -0.5431 -0.5390  0.3950
 8807TIP3    H147912   3.203   3.080  14.932 -1.4665  1.1309 -0.2773
 8807TIP3    H247913   3.193   2.974  14.825  0.1418  1.1340 -0.4547
 8808TIP3   OH247914   6.052   3.104   1.171 -0.3906  0.1032 -0.5392
 8808TIP3    H147915   6.101   3.102   1.089 -0.0922 -1.2386 -0.3578
 8808TIP3    H247916   6.024   3.013   1.184  1.4125 -0.2052  1.9098
 8809TIP3   OH247917   1.276   4.288   5.088  0.5532 -0.0097  0.2157
 8809TIP3    H147918   1.346   4.348   5.064 -0.3170  1.0992  0.3583
 8809TIP3    H247919   1.196   4.332   5.061 -0.0100 -2.7181 -3.1765
 8810TIP3   OH247920   3.408   1.233  13.982  0.0748  0.2439 -0.6128
 8810TIP3    H147921   3.351   1.156  13.990 -0.5170  0.5126 -2.0524
 8810TIP3    H247922   3.454   1.236  14.066  0.7679 -2.1919 -0.8165
 8811TIP3   OH247923   1.839   3.650  17.203 -0.2298 -0.8242 -0.0873
 8811TIP3    H147924   1.808   3.710  17.136 -1.8836 -0.7568  0.6988
 8811TIP3    H247925   1.844   3.703  17.283 -2.5121 -1.8457  0.8113
 8812TIP3   OH247926   2.267   1.682  12.589 -0.2475  0.4026  0.3382
 8812TIP3    H147927   2.349   1.731  12.586 -0.3814  0.6650  0.8152
 8812TIP3    H247928   2.206   1.735  12.537 -1.1136  2.1630  2.9065
 8813TIP3   OH247929   5.828   5.591  13.442  0.0679  0.4130 -0.1161
 8813TIP3    H147930   5.919   5.590  13.413 -0.1564  2.7220 -1.1742
 8813TIP3    H247931   5.820   5.672  13.494 -1.1301 -0.3018  0.8832
 8814TIP3   OH247932   3.643   2.182  15.546 -0.2550 -0.8322 -0.1600
 8814TIP3    H147933   3.669   2.134  15.467  1.4003 -0.0258 -0.1369
 8814TIP3    H247934   3.716   2.171  15.606 -0.5257  0.4058  0.4283
 8815TIP3   OH247935   1.150   4.833  11.954  0.1864  0.1268  0.9574
 8815TIP3    H147936   1.078   4.866  12.008 -0.2451  0.4983  0.1754
 8815TIP3    H247937   1.145   4.738  11.961  0.2932  0.1726  1.7585
 8816TIP3   OH247938   2.077   4.604  12.985 -0.1521 -0.3354 -0.4599
 8816TIP3    H147939   2.115   4.526  12.945 -1.0131 -1.0597  0.0939
 8816TIP3    H247940   2.150   4.666  12.992 -0.0397  0.0321 -3.5276
 8817TIP3   OH247941   2.092   6.004  16.899  0.3535  0.0116 -0.7822
 8817TIP3    H147942   2.004   6.039  16.884 -0.3383 -1.3796 -0.1207
 8817TIP3    H247943   2.084   5.910  16.884  0.7165 -0.8250  3.1782
 8818TIP3   OH247944   5.686   2.068   4.692  0.2910  0.2705  0.3948
 8818TIP3    H147945   5.682   2.133   4.623 -2.4254  1.3318  1.4441
 8818TIP3    H247946   5.601   2.025   4.690  1.6408 -2.6346  0.4004
 8819TIP3   OH247947   5.715   6.643   0.638 -0.3797 -0.7012  0.4750
 8819TIP3    H147948   5.638   6.692   0.668 -1.2695 -0.7269 -1.5778
 8819TIP3    H247949   5.697   6.552   0.664 -1.2892 -0.7855 -0.3731
 8820TIP3   OH247950   1.961   2.450  13.746  0.3184  0.4139 -0.1075
 8820TIP3    H147951   1.887   2.504  13.772  2.8552  3.0562  2.3435
 8820TIP3    H247952   1.978   2.394  13.822  0.8094 -0.1689 -0.6321
 8821TIP3   OH247953   0.060   0.460  16.503  1.0450 -0.1198 -0.1852
 8821TIP3    H147954   0.114   0.521  16.452  0.7644  1.0772  0.9093
 8821TIP3    H247955   0.118   0.430  16.573  0.9438 -0.5260 -0.2734
 8822TIP3   OH247956   0.770   3.015   0.152 -0.1337  0.1073  0.4922
 8822TIP3    H147957   0.743   2.964   0.075  0.4160 -0.3303  0.5785
 8822TIP3    H247958   0.710   2.987   0.221  0.2732 -0.5649  0.5826
 8823TIP3   OH247959   3.217   4.005  15.731  0.0065  0.8371  0.5595
 8823TIP3    H147960   3.266   3.941  15.782 -0.4364  1.8726  2.3667
 8823TIP3    H247961   3.128   4.001  15.766 -0.9617 -0.0935 -1.7930
 8824TIP3   OH247962   0.125   6.460  13.426  0.2046 -0.0466 -0.4889
 8824TIP3    H147963   0.173   6.534  13.389 -0.8636  0.5015 -0.8041
 8824TIP3    H247964   0.167   6.444  13.510  0.3339  1.0354 -0.3359
 8825TIP3   OH247965   6.473   3.063  11.386  0.6669  0.1485 -0.0385
 8825TIP3    H147966   6.536   3.017  11.441 -0.1973  1.0501  1.7652
 8825TIP3    H247967   6.391   3.015  11.396  0.6001  0.0478 -0.9373
 8826TIP3   OH247968   1.742   4.538  14.683 -0.1681  0.3886  0.3288
 8826TIP3    H147969   1.681   4.585  14.740  0.5626  2.4397 -0.4745
 8826TIP3    H247970   1.812   4.508  14.741 -1.1092 -0.5404  1.0038
 8827TIP3   OH247971   0.321   6.759  13.850  0.0097  0.4258 -0.2759
 8827TIP3    H147972   0.306   6.794  13.763  1.5008  1.6551 -0.0943
 8827TIP3    H247973   0.239   6.715  13.874 -0.5762  0.4700 -2.0792
 8828TIP3   OH247974   1.280   3.352  10.739 -0.3108  0.1556 -0.3292
 8828TIP3    H147975   1.374   3.367  10.725 -0.3359  1.5252  0.7925
 8828TIP3    H247976   1.276   3.269  10.786  0.4139  0.5046  0.3753
 8829TIP3   OH247977   6.498   5.335   3.306  0.0538 -0.1360  0.5713
 8829TIP3    H147978   6.414   5.354   3.265  0.4487  1.1547  0.3307
 8829TIP3    H247979   6.532   5.420   3.332  1.5728 -0.5599  0.0891
 8830TIP3   OH247980   1.484   0.082  11.173  0.1940  0.2746 -0.1461
 8830TIP3    H147981   1.469   0.176  11.188 -0.5456  0.2148 -0.4656
 8830TIP3    H247982   1.579   0.072  11.179  0.2049  0.8418  1.0549
 8831TIP3   OH247983   2.413   4.030  13.787  0.5123  0.0512  0.1177
 8831TIP3    H147984   2.426   4.046  13.880 -2.7465  2.0627  0.3683
 8831TIP3    H247985   2.469   4.096  13.744 -0.9247  1.8350  0.8358
 8832TIP3   OH247986   5.933   0.990  15.142  0.4476  0.3785 -0.4613
 8832TIP3    H147987   5.918   1.068  15.196  1.3495 -0.0338  0.4240
 8832TIP3    H247988   5.950   1.025  15.055 -1.9467  1.0189 -0.7472
 8833TIP3   OH247989   1.657   3.843   1.306 -0.2490  0.2114  0.0187
 8833TIP3    H147990   1.734   3.864   1.358  2.1043 -2.3485 -2.1317
 8833TIP3    H247991   1.626   3.760   1.341 -1.2043  0.5321 -0.0373
 8834TIP3   OH247992   1.478   5.583   3.144  0.0666 -0.2596 -0.7771
 8834TIP3    H147993   1.496   5.513   3.081 -1.7334 -0.0108 -1.6399
 8834TIP3    H247994   1.425   5.541   3.211 -1.0895  0.2517 -1.3411
 8835TIP3   OH247995   6.566   6.132   4.351 -0.2927 -0.0660  0.1610
 8835TIP3    H147996   6.480   6.106   4.318 -0.3352  0.8403 -0.4790
 8835TIP3    H247997   6.629   6.088   4.293 -0.3540  0.5018 -0.3481
 8836TIP3   OH247998   2.029   4.106   4.234  0.2829 -0.8964 -0.4122
 8836TIP3    H147999   1.970   4.115   4.309  1.0206  0.6238  0.0145
 8836TIP3    H248000   2.115   4.128   4.268  0.7325 -0.8154 -1.5732
 8837TIP3   OH248001   5.018   5.646   5.070 -0.3127  0.4544 -0.4332
 8837TIP3    H148002   5.106   5.670   5.040 -0.0539 -0.5353 -0.4867
 8837TIP3    H248003   5.022   5.656   5.165 -0.4516  1.3733 -0.5116
 8838TIP3   OH248004   2.546   2.530  11.491 -0.3745 -0.2420  0.0890
 8838TIP3    H148005   2.462   2.573  11.509 -0.0663  0.0294  0.9060
 8838TIP3    H248006   2.544   2.451  11.545  0.2654  0.2221  0.8114
 8839TIP3   OH248007   2.602   1.304  10.329  0.4886  0.3207  0.1716
 8839TIP3    H148008   2.650   1.386  10.319  0.1778  0.5526  0.5377
 8839TIP3    H248009   2.510   1.328  10.315  0.4754 -0.1174 -0.5170
 8840TIP3   OH248010   0.046   0.275  13.600 -0.0763  0.4572  0.1715
 8840TIP3    H148011   0.131   0.308  13.629  0.0960 -0.6221  0.9358
 8840TIP3    H248012   0.051   0.180  13.612 -0.4309  0.0609 -2.3112
 8841TIP3   OH248013   4.178   2.958  13.189 -0.1594 -0.4556 -0.5929
 8841TIP3    H148014   4.090   2.991  13.205  0.1014  0.1324 -0.3370
 8841TIP3    H248015   4.224   3.030  13.147  0.8955  0.1486  1.4349
 8842TIP3   OH248016   4.150   2.107   1.881 -0.3428 -0.3659  0.5816
 8842TIP3    H148017   4.169   2.062   1.963 -0.2818  0.2762  0.9206
 8842TIP3    H248018   4.188   2.049   1.814  0.7369 -0.2773  1.0859
 8843TIP3   OH248019   5.172   4.978   5.782 -0.2029  0.6793  0.1333
 8843TIP3    H148020   5.101   5.040   5.795  1.4751  2.7366 -0.0844
 8843TIP3    H248021   5.250   5.023   5.812  1.5443 -0.1865 -2.7003
 8844TIP3   OH248022   0.643   2.498  14.306 -0.6357  0.3093 -0.0852
 8844TIP3    H148023   0.600   2.539  14.231  0.5599  0.9655 -0.4418
 8844TIP3    H248024   0.735   2.525  14.298 -0.4412  0.1861  1.4785
 8845TIP3   OH248025   1.030   1.218  16.726  0.0519  0.1854  0.4077
 8845TIP3    H148026   0.938   1.231  16.748 -0.4597 -1.2136 -0.7375
 8845TIP3    H248027   1.043   1.123  16.733  0.8569  0.1266 -1.3800
 8846TIP3   OH248028   5.850   6.075  15.429 -0.1450  0.2633 -0.2857
 8846TIP3    H148029   5.840   6.023  15.349 -1.1457 -2.0399  1.2102
 8846TIP3    H248030   5.765   6.070  15.472  0.6499  0.5190  1.4318
 8847TIP3   OH248031   2.675   1.797  17.047  0.3127  0.1826 -0.1237
 8847TIP3    H148032   2.734   1.756  16.984  0.7685  0.2820  0.2304
 8847TIP3    H248033   2.731   1.817  17.122 -0.7310 -2.5316  1.5228
 8848TIP3   OH248034   3.440   4.128  15.979  0.0329 -0.1292  0.0127
 8848TIP3    H148035   3.498   4.074  16.032 -0.6059  2.1481  3.3529
 8848TIP3    H248036   3.496   4.165  15.911  1.4664 -1.3393  0.4996
 8849TIP3   OH248037   3.627   1.042  14.206 -0.6846  0.2726  0.0221
 8849TIP3    H148038   3.693   1.110  14.193  0.2580 -0.3899  1.0668
 8849TIP3    H248039   3.580   1.068  14.285  0.0630 -0.5478  0.7602
 8850TIP3   OH248040   3.021   3.131  11.118 -0.1680 -0.0770  0.7953
 8850TIP3    H148041   2.968   3.193  11.067 -0.3747 -1.4797 -0.7560
 8850TIP3    H248042   3.031   3.055  11.061  0.4216 -1.3294  2.4992
 8851TIP3   OH248043   4.247   0.957  15.344 -0.5217  0.1634  0.0798
 8851TIP3    H148044   4.262   0.958  15.250  0.4358 -1.0862  0.1987
 8851TIP3    H248045   4.177   0.893  15.357 -2.6545  2.3239  0.0092
 8852TIP3   OH248046   6.509   5.257   4.799  0.2444 -0.3369 -0.6843
 8852TIP3    H148047   6.499   5.267   4.704  0.5322 -0.0943 -0.6899
 8852TIP3    H248048   6.601   5.278   4.815 -0.5591  3.2989  0.1129
 8853TIP3   OH248049   6.288   0.973   2.478  0.7089 -1.0080 -0.1450
 8853TIP3    H148050   6.365   0.925   2.449  0.6208 -0.1518 -1.9212
 8853TIP3    H248051   6.270   1.036   2.408 -0.7743 -0.2220  0.8636
 8854TIP3   OH248052   2.141   0.753   1.167  0.7864  0.0553 -0.5139
 8854TIP3    H148053   2.099   0.822   1.217 -0.9221 -1.3665  0.1139
 8854TIP3    H248054   2.216   0.796   1.125 -0.0077  2.1731  0.1085
 8855TIP3   OH248055   2.502   3.647  13.050 -0.5088 -0.0999 -0.2386
 8855TIP3    H148056   2.521   3.715  13.115  1.0596 -1.2735  0.6026
 8855TIP3    H248057   2.560   3.667  12.976 -0.2460 -0.3636 -0.1039
 8856TIP3   OH248058   3.115   1.534  12.057  0.6729  0.3780 -0.0060
 8856TIP3    H148059   3.101   1.459  11.998 -2.5105  0.9689 -0.1959
 8856TIP3    H248060   3.075   1.507  12.140  2.1789  0.7945  0.8827
 8857TIP3   OH248061   4.240   6.359   0.015 -0.1228  0.2189 -0.2004
 8857TIP3    H148062   4.234   6.442   0.063  1.0284 -0.6233  1.4585
 8857TIP3    H248063   4.174   6.303   0.056  0.0325 -0.1167 -0.4073
 8858TIP3   OH248064   4.927   1.779  14.255 -0.0602  0.1334  0.1863
 8858TIP3    H148065   4.850   1.809  14.301 -1.5603 -2.0438 -0.7287
 8858TIP3    H248066   4.998   1.836  14.286 -1.1226 -0.4730  4.2730
 8859TIP3   OH248067   4.750   2.434  15.374 -0.6855 -0.6909  0.0008
 8859TIP3    H148068   4.837   2.454  15.339 -0.1579 -2.4871  0.2238
 8859TIP3    H248069   4.754   2.459  15.466 -1.2847  1.6856 -0.5454
 8860TIP3   OH248070   3.363   3.879   3.123  0.1894  0.2578  0.4702
 8860TIP3    H148071   3.450   3.855   3.153  1.3561  1.2852 -1.8547
 8860TIP3    H248072   3.364   3.862   3.029 -1.4716  2.0180  0.0611
 8861TIP3   OH248073   4.657   3.672   2.432  0.7349  0.5109  0.0004
 8861TIP3    H148074   4.706   3.632   2.505 -0.7499 -0.2101  0.6485
 8861TIP3    H248075   4.650   3.602   2.367  1.3045  0.8892 -0.4796
 8862TIP3   OH248076   1.696   4.633   4.697 -0.2522 -0.1839  0.1921
 8862TIP3    H148077   1.751   4.701   4.735 -0.9672  0.6015 -0.1409
 8862TIP3    H248078   1.737   4.614   4.612  0.2164 -0.5205  0.4877
 8863TIP3   OH248079   3.631   0.607   0.084  0.0027 -0.3962  0.2045
 8863TIP3    H148080   3.722   0.582   0.101  0.2284 -0.3079 -0.7955
 8863TIP3    H248081   3.620   0.596  -0.011 -0.7746  0.4170  0.1816
 8864TIP3   OH248082   3.263   1.181  15.695  0.1042 -0.4062  0.0972
 8864TIP3    H148083   3.216   1.246  15.748  1.3608  0.9250 -0.3612
 8864TIP3    H248084   3.193   1.135  15.649 -0.8168  1.3520 -0.3891
 8865TIP3   OH248085   4.253   1.728   3.671  0.7502 -0.1973 -0.3254
 8865TIP3    H148086   4.267   1.818   3.701  1.8430 -1.0632  1.9470
 8865TIP3    H248087   4.233   1.737   3.578  1.1230  2.3755 -0.2221
 8866TIP3   OH248088   1.524   5.024  12.536 -0.6064  0.2885  0.5687
 8866TIP3    H148089   1.450   5.062  12.489 -0.1052  0.4306 -0.1201
 8866TIP3    H248090   1.501   4.932  12.545 -0.9985  0.3887  0.6154
 8867TIP3   OH248091   1.712   3.296   6.324  0.3929 -0.3234  0.5738
 8867TIP3    H148092   1.730   3.203   6.315  0.3672 -0.2131 -0.7649
 8867TIP3    H248093   1.769   3.338   6.260 -0.1670  0.5140  0.6095
 8868TIP3   OH248094   6.749   3.498  14.466 -0.0052  0.2034 -0.7485
 8868TIP3    H148095   6.685   3.523  14.399 -0.6719  1.1114  0.2027
 8868TIP3    H248096   6.744   3.568  14.531  2.6657  0.8512 -1.1161
 8869TIP3   OH248097   1.763   1.235   2.326 -0.6381 -0.4202  0.0037
 8869TIP3    H148098   1.681   1.282   2.311 -1.7218 -2.4029 -0.6341
 8869TIP3    H248099   1.797   1.217   2.238 -0.0576 -0.5232  0.2413
 8870TIP3   OH248100   2.775   1.971  16.794  0.2318  0.0400 -0.5558
 8870TIP3    H148101   2.848   1.952  16.734 -0.5274 -1.0936 -1.1345
 8870TIP3    H248102   2.727   1.889  16.802 -0.2983  0.4470  0.7963
 8871TIP3   OH248103   6.048   1.395  10.645 -0.7258 -0.3416  0.4820
 8871TIP3    H148104   6.123   1.341  10.669 -1.2850 -0.8279  1.1751
 8871TIP3    H248105   6.061   1.476  10.695 -0.0350  0.0803 -0.3434
 8872TIP3   OH248106   2.225   5.381  13.122 -0.2159  0.0855 -0.3281
 8872TIP3    H148107   2.218   5.476  13.127 -1.6418 -0.0532  2.6082
 8872TIP3    H248108   2.142   5.349  13.157  0.8362 -2.2252  0.2514
 8873TIP3   OH248109   2.601   6.721   3.605  0.2566 -0.5841  0.1817
 8873TIP3    H148110   2.553   6.754   3.529  0.0054 -1.1755  0.0781
 8873TIP3    H248111   2.535   6.718   3.675  0.0928 -1.5376  0.0010
 8874TIP3   OH248112   0.376   3.353  15.530 -0.3646  0.3118 -0.2704
 8874TIP3    H148113   0.454   3.373  15.582 -0.4572 -0.0238  0.0030
 8874TIP3    H248114   0.305   3.346  15.595 -1.0955  2.8244 -0.6760
 8875TIP3   OH248115   6.489   1.538   2.577 -0.2406 -0.2370  0.7527
 8875TIP3    H148116   6.577   1.548   2.612  0.1194 -0.9100  0.0865
 8875TIP3    H248117   6.438   1.606   2.620  1.3026  2.3187 -1.1708
 8876TIP3   OH248118   0.279   3.424  15.888  0.6353 -0.3445 -0.0357
 8876TIP3    H148119   0.231   3.354  15.844 -0.6808 -0.0672  0.8641
 8876TIP3    H248120   0.371   3.404  15.874  0.2741 -0.8165 -1.9826
 8877TIP3   OH248121   2.691   0.259   1.179 -0.0740 -0.0294  0.1592
 8877TIP3    H148122   2.693   0.285   1.271 -2.8749 -0.5458  0.4500
 8877TIP3    H248123   2.629   0.319   1.138 -0.0177 -0.7617 -1.0443
 8878TIP3   OH248124   5.906   3.371  12.033 -0.1477  0.4603 -0.3227
 8878TIP3    H148125   5.996   3.401  12.020 -0.2273  1.0610  0.4189
 8878TIP3    H248126   5.888   3.390  12.125 -0.1065 -2.1830  0.2945
 8879TIP3   OH248127   6.514   0.860  16.459 -0.4288 -0.3940 -0.0159
 8879TIP3    H148128   6.482   0.775  16.490 -0.2312 -0.3942  0.1882
 8879TIP3    H248129   6.523   0.912  16.539 -1.1384  0.0219 -0.1895
 8880TIP3   OH248130   6.630   3.922  17.248 -0.1408  0.0978 -0.3177
 8880TIP3    H148131   6.679   3.841  17.253  0.0347  0.2204  0.0123
 8880TIP3    H248132   6.694   3.991  17.267 -0.4756  0.2419  0.3403
 8881TIP3   OH248133   3.172   2.157   4.080  0.2295 -0.0056 -0.8563
 8881TIP3    H148134   3.245   2.167   4.141 -1.0834 -0.7433  0.9355
 8881TIP3    H248135   3.177   2.234   4.024  0.6809  1.4986  1.1340
 8882TIP3   OH248136   0.472   1.237  13.687 -0.2074  0.5414 -0.3547
 8882TIP3    H148137   0.490   1.224  13.780 -0.0220 -2.6663 -0.7436
 8882TIP3    H248138   0.485   1.151  13.647 -2.4285  1.2771 -3.0204
 8883TIP3   OH248139   2.196   3.833   1.428  1.2302 -0.1305 -0.3360
 8883TIP3    H148140   2.246   3.759   1.396 -1.4055 -0.5004 -4.2624
 8883TIP3    H248141   2.196   3.895   1.355 -2.8938  0.3000 -0.1932
 8884TIP3   OH248142   4.525   3.735  15.321 -0.2462 -0.5142 -0.2093
 8884TIP3    H148143   4.596   3.748  15.383 -1.2234  2.4101  0.4417
 8884TIP3    H248144   4.568   3.736  15.235  0.5559  1.0086  0.1808
 8885TIP3   OH248145   3.461   1.871  15.249  0.2684 -0.1097  0.4606
 8885TIP3    H148146   3.385   1.901  15.298  0.7755  2.0320  0.0401
 8885TIP3    H248147   3.530   1.864  15.315  0.7235  1.9183  0.2534
 8886TIP3   OH248148   2.240   3.750   1.694 -0.4452 -0.0019  0.1781
 8886TIP3    H148149   2.235   3.812   1.621 -0.2758  1.2124  1.1613
 8886TIP3    H248150   2.216   3.802   1.771  0.7875 -0.8672  1.1885
 8887TIP3   OH248151   0.270   6.301   2.519  0.4546  0.2812  0.0886
 8887TIP3    H148152   0.180   6.275   2.499  0.7160  0.7870 -2.0628
 8887TIP3    H248153   0.284   6.273   2.609 -0.7435 -2.8665 -0.5951
 8888TIP3   OH248154   0.243   1.314  13.557  0.1718 -0.3168  0.2301
 8888TIP3    H148155   0.176   1.267  13.606 -0.1219  1.7624  1.9826
 8888TIP3    H248156   0.324   1.300  13.607  0.0105  1.2404  0.9813
 8889TIP3   OH248157   4.164   6.061   4.318 -0.1548 -0.3714  0.3825
 8889TIP3    H148158   4.204   6.086   4.235  0.1525  0.4259  0.7586
 8889TIP3    H248159   4.071   6.075   4.305  0.0270  1.3473  0.6761
 8890TIP3   OH248160   6.446   0.584   1.641 -0.2754 -0.5289  0.2011
 8890TIP3    H148161   6.521   0.594   1.700  0.5315  1.4273 -1.0700
 8890TIP3    H248162   6.426   0.672   1.611 -1.0356 -1.3554 -1.9673
 8891TIP3   OH248163   5.422   2.857   6.076  0.3198 -0.1938 -0.2076
 8891TIP3    H148164   5.350   2.898   6.124  1.5834  1.0281  0.7169
 8891TIP3    H248165   5.381   2.783   6.031 -2.0763  2.0052 -1.9348
 8892TIP3   OH248166   4.791   0.666   0.171 -0.1357  0.3720 -0.0060
 8892TIP3    H148167   4.816   0.639   0.259  0.1646  0.6584  0.0000
 8892TIP3    H248168   4.806   0.588   0.117 -0.1904  0.2379  0.1708
 8893TIP3   OH248169   3.352   2.590   2.897  0.4693 -0.0901  0.0854
 8893TIP3    H148170   3.365   2.504   2.857 -1.8155  0.2996 -1.6450
 8893TIP3    H248171   3.332   2.648   2.824  1.6786  1.8992  1.2560
 8894TIP3   OH248172   3.001   1.023   0.875  0.3613 -0.8393  0.1217
 8894TIP3    H148173   3.048   0.979   0.946  1.1421 -1.2708 -0.6435
 8894TIP3    H248174   3.024   0.973   0.797  0.3350  0.2324 -0.5880
 8895TIP3   OH248175   3.474   5.492  14.310 -0.4065  0.1108  0.2013
 8895TIP3    H148176   3.418   5.563  14.342  0.8966  0.9287  0.7252
 8895TIP3    H248177   3.417   5.441  14.252 -1.6993  0.8885  0.7548
 8896TIP3   OH248178   0.835   3.976   0.752 -0.1230  0.5526  0.0814
 8896TIP3    H148179   0.881   3.993   0.670 -1.7279  1.2015 -0.7324
 8896TIP3    H248180   0.846   3.882   0.767  0.6765  0.5351 -0.5734
 8897TIP3   OH248181   1.183   5.565   0.057 -0.7373 -0.3320  0.1569
 8897TIP3    H148182   1.124   5.500   0.096 -0.7609  0.1168  0.8949
 8897TIP3    H248183   1.186   5.636   0.122  0.3690 -0.2057 -0.0141
 8898TIP3   OH248184   0.407   2.516   4.115 -0.0517  0.0961  0.3764
 8898TIP3    H148185   0.442   2.439   4.070  0.6010 -0.7850  2.2730
 8898TIP3    H248186   0.338   2.548   4.057  2.0252  0.2868 -2.2072
 8899TIP3   OH248187   1.560   6.209   2.999 -0.0278  0.2022 -0.1441
 8899TIP3    H148188   1.636   6.257   3.031 -1.0556  1.7642  0.0837
 8899TIP3    H248189   1.490   6.232   3.060 -0.7668 -0.9537 -0.5254
 8900TIP3   OH248190   0.033   5.564   1.957  0.4343  0.0795 -0.3895
 8900TIP3    H148191  -0.005   5.651   1.963  0.0681 -0.0988 -0.0794
 8900TIP3    H248192   0.057   5.555   1.864 -0.5061  0.1044 -0.6457
 8901TIP3   OH248193   3.517   0.138  12.943  0.1849  0.0500  0.1351
 8901TIP3    H148194   3.541   0.046  12.945 -0.9592 -0.2751 -0.2040
 8901TIP3    H248195   3.578   0.177  12.880  0.2710 -0.6054 -0.1984
 8902TIP3   OH248196   1.470   0.609  12.078 -0.4238 -0.1305  0.1687
 8902TIP3    H148197   1.386   0.587  12.039 -1.2584  0.7004  1.4234
 8902TIP3    H248198   1.490   0.697  12.045  0.9551 -1.0623 -1.6745
 8903TIP3   OH248199   6.370   5.714  15.735  0.9357  0.5991 -0.0034
 8903TIP3    H148200   6.455   5.691  15.774  0.2254  0.8786  1.7967
 8903TIP3    H248201   6.325   5.763  15.803 -1.6738 -1.6297  0.0100
 8904TIP3   OH248202   3.407   2.809  13.614  0.1724  0.5185 -0.0888
 8904TIP3    H148203   3.321   2.830  13.578 -0.0669  3.6830  1.9220
 8904TIP3    H248204   3.469   2.851  13.554  0.0359  1.8117  0.6495
 8905TIP3   OH248205   2.467   5.944  12.286  0.2071 -0.0617 -0.4217
 8905TIP3    H148206   2.526   5.869  12.282  0.7551  0.3762 -0.8418
 8905TIP3    H248207   2.395   5.915  12.341  0.4701 -0.8510 -0.4755
 8906TIP3   OH248208   0.512   4.935   6.018 -0.3775 -0.3518 -0.7543
 8906TIP3    H148209   0.521   4.980   6.102 -1.0258  0.0471 -0.8946
 8906TIP3    H248210   0.591   4.959   5.970  0.1030 -0.7609 -0.1780
 8907TIP3   OH248211   3.822   3.101  15.680 -0.2966  0.1076 -0.0963
 8907TIP3    H148212   3.847   3.189  15.652  0.6287 -0.5584 -1.4098
 8907TIP3    H248213   3.746   3.079  15.626  0.1971 -0.3612 -0.6003
 8908TIP3   OH248214   2.693   6.278  13.255 -0.4628 -0.2768  0.0196
 8908TIP3    H148215   2.749   6.206  13.224  0.9648  0.1862  1.3874
 8908TIP3    H248216   2.683   6.261  13.349  1.0715  2.0069  0.6856
 8909TIP3   OH248217   5.367   0.738  10.499 -0.8598  0.5348  0.4695
 8909TIP3    H148218   5.410   0.786  10.571 -0.5010  0.9519 -0.0174
 8909TIP3    H248219   5.402   0.778  10.420 -2.3987  1.1294  0.0444
 8910TIP3   OH248220   1.065   4.144   5.257  0.4457 -0.5402  0.1183
 8910TIP3    H148221   1.156   4.147   5.225  0.0126 -0.5662 -1.1649
 8910TIP3    H248222   1.017   4.098   5.188 -1.0142  1.6678 -0.4256
 8911TIP3   OH248223   3.092   2.210  11.135 -0.0629 -0.1208  0.3726
 8911TIP3    H148224   3.054   2.152  11.070 -0.5164  0.2801  0.2784
 8911TIP3    H248225   3.176   2.238  11.097 -0.0193 -0.4147  0.2542
 8912TIP3   OH248226   1.964   0.286   3.082 -0.0724  0.0114  0.2618
 8912TIP3    H148227   1.885   0.242   3.049 -0.5598 -1.1049  2.6868
 8912TIP3    H248228   2.036   0.227   3.056 -0.5617 -1.4598  2.0335
 8913TIP3   OH248229   5.931   4.432   4.639  0.6028  0.1453 -0.2671
 8913TIP3    H148230   6.002   4.484   4.678  1.2090 -1.6102  1.0990
 8913TIP3    H248231   5.896   4.488   4.570  2.5054  1.5802 -0.1662
 8914TIP3   OH248232   5.402   3.904  13.238  0.0450  0.1982 -0.1373
 8914TIP3    H148233   5.429   3.987  13.276  1.6832  0.1185 -1.0332
 8914TIP3    H248234   5.332   3.926  13.176 -1.9043  0.4523  2.0250
 8915TIP3   OH248235   2.449   0.514   4.185 -0.0141 -0.1618 -0.0304
 8915TIP3    H148236   2.404   0.461   4.119 -1.5830  0.1162  0.7689
 8915TIP3    H248237   2.388   0.518   4.258  2.1657 -1.5765  2.0295
 8916TIP3   OH248238   4.714   4.077   4.045 -0.4382 -0.2156 -0.8095
 8916TIP3    H148239   4.801   4.099   4.076 -1.1283 -0.9100  1.8372
 8916TIP3    H248240   4.691   3.997   4.092 -2.6201  0.1015 -1.2242
 8917TIP3   OH248241   1.188   2.211  14.765 -0.1124  0.2441  0.5505
 8917TIP3    H148242   1.192   2.268  14.688  0.0382 -0.4510  0.0360
 8917TIP3    H248243   1.107   2.162  14.753  0.1840 -0.2497  0.5611
 8918TIP3   OH248244   1.014   6.015   4.034 -0.4219  0.5593 -0.1237
 8918TIP3    H148245   1.021   5.920   4.043  1.7449  0.8883  3.5051
 8918TIP3    H248246   1.074   6.036   3.962  4.0013 -0.5474  2.8513
 8919TIP3   OH248247   2.503   0.777  13.463 -0.2902 -0.0908 -0.3423
 8919TIP3    H148248   2.589   0.751  13.430  0.0944  0.3922  0.2572
 8919TIP3    H248249   2.440   0.729  13.409  0.3840 -1.7523  0.2797
 8920TIP3   OH248250   6.789   1.058  12.996  0.3745  0.1271 -0.2610
 8920TIP3    H148251   6.855   1.127  12.990 -0.9643  1.3961 -1.3429
 8920TIP3    H248252   6.834   0.979  12.968  1.8917  0.5778  0.7697
 8921TIP3   OH248253   1.941   3.097  15.873  0.1018  0.0060  0.1705
 8921TIP3    H148254   1.986   3.151  15.807 -0.3987 -0.2535 -0.3990
 8921TIP3    H248255   1.905   3.024  15.823  1.1229 -1.0822  1.0055
 8922TIP3   OH248256   5.146   0.668  15.578 -0.0499 -0.0135  0.4760
 8922TIP3    H148257   5.199   0.624  15.645  0.5138 -0.0258  0.0292
 8922TIP3    H248258   5.109   0.597  15.526  2.7141 -0.0255 -1.6951
 8923TIP3   OH248259   0.404   6.400   0.744  0.3336  0.1133 -0.8288
 8923TIP3    H148260   0.448   6.442   0.670 -0.9641  1.0111 -1.1294
 8923TIP3    H248261   0.346   6.335   0.704 -0.3495  0.5777 -0.6092
 8924TIP3   OH248262   1.520   4.055  11.921  0.5802 -0.2590 -0.0832
 8924TIP3    H148263   1.477   4.140  11.915 -1.7806 -1.3626  0.2026
 8924TIP3    H248264   1.472   3.999  11.860  2.3913 -1.2908 -0.6277
 8925TIP3   OH248265   0.685   2.578  16.574 -0.7330 -0.0855  0.6128
 8925TIP3    H148266   0.644   2.492  16.586 -1.5266  0.3315  0.9518
 8925TIP3    H248267   0.766   2.573  16.624 -0.4167 -0.8875  0.0248
 8926TIP3   OH248268   0.004   4.272  14.481 -0.1235 -0.2678  0.1409
 8926TIP3    H148269  -0.005   4.230  14.567 -2.2265 -1.2383 -0.4847
 8926TIP3    H248270  -0.085   4.294  14.456  0.4783  0.2356 -1.6848
 8927TIP3   OH248271   5.579   6.381  16.275  0.1152  0.2374  0.8214
 8927TIP3    H148272   5.576   6.296  16.232 -1.3985 -0.0604  1.4656
 8927TIP3    H248273   5.534   6.440  16.215  1.2693  0.6397  0.3199
 8928TIP3   OH248274   1.185   5.748  14.761 -0.1140  0.3415  0.2965
 8928TIP3    H148275   1.170   5.674  14.703  1.7657 -0.8714  1.2863
 8928TIP3    H248276   1.149   5.823  14.714  1.5939 -0.5261 -2.5744
 8929TIP3   OH248277   3.524   0.201   1.871  0.0611 -0.1810 -0.3132
 8929TIP3    H148278   3.564   0.141   1.934 -0.2366 -1.6786 -1.5112
 8929TIP3    H248279   3.449   0.154   1.837  0.4668  0.4029 -2.1234
 8930TIP3   OH248280   2.476   5.626  15.500  0.3537 -0.2148  0.2953
 8930TIP3    H148281   2.498   5.710  15.539  0.2317  1.1505 -2.3434
 8930TIP3    H248282   2.381   5.628  15.491  0.4035 -0.3523 -0.3302
 8931TIP3   OH248283   4.258   6.203  11.554  0.3986  0.1285  0.2388
 8931TIP3    H148284   4.311   6.123  11.558  0.6170  0.2157 -0.6983
 8931TIP3    H248285   4.294   6.252  11.481 -1.0264  0.1507 -0.4746
 8932TIP3   OH248286   6.391   0.277   2.146  0.0537  0.1522 -0.5061
 8932TIP3    H148287   6.375   0.212   2.077 -0.9562 -1.2592  0.9570
 8932TIP3    H248288   6.376   0.361   2.104 -0.4261 -0.6551 -2.0329
 8933TIP3   OH248289   5.732   6.775   2.214  0.1593 -0.1494  0.7118
 8933TIP3    H148290   5.720   6.692   2.168  1.4234  1.2643 -2.5108
 8933TIP3    H248291   5.758   6.750   2.303  0.7953 -3.1875 -0.2063
 8934TIP3   OH248292   5.567   3.615   1.770 -0.1653  0.0090  0.2899
 8934TIP3    H148293   5.638   3.650   1.716 -0.9552  2.1686  0.5407
 8934TIP3    H248294   5.598   3.529   1.798  2.2082  0.7466  0.1328
 8935TIP3   OH248295   1.316   3.368  16.414  0.0698  0.2325  0.0260
 8935TIP3    H148296   1.352   3.339  16.498 -0.7325 -2.1275 -0.3669
 8935TIP3    H248297   1.267   3.448  16.435 -1.0485 -0.9208  2.0444
 8936TIP3   OH248298   5.408   4.800  11.086  0.4994 -0.2616 -0.2864
 8936TIP3    H148299   5.417   4.888  11.049  2.0036  0.5569  1.8624
 8936TIP3    H248300   5.401   4.743  11.009 -1.1407  1.7491 -1.7231
 8937TIP3   OH248301   1.632   5.414   1.392 -0.0255  0.3913 -0.0535
 8937TIP3    H148302   1.600   5.467   1.318  1.1965 -1.6719 -2.2071
 8937TIP3    H248303   1.552   5.378   1.431 -0.6677  0.3035 -1.3692
 8938TIP3   OH248304   4.630   3.629  11.318  0.4665  0.5096  0.3314
 8938TIP3    H148305   4.633   3.649  11.224  1.9396 -0.3214  0.1792
 8938TIP3    H248306   4.694   3.688  11.357  0.2602  0.4555  0.7548
 8939TIP3   OH248307   5.346   4.797  16.235  0.4245  0.8191 -0.0241
 8939TIP3    H148308   5.275   4.771  16.176 -0.1745  0.7295  0.7232
 8939TIP3    H248309   5.373   4.883  16.203  1.0590  0.1865 -1.2751
 8940TIP3   OH248310   4.554   1.167  15.045 -0.1187 -1.0452  0.6625
 8940TIP3    H148311   4.576   1.108  15.116  2.7412 -0.6879  0.1717
 8940TIP3    H248312   4.472   1.209  15.073  0.2224 -1.8711  3.1094
 8941TIP3   OH248313   5.014   4.572  14.869  0.3724  0.0532 -0.1850
 8941TIP3    H148314   5.071   4.507  14.910 -0.5494  0.2657  1.4838
 8941TIP3    H248315   5.070   4.649  14.858  0.4796  0.2115  1.3035
 8942TIP3   OH248316   0.056   2.572   5.077 -0.0996 -0.4403  0.5814
 8942TIP3    H148317   0.057   2.496   5.019  0.9349 -0.2727  0.3640
 8942TIP3    H248318   0.033   2.535   5.163  1.4682 -1.1969  0.7118
 8943TIP3   OH248319   1.989   3.581  12.730 -0.0683 -0.3474 -0.0808
 8943TIP3    H148320   1.904   3.620  12.711  1.0585  1.5187 -1.6960
 8943TIP3    H248321   2.006   3.523  12.656 -0.1582 -1.1306  0.5071
 8944TIP3   OH248322   5.449   4.619   4.565  0.1524 -0.3118 -0.2877
 8944TIP3    H148323   5.466   4.668   4.645 -1.7222  0.3429 -0.2536
 8944TIP3    H248324   5.459   4.527   4.592 -1.9591 -0.1908  1.1401
 8945TIP3   OH248325   3.447   2.587   0.547 -0.0203  0.0899  0.5553
 8945TIP3    H148326   3.427   2.669   0.592  0.1632 -0.8770  2.4737
 8945TIP3    H248327   3.384   2.583   0.475 -1.6163  0.7757  1.8669
 8946TIP3   OH248328   3.290   3.041   2.027 -0.2852 -0.2775  0.0264
 8946TIP3    H148329   3.364   3.053   1.968 -0.3543 -2.9663 -0.7413
 8946TIP3    H248330   3.231   2.981   1.981 -0.9767 -1.4421  2.2511
 8947TIP3   OH248331   3.427   0.342  15.168  0.1377  0.3163  0.0570
 8947TIP3    H148332   3.464   0.364  15.083 -0.8446  0.5347 -0.3354
 8947TIP3    H248333   3.445   0.249  15.179  0.5036  0.3486 -0.2646
 8948TIP3   OH248334   0.687   3.723  13.237 -0.2262 -0.3594  0.0847
 8948TIP3    H148335   0.735   3.675  13.169 -0.6276 -0.8629  0.1449
 8948TIP3    H248336   0.725   3.810  13.237  0.0794 -0.4876 -0.4829
 8949TIP3   OH248337   4.977   2.354  15.910  0.3095 -0.0208 -0.2216
 8949TIP3    H148338   4.959   2.274  15.860  1.7511 -0.6131  0.1540
 8949TIP3    H248339   4.893   2.400  15.913 -0.2881 -0.9814 -1.3938
 8950TIP3   OH248340   4.345   0.520   4.840  0.0458 -0.4057 -0.1546
 8950TIP3    H148341   4.350   0.574   4.919 -2.6776  0.5858 -0.5776
 8950TIP3    H248342   4.253   0.494   4.834  0.7961 -3.1779 -1.2896
 8951TIP3   OH248343   0.474   0.057   5.549  0.1296 -0.1557  0.7473
 8951TIP3    H148344   0.439   0.083   5.634  1.1368  0.5220  0.9783
 8951TIP3    H248345   0.447   0.126   5.489 -0.6368 -0.6669  0.4831
 8952TIP3   OH248346   4.078   0.330  14.919 -0.4740  0.7172  0.5938
 8952TIP3    H148347   4.127   0.248  14.910  1.1530  1.7719 -0.9106
 8952TIP3    H248348   3.986   0.305  14.910 -0.0224 -0.9459  0.3310
 8953TIP3   OH248349   2.728   0.261  11.374  0.0656 -0.1192  0.0337
 8953TIP3    H148350   2.816   0.232  11.348 -0.0759 -1.2593  0.7584
 8953TIP3    H248351   2.710   0.213  11.455 -1.3157 -0.0668 -0.2168
 8954TIP3   OH248352   4.012   0.905   2.989 -0.1709 -0.1171 -0.3274
 8954TIP3    H148353   3.953   0.955   3.046 -1.7045 -1.3442 -0.7453
 8954TIP3    H248354   4.047   0.836   3.045 -1.4777 -1.1672 -0.7512
 8955TIP3   OH248355   0.044   4.546  12.688  0.2049 -0.1036  0.0255
 8955TIP3    H148356   0.099   4.589  12.753 -0.3041  1.4914 -0.5433
 8955TIP3    H248357   0.080   4.574  12.604 -0.5682 -0.2464 -0.3584
 8956TIP3   OH248358   4.254   0.551   3.720  0.5887  0.0057  0.1234
 8956TIP3    H148359   4.272   0.557   3.814 -1.3321 -0.4562  0.5681
 8956TIP3    H248360   4.211   0.466   3.709  0.2967  0.2920 -1.0768
 8957TIP3   OH248361   6.000   2.630   3.081 -0.5014 -0.2897  0.0172
 8957TIP3    H148362   5.971   2.697   3.019  0.4322  0.9821  0.9077
 8957TIP3    H248363   5.994   2.548   3.033 -1.0132  0.5144 -1.3279
 8958TIP3   OH248364   4.290   3.010   4.444 -0.4794 -0.1283 -0.2186
 8958TIP3    H148365   4.361   3.060   4.485 -1.3918  0.5871  0.5625
 8958TIP3    H248366   4.332   2.958   4.376  0.6409  1.0606 -0.4694
 8959TIP3   OH248367   6.803   0.260   5.404 -0.0666 -0.1610 -0.1174
 8959TIP3    H148368   6.857   0.250   5.326 -1.4999 -0.4562 -1.1040
 8959TIP3    H248369   6.829   0.188   5.462  0.3533 -0.4890 -0.7115
 8960TIP3   OH248370   5.524   5.760   6.490 -0.0704  0.2684 -0.2613
 8960TIP3    H148371   5.597   5.724   6.540 -0.7846  1.3198  1.6268
 8960TIP3    H248372   5.450   5.703   6.511 -0.5252  1.0952  0.4429
 8961TIP3   OH248373   4.590   4.369   3.470  0.3501  0.6831  0.1590
 8961TIP3    H148374   4.592   4.327   3.384 -0.9312 -0.2649  0.5671
 8961TIP3    H248375   4.681   4.392   3.487  0.9108 -0.8472 -0.6132
 8962TIP3   OH248376   5.151   0.122   5.886 -0.8878 -0.3962  0.1785
 8962TIP3    H148377   5.085   0.186   5.858  1.8163  2.0716 -1.0342
 8962TIP3    H248378   5.181   0.155   5.971 -1.6546 -1.9552  1.1128
 8963TIP3   OH248379   2.088   4.490   3.580 -0.6171 -0.2118  0.2136
 8963TIP3    H148380   2.110   4.535   3.499  0.9585 -0.5193  0.4370
 8963TIP3    H248381   2.145   4.530   3.646 -0.6095 -1.1547  0.8023
 8964TIP3   OH248382   4.974   6.585  14.086  0.1227 -0.1605 -0.3892
 8964TIP3    H148383   5.054   6.555  14.129 -0.1545  0.2632  0.4495
 8964TIP3    H248384   4.980   6.551  13.997 -0.1976 -2.8145  0.5060
 8965TIP3   OH248385   4.498   4.181   3.652  0.2152 -0.0233 -0.0092
 8965TIP3    H148386   4.483   4.228   3.734  3.6704 -0.5146  1.0791
 8965TIP3    H248387   4.516   4.249   3.588  0.6300  0.2913  0.4343
 8966TIP3   OH248388   3.310   1.845  12.241  0.3700  0.3457  0.2370
 8966TIP3    H148389   3.228   1.892  12.225 -0.4003 -1.2620 -0.7310
 8966TIP3    H248390   3.377   1.914  12.244 -0.6030  1.4704 -1.8473
 8967TIP3   OH248391   1.934   2.587  10.650  0.5162  0.1570 -0.0074
 8967TIP3    H148392   2.028   2.569  10.644  1.0670  1.3377  3.1157
 8967TIP3    H248393   1.908   2.609  10.561  3.7539  2.1244 -0.6261
 8968TIP3   OH248394   3.406   5.127  11.469 -0.6523 -0.1010 -0.0012
 8968TIP3    H148395   3.463   5.052  11.451 -0.9451 -0.2585 -0.2736
 8968TIP3    H248396   3.379   5.114  11.560  0.8614  0.7224  0.5985
 8969TIP3   OH248397   1.410   6.026   3.763 -0.3204  0.4956  0.0637
 8969TIP3    H148398   1.425   6.065   3.849  2.2551 -0.7026  0.2790
 8969TIP3    H248399   1.494   6.034   3.718 -1.7152  1.4905 -2.5774
 8970TIP3   OH248400   4.853   5.905  13.555  0.2657 -0.1218 -0.0469
 8970TIP3    H148401   4.804   5.966  13.500 -0.9246  1.2329  2.3899
 8970TIP3    H248402   4.821   5.920  13.643  0.7830 -3.4872  0.8616
 8971TIP3   OH248403   0.326   4.060   4.377  0.0875 -0.5436  0.7869
 8971TIP3    H148404   0.248   4.013   4.407 -1.8054  2.2208  0.5244
 8971TIP3    H248405   0.321   4.145   4.419  1.3223  0.8170 -1.6261
 8972TIP3   OH248406   3.644   0.218   3.568 -0.2597 -0.2433  0.1164
 8972TIP3    H148407   3.681   0.160   3.635  0.5977 -0.9703 -0.9338
 8972TIP3    H248408   3.696   0.298   3.574  0.4408 -0.6623 -0.2974
 8973TIP3   OH248409   3.412   0.735  15.275 -0.7877 -0.3563  0.1107
 8973TIP3    H148410   3.418   0.722  15.180 -0.4957 -0.4927  0.1445
 8973TIP3    H248411   3.459   0.817  15.290 -1.2243 -0.1011  0.0860
 8974TIP3   OH248412   1.361   1.785  14.196  0.1967  0.2232  0.3435
 8974TIP3    H148413   1.361   1.773  14.101 -2.5304 -0.0524  0.2978
 8974TIP3    H248414   1.399   1.704  14.230  2.0398  0.6906 -0.4761
 8975TIP3   OH248415   5.056   3.822   3.479 -0.1462 -0.0433 -0.9205
 8975TIP3    H148416   5.041   3.851   3.389 -0.8634 -0.0762 -0.8131
 8975TIP3    H248417   5.085   3.731   3.470 -0.1678 -0.0316 -1.1170
 8976TIP3   OH248418   1.461   2.317  12.239  0.2051 -0.0951  0.2620
 8976TIP3    H148419   1.523   2.246  12.222  0.4774  0.4381 -1.0970
 8976TIP3    H248420   1.410   2.324  12.158 -0.3896  0.6972  0.6932
 8977TIP3   OH248421   0.553   5.088  14.092 -0.6331  0.4357 -0.1485
 8977TIP3    H148422   0.514   5.015  14.141  1.5259 -2.0331 -1.8559
 8977TIP3    H248423   0.605   5.135  14.157  1.2841 -2.0986  0.3019
 8978TIP3   OH248424   0.101   1.661   5.798  0.3759  0.0220 -0.6713
 8978TIP3    H148425   0.037   1.684   5.866  0.2619  1.1342 -1.1343
 8978TIP3    H248426   0.054   1.599   5.742  0.7816 -1.6660  0.7500
 8979TIP3   OH248427   3.418   5.040   5.813  0.1030 -0.3497  0.3286
 8979TIP3    H148428   3.454   4.991   5.739 -0.1113 -0.0348  0.0099
 8979TIP3    H248429   3.384   5.121   5.774  0.7735  0.2163  0.8851
 8980TIP3   OH248430   2.568   2.981  14.233 -0.2706 -0.5009  0.0486
 8980TIP3    H148431   2.481   2.973  14.272 -0.4386 -2.0227 -0.5519
 8980TIP3    H248432   2.628   2.985  14.307 -0.7326 -1.3563  0.4785
 8981TIP3   OH248433   2.846   2.167   2.799 -0.3090 -0.1727  0.2912
 8981TIP3    H148434   2.805   2.254   2.797  2.1381  1.0602 -0.1511
 8981TIP3    H248435   2.825   2.129   2.714 -0.4858  0.4683  0.0418
 8982TIP3   OH248436   3.888   6.713   4.059  0.4467  0.9298 -0.6524
 8982TIP3    H148437   3.968   6.742   4.103 -0.8232  0.7033  1.9995
 8982TIP3    H248438   3.818   6.765   4.098 -1.0897 -1.0306 -0.5923
 8983TIP3   OH248439   4.620   0.678   5.621  0.1847 -0.1728 -0.3545
 8983TIP3    H148440   4.544   0.673   5.563 -0.2329  1.2417  0.0308
 8983TIP3    H248441   4.682   0.614   5.585  0.4398  1.4527 -3.0904
 8984TIP3   OH248442   5.332   0.618   5.907  0.3067  0.3143  0.2096
 8984TIP3    H148443   5.275   0.658   5.841  1.9552  1.7493 -0.4404
 8984TIP3    H248444   5.419   0.619   5.868  0.7781 -2.1645  1.0130
 8985TIP3   OH248445   4.902   6.749  11.869 -1.1835  0.2673 -0.3530
 8985TIP3    H148446   4.818   6.736  11.913 -0.8135  1.3435  0.7520
 8985TIP3    H248447   4.882   6.807  11.795 -1.4385  0.4220 -0.1638
 8986TIP3   OH248448   3.081   3.983   3.221  0.4212  0.3557  0.5534
 8986TIP3    H148449   3.071   4.011   3.312  0.6488  3.1768 -0.2209
 8986TIP3    H248450   3.176   3.985   3.206  0.4154 -0.5186  0.3343
 8987TIP3   OH248451   1.939   3.589   1.499  0.2815  0.1824 -0.6042
 8987TIP3    H148452   1.928   3.665   1.441  1.3620 -0.2193 -1.3666
 8987TIP3    H248453   1.993   3.621   1.571 -0.9190  0.6374  0.1212
 8988TIP3   OH248454   3.134   0.968   2.999 -0.3696  0.3927  0.1595
 8988TIP3    H148455   3.089   1.049   2.974 -0.1169 -0.1001 -2.0732
 8988TIP3    H248456   3.148   0.922   2.917  1.4887 -0.9003  1.1334
 8989TIP3   OH248457   5.383   6.753   2.652  0.3872  0.3115  0.6888
 8989TIP3    H148458   5.419   6.683   2.706  2.0241  0.3655 -0.2506
 8989TIP3    H248459   5.319   6.710   2.596  0.3338 -0.1674  1.1152
 8990TIP3   OH248460   5.431   2.208   4.094 -0.4607 -0.6330  0.3049
 8990TIP3    H148461   5.526   2.210   4.106  0.0807  1.8411 -2.8925
 8990TIP3    H248462   5.398   2.278   4.151  0.3020  1.5491 -1.7745
 8991TIP3   OH248463   5.514   3.393  16.539  0.3233 -0.0184 -0.0237
 8991TIP3    H148464   5.587   3.434  16.586  0.2590 -1.6091  1.5873
 8991TIP3    H248465   5.513   3.303  16.571  0.0373 -1.1376 -2.9150
 8992TIP3   OH248466   2.869   5.885   0.638 -0.3469  0.5432  0.0601
 8992TIP3    H148467   2.841   5.890   0.546 -1.0801 -0.0296  0.2367
 8992TIP3    H248468   2.883   5.791   0.652 -0.4982  0.6037  0.6060
 8993TIP3   OH248469   3.252   2.146  11.961 -0.1103 -0.3823 -0.2580
 8993TIP3    H148470   3.196   2.156  11.884 -0.5956  1.1318  0.2554
 8993TIP3    H248471   3.251   2.232  12.003  1.1243 -0.8384  0.7838
 8994TIP3   OH248472   2.372   3.441   4.995 -0.0599 -0.2313 -0.3108
 8994TIP3    H148473   2.392   3.393   4.915  0.6674  1.0540 -0.9244
 8994TIP3    H248474   2.437   3.410   5.058 -1.1898 -1.9177  0.1089
 8995TIP3   OH248475   3.951   0.438   2.173 -0.0056 -0.1398 -0.1172
 8995TIP3    H148476   3.918   0.443   2.262 -1.1940 -1.2783 -0.4583
 8995TIP3    H248477   3.906   0.509   2.127 -0.5180 -0.4700 -0.1341
 8996TIP3   OH248478   2.968   4.641   0.729 -0.1731 -0.0284 -0.0124
 8996TIP3    H148479   3.063   4.652   0.741 -0.0702 -0.2823 -0.5317
 8996TIP3    H248480   2.948   4.692   0.651 -0.6387  0.7876  0.6276
 8997TIP3   OH248481   3.217   0.880   4.989 -0.1020  0.0541  0.5044
 8997TIP3    H148482   3.212   0.793   4.951 -1.9800  0.1908  0.3094
 8997TIP3    H248483   3.301   0.915   4.960  0.3774 -1.4250  0.0379
 8998TIP3   OH248484   2.562   5.585  15.226  0.0192  0.3143 -0.0744
 8998TIP3    H148485   2.550   5.678  15.211  2.4531  0.9154  1.2398
 8998TIP3    H248486   2.518   5.568  15.309 -1.6159 -0.0808 -0.9631
 8999TIP3   OH248487   4.623   6.620   1.832 -0.4061  0.0400 -0.4540
 8999TIP3    H148488   4.529   6.636   1.829 -0.3446  0.3701 -0.6033
 8999TIP3    H248489   4.662   6.697   1.792 -0.0537  0.0971 -0.0091
 9000TIP3   OH248490   5.337   3.500  15.411 -0.2668  0.0535  0.2211
 9000TIP3    H148491   5.264   3.562  15.418 -1.2115 -1.1140  0.9967
 9000TIP3    H248492   5.362   3.481  15.501  3.3804  3.0535  0.0565
 9001TIP3   OH248493   1.899   1.206   2.900 -0.1525  0.4058 -0.2998
 9001TIP3    H148494   1.856   1.291   2.909  0.0202  0.2804  2.8049
 9001TIP3    H248495   1.993   1.226   2.901 -0.1033  0.1954  0.9069
 9002TIP3   OH248496   2.891   1.241   0.098  0.1615  0.0867 -0.2027
 9002TIP3    H148497   2.981   1.259   0.124 -0.2103 -1.2927  2.3977
 9002TIP3    H248498   2.861   1.322   0.058  2.7236  0.3643 -1.7539
 9003TIP3   OH248499   6.147   4.072  16.780 -0.5205  0.6183  0.0815
 9003TIP3    H148500   6.127   4.141  16.716 -1.4520  0.9651  0.7228
 9003TIP3    H248501   6.108   3.993  16.743  1.4265  0.1572 -1.1621
 9004TIP3   OH248502   2.443   1.633  16.825 -0.1505 -0.0155 -0.6455
 9004TIP3    H148503   2.422   1.711  16.876  2.3526  0.3566 -0.0417
 9004TIP3    H248504   2.436   1.662  16.734 -1.5396  0.2196 -0.4772
 9005TIP3   OH248505   1.534   3.904   0.728 -0.0858 -0.3366 -0.6548
 9005TIP3    H148506   1.481   3.830   0.699  0.3679 -0.5984 -0.8255
 9005TIP3    H248507   1.477   3.980   0.715 -0.5528 -0.6492 -0.4845
 9006TIP3   OH248508   4.987   2.085  11.341  0.5329 -0.2338 -0.3027
 9006TIP3    H148509   5.050   2.118  11.405  1.2899 -0.3349 -0.9850
 9006TIP3    H248510   5.040   2.039  11.276 -0.3224 -1.0777 -0.4326
 9007TIP3   OH248511   4.834   2.513  10.786 -0.3601 -0.2725 -0.0004
 9007TIP3    H148512   4.753   2.564  10.784  0.3423  1.2199  3.1994
 9007TIP3    H248513   4.897   2.566  10.737 -0.7009 -0.3194 -0.5082
 9008TIP3   OH248514   0.409   5.204   2.036  0.3828 -0.1525  0.2920
 9008TIP3    H148515   0.405   5.297   2.014  0.4748 -0.2645 -0.2007
 9008TIP3    H248516   0.497   5.177   2.012  0.4026 -0.3361  0.5644
 9009TIP3   OH248517   5.551   6.461  15.964  0.2479  0.1301  0.0907
 9009TIP3    H148518   5.460   6.435  15.972  0.1146  0.8894  1.4429
 9009TIP3    H248519   5.598   6.381  15.940 -0.5656 -0.6290  0.9539
 9010TIP3   OH248520   3.589   6.313   1.010  0.5076  0.0446  0.0444
 9010TIP3    H148521   3.500   6.350   1.008  0.9452  1.1440 -0.0022
 9010TIP3    H248522   3.600   6.284   1.101 -0.4398 -1.5140 -0.3121
 9011TIP3   OH248523   3.753   4.863  17.218  0.0246  0.5046 -0.3883
 9011TIP3    H148524   3.762   4.789  17.157 -0.8668  0.7884 -0.8816
 9011TIP3    H248525   3.842   4.892  17.233  0.3313 -0.1718 -0.8226
 9012TIP3   OH248526   0.863   4.266   3.849 -0.0338 -0.1687  0.0426
 9012TIP3    H148527   0.811   4.221   3.783  0.0651  0.3498 -0.3931
 9012TIP3    H248528   0.843   4.359   3.837  1.5764  0.1239 -0.6735
 9013TIP3   OH248529   2.578   2.606  13.966 -0.0674 -0.2497  0.0459
 9013TIP3    H148530   2.493   2.639  13.997 -0.4618 -0.1388 -1.1018
 9013TIP3    H248531   2.558   2.523  13.922  0.3179  0.0589 -0.7438
 9014TIP3   OH248532   6.254   2.440   6.926 -0.4108  0.5492 -0.6176
 9014TIP3    H148533   6.164   2.442   6.957 -0.3411  0.9886 -0.4400
 9014TIP3    H248534   6.254   2.495   6.848  0.0679  2.0194  0.3830
 9015TIP3   OH248535   0.215   0.103   1.538 -0.0254 -0.3844  0.4640
 9015TIP3    H148536   0.168   0.108   1.455  0.2149  1.8308  0.3853
 9015TIP3    H248537   0.147   0.110   1.605  0.0165  2.8191  0.3516
 9016TIP3   OH248538   1.062   5.861   5.775  0.6956  0.6293  0.7615
 9016TIP3    H148539   1.090   5.802   5.846  0.4258  1.3936  1.5261
 9016TIP3    H248540   1.143   5.894   5.737  0.8602 -0.6274 -0.0275
 9017TIP3   OH248541   1.111   6.069  16.436  0.4792 -0.0265  0.6040
 9017TIP3    H148542   1.186   6.077  16.496  1.5594 -0.5849 -0.6174
 9017TIP3    H248543   1.094   5.975  16.432  1.3428 -0.1505 -0.9973
 9018TIP3   OH248544   5.522   3.255   3.332 -0.2656  0.3870 -0.2770
 9018TIP3    H148545   5.484   3.172   3.302 -0.6166  0.3359  0.2998
 9018TIP3    H248546   5.448   3.305   3.365  0.0508  0.6269  0.0764
 9019TIP3   OH248547   5.876   1.380  14.807 -0.8599  0.2957  0.2406
 9019TIP3    H148548   5.789   1.340  14.806 -1.1489  0.9069  0.6033
 9019TIP3    H248549   5.881   1.427  14.723 -0.9498  0.4087  0.2983
 9020TIP3   OH248550   1.625   5.766   1.430  0.2720  0.2540 -0.5049
 9020TIP3    H148551   1.714   5.772   1.397  1.3643 -2.3631  1.6158
 9020TIP3    H248552   1.633   5.723   1.515 -2.9279  0.8980  0.2633
 9021TIP3   OH248553   4.904   1.859   3.682  0.1103 -0.3084 -0.2575
 9021TIP3    H148554   4.867   1.933   3.634 -0.7201 -0.4604  0.1387
 9021TIP3    H248555   4.969   1.822   3.622 -0.6806 -0.3017 -1.1397
 9022TIP3   OH248556   5.303   0.192  12.472 -0.1472  0.4221  0.0726
 9022TIP3    H148557   5.397   0.184  12.484 -0.1853 -2.2362 -0.6843
 9022TIP3    H248558   5.293   0.237  12.388  0.3935  1.5453  0.5927
 9023TIP3   OH248559   5.411   0.620   1.890  0.0616  0.1510  0.0329
 9023TIP3    H148560   5.507   0.625   1.889  0.1512 -0.7800  1.8250
 9023TIP3    H248561   5.391   0.543   1.836  0.4598 -0.9368  1.3865
 9024TIP3   OH248562   5.340   2.544   6.063  0.1175  0.2156  0.1226
 9024TIP3    H148563   5.409   2.506   6.008  1.4008  0.6840  1.3534
 9024TIP3    H248564   5.357   2.509   6.150 -0.4566  1.2941  0.6873
 9025TIP3   OH248565   3.340   2.918   5.141 -0.9157 -0.8907 -0.1808
 9025TIP3    H148566   3.389   2.847   5.182 -0.1247 -0.5176 -0.4619
 9025TIP3    H248567   3.383   2.931   5.056 -0.8472  0.1411  0.0009
 9026TIP3   OH248568   3.207   0.009   2.926 -0.5210  0.8750  0.5340
 9026TIP3    H148569   3.274   0.076   2.912  1.1980 -0.7242  0.8152
 9026TIP3    H248570   3.183   0.019   3.018 -0.0735  0.9214  0.6483
 9027TIP3   OH248571   4.895   4.795  15.793 -0.1899 -0.3191  0.5259
 9027TIP3    H148572   4.956   4.735  15.836  0.7527  0.3277  0.1380
 9027TIP3    H248573   4.842   4.831  15.864 -0.3989 -1.1885  0.8235
 9028TIP3   OH248574   2.912   2.658  14.340  0.5808  0.2493  0.0136
 9028TIP3    H148575   2.887   2.740  14.297 -0.0934 -0.1553 -0.3808
 9028TIP3    H248576   2.991   2.681  14.390  1.6348  0.6450 -1.7422
 9029TIP3   OH248577   5.308   4.588  13.837  0.4839  0.5142 -0.5072
 9029TIP3    H148578   5.271   4.676  13.849 -1.4943 -0.4187  0.8111
 9029TIP3    H248579   5.378   4.582  13.903  0.1277  0.8509 -0.0956
 9030TIP3   OH248580   0.303   3.713  14.358 -0.6676  0.2846  0.0604
 9030TIP3    H148581   0.288   3.685  14.448 -0.0150 -1.6046 -0.3659
 9030TIP3    H248582   0.375   3.776  14.364 -0.3939 -0.0850  0.8430
 9031TIP3   OH248583   2.924   4.051  11.219  0.4498 -0.3743  0.4560
 9031TIP3    H148584   2.877   4.126  11.183 -1.0899 -1.4398  0.1085
 9031TIP3    H248585   2.871   4.024  11.295 -2.1448 -4.1634 -2.3168
 9032TIP3   OH248586   0.276   1.280  14.667 -0.1473 -0.1079 -0.0791
 9032TIP3    H148587   0.284   1.191  14.635 -0.0161 -0.2365  0.3048
 9032TIP3    H248588   0.300   1.335  14.593  0.3158 -0.4046 -0.1493
 9033TIP3   OH248589   3.620   0.731  14.303 -0.3284  0.2787  0.7410
 9033TIP3    H148590   3.700   0.741  14.355 -0.5161  0.7654  0.9377
 9033TIP3    H248591   3.610   0.814  14.258  0.5429 -0.5691 -1.1214
 9034TIP3   OH248592   3.719   4.023  12.468 -0.0176  0.4840 -0.2208
 9034TIP3    H148593   3.712   4.104  12.415 -0.7799  0.3826 -0.2852
 9034TIP3    H248594   3.637   3.976  12.450 -0.0731  0.2255  0.6974
 9035TIP3   OH248595   2.218   1.657  10.677  0.5795  0.2377 -0.4785
 9035TIP3    H148596   2.158   1.590  10.709 -1.0592  1.8573  0.0018
 9035TIP3    H248597   2.194   1.669  10.585  1.5359 -0.4875 -0.8413
 9036TIP3   OH248598   2.003   6.309   3.616  0.3673 -0.5859  0.1629
 9036TIP3    H148599   2.093   6.293   3.590  0.3513 -0.3449 -0.0523
 9036TIP3    H248600   2.008   6.384   3.676  0.3348 -0.7170  0.3291
 9037TIP3   OH248601   3.842   3.770  13.796 -0.0609 -0.1888 -0.6627
 9037TIP3    H148602   3.806   3.790  13.710  1.2077  0.3812 -1.0841
 9037TIP3    H248603   3.933   3.800  13.792  0.2696 -0.9353  0.5898
 9038TIP3   OH248604   3.669   4.497  12.121 -0.2631  0.8343  0.0533
 9038TIP3    H148605   3.711   4.518  12.204  0.0092  1.7369 -0.3008
 9038TIP3    H248606   3.577   4.521  12.134  0.1690  3.0720 -0.5785
 9039TIP3   OH248607   5.976   5.937  12.616 -0.7242 -0.4624  0.6208
 9039TIP3    H148608   5.936   5.957  12.531 -0.4083 -0.2098  0.5284
 9039TIP3    H248609   5.905   5.946  12.679 -0.8085  0.0161  0.4623
 9040TIP3   OH248610   6.462   6.135   3.484 -0.6512  0.4257  0.5748
 9040TIP3    H148611   6.468   6.049   3.442  0.4785  0.5876  0.3516
 9040TIP3    H248612   6.368   6.151   3.493 -0.8827 -0.6683  0.2900
 9041TIP3   OH248613   3.458   4.500   5.386 -0.1055 -0.1394  0.1948
 9041TIP3    H148614   3.504   4.551   5.454 -0.8444 -0.2997  0.8305
 9041TIP3    H248615   3.527   4.449   5.344  0.4217  0.2415  0.5812
 9042TIP3   OH248616   1.691   0.981  11.250 -0.8116  0.4908  0.2949
 9042TIP3    H148617   1.737   1.011  11.171  2.6764 -2.2500  1.0002
 9042TIP3    H248618   1.745   1.014  11.323 -0.7190 -1.6252  1.2568
 9043TIP3   OH248619   2.330   3.009  12.836  0.5192  0.0148 -0.3273
 9043TIP3    H148620   2.372   2.940  12.886  0.3810 -0.3866 -0.7534
 9043TIP3    H248621   2.350   2.987  12.744  0.9806  0.8667 -0.4423
 9044TIP3   OH248622   2.062   3.753  12.468 -0.7419 -0.3249  0.1637
 9044TIP3    H148623   2.097   3.666  12.485  0.9183 -0.0603 -1.5688
 9044TIP3    H248624   2.019   3.746  12.383 -1.3157  0.3716  0.3783
 9045TIP3   OH248625   0.793   2.317   5.076  0.3954 -0.2187 -0.1599
 9045TIP3    H148626   0.724   2.381   5.091  1.0320  0.4788 -0.1739
 9045TIP3    H248627   0.865   2.344   5.134  0.3880 -1.3757  0.4215
 9046TIP3   OH248628   6.425   6.704   4.987 -0.1266 -0.3998  0.0152
 9046TIP3    H148629   6.484   6.779   4.979 -1.3389  0.7522  1.3356
 9046TIP3    H248630   6.357   6.734   5.047 -0.3493 -2.7643  1.0252
 9047TIP3   OH248631   5.533   3.893  12.469  0.4192  0.0334 -0.0019
 9047TIP3    H148632   5.451   3.936  12.494 -1.1186 -2.3734 -0.6055
 9047TIP3    H248633   5.589   3.964  12.438 -1.1243  1.8522  1.1680
 9048TIP3   OH248634   0.084   1.164  11.552 -0.6724  0.4763  0.0984
 9048TIP3    H148635   0.129   1.173  11.636 -2.5874  2.5682  0.9909
 9048TIP3    H248636   0.151   1.127  11.494  2.4312  3.7654  1.1989
 9049TIP3   OH248637   4.020   4.837   0.129 -0.1844  0.0374 -0.0257
 9049TIP3    H148638   4.048   4.861   0.217  2.2530  1.0273 -0.9992
 9049TIP3    H248639   4.056   4.905   0.072 -1.8206 -0.4846 -1.8170
 9050TIP3   OH248640   6.607   1.830  14.915  0.0151 -0.1719 -0.4042
 9050TIP3    H148641   6.621   1.924  14.926  1.1804 -0.2897 -0.7763
 9050TIP3    H248642   6.664   1.805  14.842 -2.0325 -0.7609 -1.8795
 9051TIP3   OH248643   4.495   1.122  16.634  0.0538  0.3549  0.2085
 9051TIP3    H148644   4.553   1.072  16.691  0.9285 -0.8680 -1.6655
 9051TIP3    H248645   4.547   1.197  16.606 -0.3660  0.9395  0.9422
 9052TIP3   OH248646   0.147   0.320  16.885  0.2839 -0.5922  0.1006
 9052TIP3    H148647   0.060   0.281  16.883 -0.2401  0.5258 -0.0634
 9052TIP3    H248648   0.195   0.270  16.951 -1.2413  0.2488  1.9382
 9053TIP3   OH248649   0.491   4.135   6.198  0.0648  0.4230 -0.0753
 9053TIP3    H148650   0.475   4.071   6.268 -1.0709  0.0148 -0.6842
 9053TIP3    H248651   0.584   4.157   6.207 -0.4249  1.8062  2.7649
 9054TIP3   OH248652   4.813   4.889   0.710  0.6123  0.1180 -0.0024
 9054TIP3    H148653   4.873   4.891   0.635  0.7572  1.5839  0.1304
 9054TIP3    H248654   4.804   4.980   0.736 -2.4861  0.1045 -0.6423
 9055TIP3   OH248655   2.484   1.411   2.638 -0.1077 -0.6458 -0.0556
 9055TIP3    H148656   2.528   1.496   2.648  1.7182 -1.6116  0.5804
 9055TIP3    H248657   2.392   1.434   2.623  0.6899  1.5051 -2.4178
 9056TIP3   OH248658   5.803   1.297   4.634 -0.1224  0.1125 -0.3695
 9056TIP3    H148659   5.715   1.278   4.668 -0.0516 -0.4806 -0.5131
 9056TIP3    H248660   5.861   1.240   4.684  0.2473  0.8606  0.0693
 9057TIP3   OH248661   6.012   0.777  11.366 -0.0909 -0.0614 -0.7030
 9057TIP3    H148662   5.975   0.690  11.346  0.6150 -0.0744 -2.0347
 9057TIP3    H248663   5.949   0.838  11.328  0.6406 -0.0632 -1.9802
 9058TIP3   OH248664   3.469   1.952   2.125 -0.0746 -0.5329 -0.1199
 9058TIP3    H148665   3.546   1.937   2.071  0.7760  1.1583  0.5629
 9058TIP3    H248666   3.454   2.046   2.120 -1.5397 -0.7057  0.5220
 9059TIP3   OH248667   0.002   6.188  14.476 -0.0336 -0.3585  0.1111
 9059TIP3    H148668  -0.006   6.228  14.563 -0.8372 -0.2259 -0.0129
 9059TIP3    H248669   0.091   6.152  14.474  0.5809  1.0920  0.3614
 9060TIP3   OH248670   3.131   1.263  13.560  0.1349  0.5922  0.0890
 9060TIP3    H148671   3.201   1.234  13.619 -1.5774 -1.9571  1.0517
 9060TIP3    H248672   3.081   1.326  13.612  2.1229  3.1942 -0.9388
 9061TIP3   OH248673   3.041   4.757   1.630  0.5073 -0.8025  0.4021
 9061TIP3    H148674   3.034   4.852   1.635  0.7343 -0.7435 -0.3547
 9061TIP3    H248675   3.022   4.736   1.539  2.4422 -1.3061  0.0721
 9062TIP3   OH248676   5.591   5.156  13.253  0.0828 -0.4037 -0.1611
 9062TIP3    H148677   5.598   5.244  13.290 -0.9531  0.0191 -0.9388
 9062TIP3    H248678   5.645   5.159  13.174 -0.3502 -0.3218 -0.4529
 9063TIP3   OH248679   3.687   1.411  12.477  0.1936 -0.3129 -0.1740
 9063TIP3    H148680   3.757   1.384  12.417  0.0773  0.6409 -0.7642
 9063TIP3    H248681   3.683   1.506  12.468 -1.5349 -0.3831 -0.5692
 9064TIP3   OH248682   1.288   2.918   6.289 -0.0306 -0.9627  0.3858
 9064TIP3    H148683   1.324   2.935   6.375  1.0894 -2.2270  0.1989
 9064TIP3    H248684   1.194   2.911   6.303 -0.0113  0.1636  1.2567
 9065TIP3   OH248685   1.458   6.791  14.956  0.1043  0.2567  0.5009
 9065TIP3    H148686   1.454   6.710  15.006 -0.3520  0.9344  1.6280
 9065TIP3    H248687   1.448   6.764  14.865  0.2486 -0.9653  0.8283
 9066TIP3   OH248688   2.063   2.155   1.793 -0.3109  0.5209  0.1338
 9066TIP3    H148689   2.087   2.200   1.712  0.0274  0.2791  0.0925
 9066TIP3    H248690   2.147   2.140   1.837 -0.4147 -0.1015  0.1258
 9067TIP3   OH248691   0.147   5.890  13.913 -0.1837  0.7739  0.1077
 9067TIP3    H148692   0.164   5.977  13.876  1.3887  1.2607  1.8508
 9067TIP3    H248693   0.075   5.905  13.975 -1.8659  0.2178 -1.5898
 9068TIP3   OH248694   4.701   0.891   2.087  0.0279 -0.0859 -0.3219
 9068TIP3    H148695   4.624   0.837   2.108 -0.0566  0.2889  0.3766
 9068TIP3    H248696   4.669   0.981   2.095  0.3691  0.0681 -0.7004
 9069TIP3   OH248697   4.591   1.655   0.330  0.4963 -0.5843  0.5412
 9069TIP3    H148698   4.507   1.662   0.285  1.7654 -0.5990 -2.0365
 9069TIP3    H248699   4.620   1.565   0.313  0.7111 -0.8365  2.0831
 9070TIP3   OH248700   5.631   5.914   6.069 -0.5336 -0.1855  0.7207
 9070TIP3    H148701   5.649   5.903   5.976 -1.6830  0.1104  0.4472
 9070TIP3    H248702   5.626   6.009   6.081  1.6760 -0.1043  1.5268
 9071TIP3   OH248703   1.828   2.505   1.460 -0.0342 -0.4558 -0.3630
 9071TIP3    H148704   1.755   2.566   1.447  0.6703  0.7428  1.0334
 9071TIP3    H248705   1.816   2.472   1.549  1.3009  0.0335  0.0180
 9072TIP3   OH248706   3.836   0.745   5.440  0.3694 -0.0336 -0.6000
 9072TIP3    H148707   3.766   0.805   5.463  1.7677  0.7879  2.0183
 9072TIP3    H248708   3.886   0.790   5.372 -0.4939  0.2432 -1.0630
 9073TIP3   OH248709   0.524   4.494   2.825 -0.2388 -0.1511 -0.2880
 9073TIP3    H148710   0.503   4.464   2.737 -0.6942  2.4790 -1.1662
 9073TIP3    H248711   0.443   4.484   2.875  0.0773 -1.8369 -0.0578
 9074TIP3   OH248712   4.567   4.865  15.973 -0.2943 -0.1745  0.0125
 9074TIP3    H148713   4.570   4.946  15.921 -0.5117 -0.9088 -1.1825
 9074TIP3    H248714   4.653   4.860  16.015 -0.7284  1.3347  1.1659
 9075TIP3   OH248715   1.426   4.850  10.910  0.6408  0.0407  0.4464
 9075TIP3    H148716   1.392   4.802  10.834 -0.2212  0.5073  0.5313
 9075TIP3    H248717   1.470   4.783  10.962 -0.4483 -0.6448  0.5065
 9076TIP3   OH248718   2.292   2.692  11.538 -0.2325 -0.1901  0.0185
 9076TIP3    H148719   2.257   2.606  11.515 -2.3824  0.4569  0.6721
 9076TIP3    H248720   2.238   2.754  11.490  0.9025  0.8427  0.0253
 9077TIP3   OH248721   5.306   1.605   2.826 -0.5734 -0.6787 -0.5705
 9077TIP3    H148722   5.257   1.576   2.749 -0.4377 -0.4270 -0.7553
 9077TIP3    H248723   5.251   1.674   2.865  0.4488  0.9095 -1.8169
 9078TIP3   OH248724   0.448   5.317   5.687  0.2117 -0.3718  0.4674
 9078TIP3    H148725   0.484   5.228   5.688  1.0678 -0.0288  0.5349
 9078TIP3    H248726   0.382   5.316   5.757  0.2783 -0.9234  0.5309
 9079TIP3   OH248727   6.620   2.891   5.716  0.3131  0.2297  0.4863
 9079TIP3    H148728   6.528   2.863   5.718  0.7258 -1.3114 -0.3788
 9079TIP3    H248729   6.619   2.978   5.755 -1.5951  0.4627  0.0406
 9080TIP3   OH248730   5.372   6.655  14.795  0.2937 -0.3247 -0.0313
 9080TIP3    H148731   5.453   6.615  14.763  0.1967 -0.7422  0.2353
 9080TIP3    H248732   5.342   6.596  14.865 -0.3338 -0.2788 -0.2509
 9081TIP3   OH248733   6.092   3.828  16.335 -0.4150 -0.2404  0.7363
 9081TIP3    H148734   6.023   3.842  16.270 -1.0220  0.8903  1.5847
 9081TIP3    H248735   6.054   3.766  16.397  0.5567 -2.1949 -0.4878
 9082TIP3   OH248736   1.902   2.238  17.206 -0.5583 -0.4783  0.2315
 9082TIP3    H148737   1.846   2.238  17.283  1.2021 -0.3056  1.5601
 9082TIP3    H248738   1.935   2.149  17.200  2.3510  0.3647  2.0525
 9083TIP3   OH248739   2.787   4.183   6.470 -0.1407  0.2857 -0.2159
 9083TIP3    H148740   2.858   4.189   6.534  0.3566  2.0081 -0.8627
 9083TIP3    H248741   2.714   4.230   6.510  0.0404  1.0189 -0.7306
 9084TIP3   OH248742   2.898   6.459   4.650  0.1124 -0.6245  0.0133
 9084TIP3    H148743   2.897   6.554   4.659 -2.3469 -0.5869  0.2685
 9084TIP3    H248744   2.989   6.434   4.662  0.5265  1.5173  2.0443
 9085TIP3   OH248745   4.073   6.368   5.356 -0.3033  0.0539 -0.2961
 9085TIP3    H148746   4.017   6.431   5.402 -0.2662 -0.3491  0.3119
 9085TIP3    H248747   4.136   6.338   5.422  0.9389  0.8433 -1.0859
 9086TIP3   OH248748   3.432   3.678   1.355 -0.1799 -0.4738  0.1733
 9086TIP3    H148749   3.518   3.707   1.386 -0.3147  0.0561  0.0590
 9086TIP3    H248750   3.369   3.726   1.410 -0.4096 -2.2890  1.5850
 9087TIP3   OH248751   0.630   4.913  15.543 -0.0690  0.1291  0.1626
 9087TIP3    H148752   0.544   4.897  15.505  0.2125  0.4732 -0.6250
 9087TIP3    H248753   0.692   4.888  15.474  0.4952 -0.8585  0.9838
 9088TIP3   OH248754   4.906   1.835   4.849 -0.6453  0.2889 -0.2214
 9088TIP3    H148755   4.830   1.826   4.905 -0.3374  0.5654  0.2497
 9088TIP3    H248756   4.943   1.920   4.872 -1.5058  1.2204 -2.0836
 9089TIP3   OH248757   4.988   3.155  16.693  0.0088 -0.4407  0.6057
 9089TIP3    H148758   4.924   3.102  16.645 -0.1845  0.1030  0.2564
 9089TIP3    H248759   4.937   3.229  16.728  0.5412  0.2901 -0.1441
 9090TIP3   OH248760   2.404   5.807  14.737 -0.1602 -0.0015 -0.1222
 9090TIP3    H148761   2.365   5.741  14.680  0.1506 -0.1719 -0.1441
 9090TIP3    H248762   2.417   5.883  14.680 -0.3391  0.0113 -0.1463
 9091TIP3   OH248763   5.522   0.598   6.239 -0.2170 -0.5713 -0.4279
 9091TIP3    H148764   5.615   0.618   6.250 -0.4910  0.5019  0.0780
 9091TIP3    H248765   5.518   0.503   6.237  1.2595 -0.7111 -3.6623
 9092TIP3   OH248766   4.924   5.635   6.055  0.6202  0.1701  0.3986
 9092TIP3    H148767   4.846   5.580   6.052  0.0465  0.9429  1.0483
 9092TIP3    H248768   4.894   5.723   6.033  0.9060  0.8859  2.5960
 9093TIP3   OH248769   2.292   1.005  12.203  0.5627  0.7996  0.5408
 9093TIP3    H148770   2.285   0.921  12.158 -0.6621 -0.3623  2.7358
 9093TIP3    H248771   2.367   1.048  12.162  0.6000 -0.9061 -1.3341
 9094TIP3   OH248772   0.447   6.331  10.608  0.5989 -0.7004  0.1712
 9094TIP3    H148773   0.516   6.272  10.578  1.1378  0.6353 -1.3755
 9094TIP3    H248774   0.491   6.414  10.624 -0.4725 -0.1226  0.2377
 9095TIP3   OH248775   3.504   1.500   1.886  0.1398  0.3590  0.3170
 9095TIP3    H148776   3.547   1.561   1.825  1.6910 -0.3166  0.6829
 9095TIP3    H248777   3.447   1.448   1.830 -0.2430  1.2889 -0.1901
 9096TIP3   OH248778   5.105   2.957  12.928 -0.9211 -0.5557  0.0031
 9096TIP3    H148779   5.064   3.000  13.003 -0.0364 -0.8451  0.6761
 9096TIP3    H248780   5.075   2.866  12.933 -1.0306 -0.5248 -0.1121
 9097TIP3   OH248781   1.592   0.339   5.060 -0.4272 -0.3858  0.2037
 9097TIP3    H148782   1.626   0.415   5.013  0.7167 -1.0867 -0.1331
 9097TIP3    H248783   1.537   0.376   5.129 -1.5972  0.6889 -1.2317
 9098TIP3   OH248784   0.400   1.247  13.991  0.2911 -0.0287  0.3157
 9098TIP3    H148785   0.348   1.167  13.995 -1.2347  0.8591 -0.6327
 9098TIP3    H248786   0.449   1.249  14.073 -0.3546 -1.4565  0.7570
 9099TIP3   OH248787   1.496   6.515  17.114  0.6136 -0.3381 -0.5545
 9099TIP3    H148788   1.401   6.528  17.106  0.4781 -0.2978  0.8872
 9099TIP3    H248789   1.522   6.476  17.031 -0.7390 -0.7429 -0.8107
 9100TIP3   OH248790   5.907   2.821   1.896 -0.4083  0.2672 -0.1765
 9100TIP3    H148791   5.911   2.725   1.895  1.1924  0.2756 -3.1518
 9100TIP3    H248792   5.872   2.842   1.983  1.2489 -2.9132  1.4379
 9101TIP3   OH248793   3.999   3.753   0.089  0.4901  0.0502  0.1229
 9101TIP3    H148794   4.043   3.793   0.164 -1.1579  1.7231  0.2813
 9101TIP3    H248795   3.911   3.732   0.121 -0.5013  1.4953 -1.4681
 9102TIP3   OH248796   4.094   5.792   2.160 -0.6396  0.4243 -0.7645
 9102TIP3    H148797   4.078   5.710   2.206 -1.9869  1.5720  0.9523
 9102TIP3    H248798   4.052   5.859   2.214 -1.0652  2.0657 -2.9450
 9103TIP3   OH248799   6.723   3.805  12.131 -0.1291 -0.0475  0.0843
 9103TIP3    H148800   6.690   3.733  12.077 -0.3032  0.1776 -0.1128
 9103TIP3    H248801   6.651   3.868  12.134  1.3684  2.0841 -3.1816
 9104TIP3   OH248802   1.820   6.732  11.346  0.1953 -0.1552  0.4961
 9104TIP3    H148803   1.853   6.669  11.282 -1.6402  0.1172 -0.8046
 9104TIP3    H248804   1.870   6.812  11.329  0.2145 -0.2961 -0.1322
 9105TIP3   OH248805   1.088   1.473  10.690  0.7627  0.6656  0.5706
 9105TIP3    H148806   0.993   1.488  10.695  0.4079 -0.3771 -1.7745
 9105TIP3    H248807   1.123   1.553  10.651  0.8884  1.0786  1.5005
 9106TIP3   OH248808   3.496   2.296  11.091  0.0754 -0.1359  0.0965
 9106TIP3    H148809   3.581   2.274  11.053 -0.7490  0.0353 -2.0040
 9106TIP3    H248810   3.484   2.389  11.071 -1.6139 -0.6975 -1.9296
 9107TIP3   OH248811   4.651   1.857   5.047  0.9651 -0.2611  0.0990
 9107TIP3    H148812   4.586   1.809   5.098  0.3364 -1.2778 -1.5792
 9107TIP3    H248813   4.627   1.949   5.060 -0.0370 -0.5594  0.5270
 9108TIP3   OH248814   1.659   5.689   2.361 -0.3433  0.1160  0.5296
 9108TIP3    H148815   1.587   5.702   2.424  0.2179 -1.1260  1.4686
 9108TIP3    H248816   1.738   5.709   2.411  0.0113  1.4090 -0.4806
 9109TIP3   OH248817   3.034   6.707  12.925 -0.1445 -0.3540  0.0535
 9109TIP3    H148818   2.943   6.686  12.946  0.4457 -0.2999  3.1924
 9109TIP3    H248819   3.066   6.754  13.003  2.8080 -1.1687 -0.5551
 9110TIP3   OH248820   1.989   2.471  14.242 -0.1086 -0.3780  0.2738
 9110TIP3    H148821   2.074   2.449  14.279 -0.4214 -3.2203 -0.4484
 9110TIP3    H248822   1.961   2.549  14.290  2.8400  0.6336  0.5385
 9111TIP3   OH248823   4.550   0.413   3.525  0.0369  0.3516 -0.6854
 9111TIP3    H148824   4.642   0.405   3.550 -0.1081 -0.2366 -0.3164
 9111TIP3    H248825   4.543   0.498   3.483  0.3148  1.3775  1.2413
 9112TIP3   OH248826   4.720   1.905   0.322 -0.0589  0.3031 -0.8864
 9112TIP3    H148827   4.695   1.815   0.303 -0.6287 -0.2476  2.0992
 9112TIP3    H248828   4.791   1.898   0.386 -0.5865  1.9543 -0.0548
 9113TIP3   OH248829   2.821   5.435   3.839  0.4777 -0.0312 -0.7035
 9113TIP3    H148830   2.858   5.434   3.751  0.0532 -0.6798 -0.8859
 9113TIP3    H248831   2.776   5.350   3.847 -0.7237  0.6057 -0.4063
 9114TIP3   OH248832   4.084   5.818  12.836 -0.1050 -0.4795  0.3876
 9114TIP3    H148833   4.088   5.913  12.833  0.4231 -0.4976  0.3410
 9114TIP3    H248834   4.146   5.793  12.905  0.1069 -0.8032  0.0866
 9115TIP3   OH248835   3.341   1.459   1.477 -0.1954  0.5201  0.3345
 9115TIP3    H148836   3.435   1.461   1.455  0.1028  0.4580  1.5409
 9115TIP3    H248837   3.312   1.372   1.450  0.3541  0.1356  0.9437
 9116TIP3   OH248838   1.996   1.046   1.862 -0.0736  0.1751  0.0301
 9116TIP3    H148839   1.933   1.006   1.802 -0.0413 -0.4512  0.3967
 9116TIP3    H248840   2.076   0.994   1.851  0.6909  1.4984 -1.0707
 9117TIP3   OH248841   0.368   2.000   4.600  0.2316  0.4469 -0.3778
 9117TIP3    H148842   0.336   1.916   4.566  1.7745 -0.5847  0.6055
 9117TIP3    H248843   0.436   1.976   4.663  0.9278  2.4656 -0.3033
 9118TIP3   OH248844   1.777   4.042   4.898 -0.1339  0.2747 -0.2831
 9118TIP3    H148845   1.722   4.058   4.822 -0.1246  0.3498 -0.2741
 9118TIP3    H248846   1.838   4.116   4.900  0.0930  0.0917 -0.4043
 9119TIP3   OH248847   4.924   3.304   2.607  0.3530  0.4283  0.2526
 9119TIP3    H148848   4.846   3.325   2.659  1.2730 -0.5303  2.1320
 9119TIP3    H248849   4.916   3.210   2.589  0.4192  0.6050 -0.7181
 9120TIP3   OH248850   6.618   2.822   2.076 -0.1532 -0.1100 -0.4321
 9120TIP3    H148851   6.559   2.828   2.151  0.1271  2.3441 -0.3356
 9120TIP3    H248852   6.589   2.892   2.017  0.8353 -0.7578 -1.7440
 9121TIP3   OH248853   1.686   1.283  15.285  0.3589 -0.4568  0.3454
 9121TIP3    H148854   1.662   1.228  15.211  0.1554  0.6216 -0.4212
 9121TIP3    H248855   1.617   1.349  15.289  0.9468  0.1411  0.8068
 9122TIP3   OH248856   3.233   4.424   4.983 -0.0820 -0.3746  0.0649
 9122TIP3    H148857   3.206   4.434   4.892  0.4524 -0.9170 -0.1599
 9122TIP3    H248858   3.317   4.469   4.989 -0.4837  0.3423  0.4900
 9123TIP3   OH248859   0.669   0.699  10.467  0.4902 -0.0896  0.6630
 9123TIP3    H148860   0.581   0.683  10.502  0.4077 -1.3210 -0.0539
 9123TIP3    H248861   0.683   0.629  10.404  1.1046  1.4049 -0.9434
 9124TIP3   OH248862   6.510   2.320  16.703  0.1207  0.6926  0.6843
 9124TIP3    H148863   6.418   2.337  16.724 -0.0662  0.5593 -0.0066
 9124TIP3    H248864   6.550   2.295  16.786 -1.3487 -3.2465  0.3729
 9125TIP3   OH248865   4.991   6.662   0.922 -0.0735 -0.9966  0.1312
 9125TIP3    H148866   4.972   6.604   0.848  1.6366  1.0738 -2.0990
 9125TIP3    H248867   5.046   6.609   0.980  0.0462 -2.1300 -0.9824
 9126TIP3   OH248868   0.226   0.919   5.142  0.6553 -0.1924  0.9153
 9126TIP3    H148869   0.144   0.868   5.142  0.2937  0.3769  1.0420
 9126TIP3    H248870   0.251   0.924   5.050  0.7375 -0.6675  0.9100
 9127TIP3   OH248871   1.694   4.515  16.138  0.0185  0.4875  1.0485
 9127TIP3    H148872   1.718   4.607  16.129  2.0021 -0.0003  1.0037
 9127TIP3    H248873   1.622   4.503  16.076  0.3042  1.8084  0.4272
 9128TIP3   OH248874   4.028   5.090  13.946 -0.1576  0.4171  0.4618
 9128TIP3    H148875   3.946   5.113  13.989  0.0741  1.3555  0.4315
 9128TIP3    H248876   4.002   5.035  13.873 -0.8521  1.3751 -0.0388
 9129TIP3   OH248877   1.273   6.648   3.153  0.4055 -0.1974  0.2743
 9129TIP3    H148878   1.255   6.555   3.167  0.0474 -0.1648  0.0340
 9129TIP3    H248879   1.192   6.683   3.117  0.2655  0.3702  1.0966
 9130TIP3   OH248880   5.843   2.040   6.497  0.5182  0.9232 -0.0730
 9130TIP3    H148881   5.792   2.119   6.477 -0.0840  0.6643  0.3874
 9130TIP3    H248882   5.872   2.009   6.412 -0.7835  0.6396 -0.4458
 9131TIP3   OH248883   3.815   4.913  16.650 -0.2846 -0.5260 -0.0938
 9131TIP3    H148884   3.750   4.941  16.714  0.3039  2.6028 -0.7027
 9131TIP3    H248885   3.801   4.971  16.575  1.3310 -1.7122 -1.3816
 9132TIP3   OH248886   1.324   6.036   0.328  0.4306  0.1360  0.0017
 9132TIP3    H148887   1.406   6.083   0.343  0.6775 -0.6366  1.1807
 9132TIP3    H248888   1.258   6.089   0.373  0.4334  0.2248 -0.0961
 9133TIP3   OH248889   0.985   2.858   0.217 -0.3588 -0.0949 -0.4732
 9133TIP3    H148890   0.924   2.929   0.199  0.6184  0.7593 -0.5314
 9133TIP3    H248891   0.943   2.806   0.286 -0.4114  1.4482  0.6999
 9134TIP3   OH248892   6.814   3.464  12.242 -0.5806 -0.7799  0.2181
 9134TIP3    H148893   6.772   3.387  12.281 -0.8289 -0.3213  0.8669
 9134TIP3    H248894   6.888   3.428  12.192  0.3069 -1.3301  1.8507
 9135TIP3   OH248895   5.627   3.728   3.636 -0.5082  0.4573  0.5723
 9135TIP3    H148896   5.584   3.793   3.580  1.6675  1.1502 -0.4487
 9135TIP3    H248897   5.700   3.777   3.675  0.0016 -0.8974  1.3612
 9136TIP3   OH248898   4.924   0.745   4.260 -1.1525  0.2491  0.0422
 9136TIP3    H148899   5.007   0.705   4.234 -1.2742 -0.1252  0.2264
 9136TIP3    H248900   4.861   0.713   4.194 -1.4215 -0.5435  0.6616
 9137TIP3   OH248901   3.879   2.322   6.026  0.7448  0.1692 -0.1221
 9137TIP3    H148902   3.959   2.350   6.070  0.9025 -1.1869  0.5189
 9137TIP3    H248903   3.907   2.296   5.939  0.3766  3.2135 -1.2704
 9138TIP3   OH248904   2.147   5.836  15.352 -0.3583 -0.0015  0.3319
 9138TIP3    H148905   2.055   5.848  15.329 -1.0755 -1.8942  1.9645
 9138TIP3    H248906   2.180   5.925  15.365 -2.3537  0.6697  1.1608
 9139TIP3   OH248907   0.705   2.752   0.736 -0.4797  0.1085 -0.0163
 9139TIP3    H148908   0.679   2.815   0.803 -0.1929  0.2658 -0.0538
 9139TIP3    H248909   0.755   2.686   0.784  2.9517  2.0661 -0.5486
 9140TIP3   OH248910   6.363   1.163  13.116  0.3411  0.1973 -0.2383
 9140TIP3    H148911   6.350   1.134  13.206  0.4863  0.6301 -0.0750
 9140TIP3    H248912   6.278   1.198  13.090  0.5979  1.1333  0.1296
 9141TIP3   OH248913   2.115   4.159   4.625 -0.1639 -0.0818 -0.1211
 9141TIP3    H148914   2.133   4.251   4.602  1.5055 -0.0147  1.2584
 9141TIP3    H248915   2.036   4.138   4.576  0.7464  1.3442 -2.3754
 9142TIP3   OH248916   4.902   5.321   2.992 -0.2779 -0.2441 -0.2142
 9142TIP3    H148917   4.968   5.343   2.927  1.1502 -1.8699  0.5866
 9142TIP3    H248918   4.950   5.269   3.057 -2.0443 -0.2176  1.1777
 9143TIP3   OH248919   4.579   0.838  14.592 -0.0319  0.0792 -0.0296
 9143TIP3    H148920   4.657   0.876  14.632 -0.5714  1.8275 -0.5706
 9143TIP3    H248921   4.507   0.866  14.648 -0.3570 -1.0538  0.1460
 9144TIP3   OH248922   0.306   4.611  16.807 -0.6560  0.2706 -0.5367
 9144TIP3    H148923   0.317   4.698  16.770  3.5513 -0.0254 -0.3749
 9144TIP3    H248924   0.213   4.606  16.829 -1.5302  3.7858 -2.6899
 9145TIP3   OH248925   0.217   4.256   0.333  0.0027  0.4674  0.1970
 9145TIP3    H148926   0.309   4.268   0.358  0.4230  2.1072 -1.8635
 9145TIP3    H248927   0.194   4.337   0.287 -1.6398 -0.9614 -1.6717
 9146TIP3   OH248928   0.693   4.725  12.181 -0.0162 -0.5574 -0.9635
 9146TIP3    H148929   0.734   4.658  12.127 -0.7826 -0.8376 -1.2113
 9146TIP3    H248930   0.705   4.806  12.131  1.2560 -0.4220 -0.4799
 9147TIP3   OH248931   4.172   5.825   5.901 -0.8805 -0.4170 -0.8499
 9147TIP3    H148932   4.091   5.844   5.854 -0.6833 -0.7894 -1.3475
 9147TIP3    H248933   4.239   5.823   5.832 -0.4205  0.0730 -0.4212
 9148TIP3   OH248934   2.196   4.413  16.799 -0.1587 -0.3662 -0.2520
 9148TIP3    H148935   2.170   4.320  16.797 -1.1532 -0.0888 -1.2683
 9148TIP3    H248936   2.159   4.450  16.719  1.0621  0.7096 -0.3561
 9149TIP3   OH248937   1.229   2.751   5.625 -0.3616  0.6445 -0.0542
 9149TIP3    H148938   1.163   2.779   5.689 -0.0087  0.3515  0.4434
 9149TIP3    H248939   1.294   2.821   5.627 -0.2810  0.5681  0.0130
 9150TIP3   OH248940   0.241   5.607  13.432 -0.1126 -0.6790  0.2101
 9150TIP3    H148941   0.151   5.576  13.438 -0.4580  0.4934  2.6176
 9150TIP3    H248942   0.259   5.645  13.519  1.7892  1.5585 -1.0353
 9151TIP3   OH248943   0.062   4.463   3.425 -0.1390 -0.1428  0.6217
 9151TIP3    H148944  -0.021   4.447   3.381  1.2324 -3.4801 -1.1423
 9151TIP3    H248945   0.056   4.412   3.506 -0.6589  1.6303  1.7421
 9152TIP3   OH248946   3.639   5.641  16.999 -0.1794  0.2085 -0.1626
 9152TIP3    H148947   3.720   5.661  17.045 -0.3914 -0.4998  0.5390
 9152TIP3    H248948   3.667   5.591  16.922  0.1672  1.3397 -0.8044
 9153TIP3   OH248949   1.122   0.768   2.302 -0.3526  0.4401 -0.4097
 9153TIP3    H148950   1.175   0.837   2.342  1.0145 -1.6256  1.6481
 9153TIP3    H248951   1.046   0.814   2.266  1.0748  3.1154 -0.2907
 9154TIP3   OH248952   0.499   5.406   1.145 -0.9744 -0.2650  0.3509
 9154TIP3    H148953   0.473   5.484   1.097 -0.0633  0.1083  0.4565
 9154TIP3    H248954   0.585   5.383   1.110 -0.6685 -0.4713  1.2085
 9155TIP3   OH248955   3.512   4.165   5.181 -0.0408  0.0454 -0.2267
 9155TIP3    H148956   3.596   4.119   5.189  0.5560  1.0356 -0.6470
 9155TIP3    H248957   3.463   4.139   5.259  1.8251  1.7811  1.6190
 9156TIP3   OH248958   1.138   5.135  11.481  0.6331  1.1039  0.0382
 9156TIP3    H148959   1.128   5.040  11.484 -0.2928  1.1233 -1.3919
 9156TIP3    H248960   1.090   5.166  11.558 -1.0529  0.5014 -0.6968
 9157TIP3   OH248961   4.828   0.329  14.979 -0.5188  0.1400  0.2548
 9157TIP3    H148962   4.818   0.402  14.918  1.2178  0.1909 -0.0330
 9157TIP3    H248963   4.829   0.251  14.922  0.1189  0.1075  0.3049
 9158TIP3   OH248964   2.333   5.786   0.334  0.1931 -0.1400  0.0507
 9158TIP3    H148965   2.316   5.878   0.352 -2.0012 -1.2700  6.3758
 9158TIP3    H248966   2.426   5.774   0.355 -0.2232  0.3126  2.5346
 9159TIP3   OH248967   4.578   4.204  15.026 -0.1122  0.6776  0.0096
 9159TIP3    H148968   4.510   4.216  15.092  0.8405  0.4033  1.0596
 9159TIP3    H248969   4.529   4.191  14.944 -1.4967 -3.3997  1.2692
 9160TIP3   OH248970   5.315   4.233   3.158 -0.4836 -0.3437  0.2675
 9160TIP3    H148971   5.268   4.272   3.232  2.0394 -0.6922  2.1842
 9160TIP3    H248972   5.351   4.152   3.193 -1.6038 -2.0427 -2.2477
 9161TIP3   OH248973   4.765   6.528  11.339  0.0557 -0.0680 -0.2835
 9161TIP3    H148974   4.731   6.470  11.271 -0.0676  0.3210 -0.5540
 9161TIP3    H248975   4.688   6.573  11.373  0.0465 -0.6697  0.5017
 9162TIP3   OH248976   3.718   3.322   3.804 -0.2464  0.4902  0.1368
 9162TIP3    H148977   3.638   3.278   3.777  0.8927 -0.3740 -2.1280
 9162TIP3    H248978   3.741   3.378   3.730  2.4104 -1.0315 -0.3396
 9163TIP3   OH248979   2.443   6.081   2.833 -0.5603  0.2562 -0.4839
 9163TIP3    H148980   2.352   6.056   2.818 -0.9033  1.1740 -0.0378
 9163TIP3    H248981   2.494   6.007   2.801 -1.5200 -1.1860  1.1368
 9164TIP3   OH248982   2.610   6.267  16.426 -0.3803 -0.3402  0.4494
 9164TIP3    H148983   2.595   6.275  16.520  2.2012  1.2965  0.8109
 9164TIP3    H248984   2.616   6.173  16.411 -2.6227 -0.7316  1.5338
 9165TIP3   OH248985   4.594   6.653   4.335  0.1684  0.1606  0.8388
 9165TIP3    H148986   4.505   6.651   4.370  0.1832  0.2274  0.8821
 9165TIP3    H248987   4.627   6.564   4.348  0.1615  0.1756  0.9627
 9166TIP3   OH248988   5.762   2.347  11.872 -0.6430  0.0210 -0.5298
 9166TIP3    H148989   5.672   2.378  11.856 -1.0243 -1.0675 -0.5951
 9166TIP3    H248990   5.807   2.423  11.908 -1.3383  0.8630 -1.3710
 9167TIP3   OH248991   0.964   3.449   1.437  1.3449  0.2304  0.2210
 9167TIP3    H148992   0.995   3.452   1.528 -0.1805 -0.8901  0.8129
 9167TIP3    H248993   0.874   3.418   1.444  0.3778  2.4540 -1.5064
 9168TIP3   OH248994   4.307   2.260   4.635 -0.2386 -0.4450 -0.4406
 9168TIP3    H148995   4.267   2.231   4.553 -0.4244  0.1205 -0.5477
 9168TIP3    H248996   4.353   2.182   4.668 -1.1936 -1.0257 -0.4552
 9169TIP3   OH248997   2.461   6.327   0.377 -0.1957 -0.1665  0.0452
 9169TIP3    H148998   2.379   6.314   0.329 -0.7759 -0.8765  1.1887
 9169TIP3    H248999   2.528   6.286   0.323 -0.5587  0.5376 -0.9707
 9170TIP3   OH249000   6.613   0.385   1.521  0.4259  0.6096  0.4185
 9170TIP3    H149001   6.644   0.377   1.431  0.7327  0.1943  0.5572
 9170TIP3    H249002   6.541   0.447   1.516 -0.6232 -0.6358 -0.3691
 9171TIP3   OH249003   2.907   1.943   0.487 -0.4911  0.0405 -0.5817
 9171TIP3    H149004   2.996   1.929   0.517  0.4015  1.8271 -2.1747
 9171TIP3    H249005   2.865   1.857   0.492  1.7110 -1.1104 -0.9878
 9172TIP3   OH249006   3.107   0.189  12.440 -0.5471  0.0714 -1.0167
 9172TIP3    H149007   3.056   0.177  12.520 -0.5697  1.2337 -0.8354
 9172TIP3    H249008   3.164   0.112  12.436 -0.8045 -0.1812 -0.0733
 9173TIP3   OH249009   4.995   6.552   0.535 -0.1410  0.1422 -0.0843
 9173TIP3    H149010   4.961   6.495   0.467 -0.4451  0.8504 -0.5313
 9173TIP3    H249011   4.927   6.554   0.602  0.2233 -0.6764  0.3174
 9174TIP3   OH249012   4.386   1.509  12.965  0.1523 -0.8804 -0.3858
 9174TIP3    H149013   4.468   1.469  12.939 -0.1654 -0.7825 -1.6163
 9174TIP3    H249014   4.329   1.498  12.889 -0.4677  0.4124 -0.1357
 9175TIP3   OH249015   6.219   6.324   5.343  0.4209  0.2140 -0.6556
 9175TIP3    H149016   6.186   6.284   5.424 -0.6844 -0.4528 -1.3969
 9175TIP3    H249017   6.283   6.261   5.310  0.1632  0.0079 -0.7764
 9176TIP3   OH249018   1.149   6.720   6.322  0.0004 -0.2321 -0.3087
 9176TIP3    H149019   1.090   6.714   6.246  0.1866 -0.4177 -0.4416
 9176TIP3    H249020   1.098   6.686   6.395  0.1242 -0.9057 -0.5310
 9177TIP3   OH249021   4.194   0.262  16.437 -0.7785 -0.0941 -0.0830
 9177TIP3    H149022   4.285   0.290  16.444 -0.4880 -0.9182 -0.3794
 9177TIP3    H249023   4.176   0.261  16.343 -0.7918 -0.8232 -0.0817
 9178TIP3   OH249024   1.470   3.275  14.990  0.0344 -0.2208  0.1818
 9178TIP3    H149025   1.432   3.360  14.968 -1.7209 -1.0431 -0.2014
 9178TIP3    H249026   1.564   3.285  14.977 -0.4394  0.4900 -3.9992
 9179TIP3   OH249027   2.160   5.773   4.319  0.0752 -0.1337 -0.0838
 9179TIP3    H149028   2.213   5.844   4.282  1.1328 -0.0542  1.4851
 9179TIP3    H249029   2.166   5.703   4.255 -1.1689  1.2092 -1.7857
 9180TIP3   OH249030   6.669   0.867   3.400  0.8095 -0.3096 -0.2820
 9180TIP3    H149031   6.699   0.778   3.382 -0.8454 -1.1133  0.6557
 9180TIP3    H249032   6.629   0.897   3.318 -0.3309 -1.1895 -0.0676
 9181TIP3   OH249033   1.722   3.582   4.641 -0.0800  0.1269  0.0008
 9181TIP3    H149034   1.807   3.588   4.684 -0.2532 -1.4710  0.6290
 9181TIP3    H249035   1.658   3.591   4.711 -0.3660 -4.1826  0.5355
 9182TIP3   OH249036   5.291   1.232  15.436 -0.5107 -0.5590  0.3239
 9182TIP3    H149037   5.353   1.299  15.404 -0.5437  0.1947  1.7524
 9182TIP3    H249038   5.244   1.275  15.508 -2.1023 -1.4076 -0.1528
 9183TIP3   OH249039   3.065   2.467   5.905 -0.6137 -0.0083 -0.5244
 9183TIP3    H149040   3.009   2.427   5.838 -1.2006  3.2526 -2.1950
 9183TIP3    H249041   3.022   2.444   5.988 -1.5032 -1.7987 -1.4140
 9184TIP3   OH249042   2.712   1.001  14.350 -0.1603  0.4654  0.3401
 9184TIP3    H149043   2.776   1.007  14.420  1.2668 -1.7543 -0.6844
 9184TIP3    H249044   2.750   1.052  14.278 -0.2560  0.3776  0.2270
 9185TIP3   OH249045   3.604   5.737   6.218 -0.0303 -0.6794  0.1531
 9185TIP3    H149046   3.684   5.783   6.243 -0.8287  0.7118  0.2424
 9185TIP3    H249047   3.541   5.760   6.286 -1.8057  1.9156 -2.1658
 9186TIP3   OH249048   0.128   0.617   5.466 -0.1022  0.0898 -0.0328
 9186TIP3    H149049   0.169   0.572   5.392  0.3368  1.6282 -0.7601
 9186TIP3    H249050   0.158   0.569   5.543 -0.0494 -1.1478 -0.8018
 9187TIP3   OH249051   0.541   3.523   0.747 -0.3538 -0.6990  0.6242
 9187TIP3    H149052   0.474   3.456   0.751  0.6418 -1.8184 -0.5819
 9187TIP3    H249053   0.516   3.578   0.673 -0.2913 -0.7315  0.5786
 9188TIP3   OH249054   1.504   1.635  12.023  0.1868  0.0786 -0.6899
 9188TIP3    H149055   1.496   1.640  11.928 -0.1288  0.0211 -0.6666
 9188TIP3    H249056   1.477   1.546  12.045  1.1929 -0.2229 -0.6369
 9189TIP3   OH249057   6.711   3.922   1.843  0.0349 -0.0411 -0.1341
 9189TIP3    H149058   6.725   3.839   1.888 -2.2435  0.3238  1.4025
 9189TIP3    H249059   6.793   3.970   1.856  0.1306 -0.7078  2.0253
 9190TIP3   OH249060   1.174   5.510   1.264  0.7680  0.3243 -0.0639
 9190TIP3    H149061   1.133   5.457   1.333  1.1706 -0.9046 -0.7412
 9190TIP3    H249062   1.158   5.600   1.291  0.9424 -0.1211  1.6681
 9191TIP3   OH249063   1.835   6.096  17.102 -0.5438  0.1802  0.1910
 9191TIP3    H149064   1.915   6.093  17.154 -0.8413  0.7264  0.6800
 9191TIP3    H249065   1.830   6.009  17.062 -0.2073 -0.1796  0.9074
 9192TIP3   OH249066   2.617   3.002  12.240 -0.2291 -0.1286 -0.0207
 9192TIP3    H149067   2.637   2.962  12.155  1.0379 -1.6401  0.9411
 9192TIP3    H249068   2.689   2.975  12.297 -1.1499  0.6903  1.6033
 9193TIP3   OH249069   0.116   2.333   3.238 -0.2650 -0.1469 -0.5059
 9193TIP3    H149070   0.099   2.423   3.266  0.2603  0.6232 -2.4853
 9193TIP3    H249071   0.175   2.298   3.305 -0.7417  0.8621  0.4727
 9194TIP3   OH249072   5.839   3.312   2.208  0.2971 -0.6100  0.5248
 9194TIP3    H149073   5.925   3.280   2.232 -0.0342 -1.2339  0.8993
 9194TIP3    H249074   5.805   3.355   2.287  1.6401  2.8095 -0.5470
 9195TIP3   OH249075   2.503   4.532  11.416 -0.0460 -0.4487  0.2344
 9195TIP3    H149076   2.431   4.586  11.450  0.2185 -0.2225  0.4391
 9195TIP3    H249077   2.525   4.473  11.489 -0.4000 -0.9060 -0.0214
 9196TIP3   OH249078   5.587   5.209  16.351  0.0980  0.0081  0.0452
 9196TIP3    H149079   5.548   5.202  16.263  1.3773  0.7686 -0.6153
 9196TIP3    H249080   5.577   5.122  16.388 -3.1392  0.3752  0.3620
 9197TIP3   OH249081   6.249   6.235   1.176  0.3011  0.3326  0.3198
 9197TIP3    H149082   6.241   6.262   1.267 -0.3876  0.7945  0.1328
 9197TIP3    H249083   6.159   6.235   1.143  0.1806 -2.5088  0.3843
 9198TIP3   OH249084   5.358   3.482  11.750  0.6165 -0.2838  0.9486
 9198TIP3    H149085   5.440   3.529  11.762 -0.9381  2.6266  1.1819
 9198TIP3    H249086   5.327   3.464  11.839  0.6316 -0.7057  0.8721
 9199TIP3   OH249087   3.395   3.307  13.748 -0.2089  0.1656  0.0873
 9199TIP3    H149088   3.479   3.353  13.753 -0.0653 -0.1439  0.5615
 9199TIP3    H249089   3.377   3.301  13.654 -0.4146  1.5065  0.0312
 9200TIP3   OH249090   4.222   2.839  17.069  0.3391 -0.2697  0.4736
 9200TIP3    H149091   4.261   2.835  17.156 -0.5350  1.1144  0.9741
 9200TIP3    H249092   4.154   2.907  17.077  0.1859 -0.1847 -1.2609
 9201TIP3   OH249093   4.784   6.533   1.077  0.1106  0.3402  0.3558
 9201TIP3    H149094   4.693   6.524   1.049  0.4058 -1.5399 -0.1891
 9201TIP3    H249095   4.802   6.627   1.072 -1.5306  0.6565 -0.3786
 9202TIP3   OH249096   6.252   2.812   4.094  0.1108 -0.2982 -0.2175
 9202TIP3    H149097   6.311   2.742   4.067  0.1043 -0.5166  0.3159
 9202TIP3    H249098   6.172   2.796   4.044  0.9367  0.8002 -1.9791
 9203TIP3   OH249099   2.096   4.275   5.479  0.0084  0.1313  0.3253
 9203TIP3    H149100   2.104   4.187   5.444  0.4069  0.1281  0.4248
 9203TIP3    H249101   2.173   4.286   5.534  0.3721  0.8324 -0.3149
 9204TIP3   OH249102   4.354   0.294   2.477  0.0003 -0.3643 -0.0857
 9204TIP3    H149103   4.271   0.326   2.440  1.0509  0.4390 -1.8838
 9204TIP3    H249104   4.329   0.219   2.531 -2.2072  1.5299  1.7102
 9205TIP3   OH249105   3.639   5.278  15.956 -0.7917  0.0184 -0.4009
 9205TIP3    H149106   3.660   5.358  15.909  0.2789  1.0941  1.7702
 9205TIP3    H249107   3.723   5.245  15.987 -1.4910 -0.0896  1.5337
 9206TIP3   OH249108   6.533   5.870  13.575  0.3688 -0.2535 -0.0385
 9206TIP3    H149109   6.539   5.776  13.589 -0.2971 -0.6514 -2.0684
 9206TIP3    H249110   6.581   5.885  13.493  0.9558  1.2715  0.5450
 9207TIP3   OH249111   4.964   0.208  16.673 -0.1046 -0.1011  0.0117
 9207TIP3    H149112   4.926   0.128  16.709 -3.9965  1.3332 -0.4660
 9207TIP3    H249113   4.983   0.262  16.749  1.0269 -0.7785  0.2464
 9208TIP3   OH249114   6.174   0.790  10.578 -0.2573  0.3781  0.1590
 9208TIP3    H149115   6.204   0.872  10.538  0.0309 -0.4733 -1.4877
 9208TIP3    H249116   6.089   0.773  10.537  0.1167 -0.6015 -0.2592
 9209TIP3   OH249117   5.322   1.025  15.735  0.5608  0.2313 -0.2294
 9209TIP3    H149118   5.272   0.947  15.759  0.3135  0.4164 -0.1353
 9209TIP3    H249119   5.255   1.091  15.716  0.7528  0.9409  1.3990
 9210TIP3   OH249120   3.439   3.705  11.406  0.2408 -0.5477  0.0537
 9210TIP3    H149121   3.524   3.734  11.438 -0.6151  0.9705  1.1458
 9210TIP3    H249122   3.436   3.734  11.315 -0.0320  1.6968  0.7172
 9211TIP3   OH249123   4.585   4.595   1.505  0.0346 -0.0323 -0.2705
 9211TIP3    H149124   4.551   4.505   1.501  0.4520 -0.1695 -0.8232
 9211TIP3    H249125   4.629   4.608   1.422 -1.2630  1.2126 -0.8011
 9212TIP3   OH249126   6.747   3.170   6.439 -1.2268  0.2898 -0.0141
 9212TIP3    H149127   6.680   3.184   6.505 -1.7161 -1.1660 -0.1555
 9212TIP3    H249128   6.816   3.233   6.460 -2.7366  1.9951 -0.0336
 9213TIP3   OH249129   1.350   6.662  11.943  0.1067 -0.0270 -0.7552
 9213TIP3    H149130   1.398   6.658  12.026 -0.7793  1.4418 -0.1284
 9213TIP3    H249131   1.411   6.702  11.882  0.4633 -0.3110 -0.5934
 9214TIP3   OH249132   5.258   1.538   5.030  0.4933  0.5944 -0.1593
 9214TIP3    H149133   5.266   1.471   4.963 -0.6804  0.7004 -0.4240
 9214TIP3    H249134   5.321   1.512   5.097 -0.0350 -0.8671 -0.1828
 9215TIP3   OH249135   5.271   5.741   1.276 -0.3793  0.0544  0.5929
 9215TIP3    H149136   5.284   5.685   1.200 -1.0227 -1.2749  1.4310
 9215TIP3    H249137   5.358   5.773   1.298  0.0270 -0.7852  0.2254
 9216TIP3   OH249138   6.382   5.064   3.138  0.0447 -0.6018  0.6190
 9216TIP3    H149139   6.305   5.063   3.195  1.1625  1.7480  2.3256
 9216TIP3    H249140   6.394   5.156   3.115  2.9088 -0.7304  1.2535
 9217TIP3   OH249141   3.412   2.708  15.042  0.6053 -0.1610  0.3419
 9217TIP3    H149142   3.418   2.706  14.947  0.7154 -1.7584  0.3636
 9217TIP3    H249143   3.502   2.697  15.072  0.3895 -1.2823  0.6169
 9218TIP3   OH249144   4.327   6.402  11.281 -0.4175 -0.2369 -0.3752
 9218TIP3    H149145   4.324   6.452  11.363  0.3655 -1.8710  0.7062
 9218TIP3    H249146   4.370   6.461  11.219  2.3139 -0.1806  1.3940
 9219TIP3   OH249147   0.609   4.521   1.771  0.6423  0.1796 -0.1305
 9219TIP3    H149148   0.618   4.425   1.768 -2.7884 -0.2739 -0.0329
 9219TIP3    H249149   0.535   4.536   1.830  0.8014  2.8959 -0.5192
 9220TIP3   OH249150   3.444   2.155   2.985  0.2338 -0.3575  0.2800
 9220TIP3    H149151   3.496   2.214   3.041  0.3536  0.7826 -0.9810
 9220TIP3    H249152   3.454   2.191   2.897  0.5228 -2.4572 -0.5875
 9221TIP3   OH249153   6.636   5.972   2.827  0.6937 -0.1597  0.1056
 9221TIP3    H149154   6.726   5.948   2.849  0.4136  0.4587  2.1082
 9221TIP3    H249155   6.611   6.037   2.893 -0.9775  0.2538 -0.8611
 9222TIP3   OH249156   3.705   3.039  16.571 -0.4384 -0.8032  0.1695
 9222TIP3    H149157   3.788   3.001  16.542 -0.9638 -2.2506  0.4737
 9222TIP3    H249158   3.656   3.056  16.491 -0.0271 -0.3211  0.0106
 9223TIP3   OH249159   4.555   3.631  13.711  0.7955 -0.2858  0.0399
 9223TIP3    H149160   4.583   3.584  13.790 -0.2429 -2.2795 -0.6989
 9223TIP3    H249161   4.481   3.580  13.678 -0.0628  1.6130 -1.1632
 9224TIP3   OH249162   6.298   4.884   3.984  0.2511  0.4862 -0.3036
 9224TIP3    H149163   6.328   4.975   3.977 -0.5205  0.7936  0.2907
 9224TIP3    H249164   6.335   4.853   4.066 -1.1250  0.9090  0.4986
 9225TIP3   OH249165   4.932   1.641   1.079 -0.5523 -0.6728  0.5971
 9225TIP3    H149166   5.022   1.669   1.096 -1.0741  1.0614  0.7359
 9225TIP3    H249167   4.881   1.681   1.149 -1.6170 -0.4104 -0.2908
 9226TIP3   OH249168   4.957   1.559  14.649 -0.0262  0.2673  0.3149
 9226TIP3    H149169   4.888   1.625  14.653  0.3783  0.7590 -0.5347
 9226TIP3    H249170   4.961   1.534  14.557  1.6912  1.0791  0.1328
 9227TIP3   OH249171   3.279   4.307   1.734  0.5124  0.7977 -0.0021
 9227TIP3    H149172   3.196   4.337   1.696  1.0222  1.5714 -0.5547
 9227TIP3    H249173   3.327   4.271   1.659 -0.4483 -2.3905  0.7866
 9228TIP3   OH249174   6.798   5.584  11.080  0.2312 -0.1352 -0.3974
 9228TIP3    H149175   6.846   5.614  11.157 -0.6709 -0.0949  0.1534
 9228TIP3    H249176   6.707   5.579  11.108 -0.4545  1.7995 -1.9976
 9229TIP3   OH249177   0.290   5.599  11.169  0.2648 -0.1235 -0.0331
 9229TIP3    H149178   0.347   5.532  11.130 -0.0884  0.2536 -1.2520
 9229TIP3    H249179   0.350   5.667  11.199  0.4902  0.2403 -1.2444
 9230TIP3   OH249180   2.224   0.961  14.495  0.1569 -0.2931  0.2694
 9230TIP3    H149181   2.274   0.893  14.449 -1.5900 -1.5281  0.0862
 9230TIP3    H249182   2.290   1.025  14.522  1.5945 -0.8816 -1.5872
 9231TIP3   OH249183   5.715   2.952   0.447  0.1863 -0.6255 -0.1658
 9231TIP3    H149184   5.809   2.973   0.442 -0.1154  0.8994  0.1518
 9231TIP3    H249185   5.671   3.036   0.437 -1.1859 -1.3830 -0.8212
 9232TIP3   OH249186   1.421   6.763   3.419 -0.1353  0.3482 -0.2457
 9232TIP3    H149187   1.392   6.722   3.501 -0.3938  2.2967  0.6864
 9232TIP3    H249188   1.371   6.717   3.351 -1.2838 -0.0978  0.8465
 9233TIP3   OH249189   4.830   3.044   2.502 -0.0571  1.1464 -0.0307
 9233TIP3    H149190   4.811   2.967   2.555  0.4284  1.3865  0.4975
 9233TIP3    H249191   4.756   3.050   2.441 -1.2716  1.5611  1.4097
 9234TIP3   OH249192   6.563   6.200  16.836  0.3508  0.0226  0.7367
 9234TIP3    H149193   6.593   6.111  16.821  0.7729  0.3035 -0.1518
 9234TIP3    H249194   6.499   6.192  16.906 -0.4949 -1.1544 -0.1197
 9235TIP3   OH249195   5.969   1.308   2.678 -0.0106  0.2977  0.3769
 9235TIP3    H149196   5.942   1.252   2.605  0.2415  1.1483 -0.3978
 9235TIP3    H249197   6.028   1.372   2.637  0.7212  0.3341  1.4698
 9236TIP3   OH249198   4.001   3.588  12.931  0.2559 -0.0882 -0.5459
 9236TIP3    H149199   4.079   3.594  12.986 -0.1589 -0.4230  0.0975
 9236TIP3    H249200   3.999   3.497  12.903  0.2000 -0.0344 -0.7127
 9237TIP3   OH249201   1.205   3.258  12.200  0.2200  0.8377  0.3009
 9237TIP3    H149202   1.143   3.257  12.273  1.8266 -1.7077  1.8037
 9237TIP3    H249203   1.150   3.259  12.121 -1.8615 -2.0325  1.5396
 9238TIP3   OH249204   2.058   1.172  15.751  0.2634  0.4739  0.4498
 9238TIP3    H149205   2.004   1.201  15.677  1.4674 -0.9891 -1.0910
 9238TIP3    H249206   2.148   1.186  15.722  0.7646  0.9536  2.1446
 9239TIP3   OH249207   0.771   3.449   5.727 -0.2199 -0.1990  0.0626
 9239TIP3    H149208   0.685   3.409   5.743  0.5803 -1.7827  0.5685
 9239TIP3    H249209   0.813   3.449   5.812  1.0768 -1.3956 -0.5414
 9240TIP3   OH249210   2.684   2.989   0.988 -0.8119  0.5317 -0.3400
 9240TIP3    H149211   2.591   3.013   0.990 -1.0816 -0.3083  3.1801
 9240TIP3    H249212   2.718   3.019   1.072  1.1383 -2.5927  0.1438
 9241TIP3   OH249213   2.157   4.463   4.557  0.7047 -0.2244  0.1267
 9241TIP3    H149214   2.110   4.442   4.476  1.2368 -1.2137  0.0622
 9241TIP3    H249215   2.202   4.545   4.538  2.3167 -1.3571 -1.2406
 9242TIP3   OH249216   1.268   5.115  13.669  0.3924 -0.2332  0.4046
 9242TIP3    H149217   1.328   5.069  13.727  0.1515 -0.6642  0.3169
 9242TIP3    H249218   1.192   5.057  13.662  0.1092  0.1513  0.2463
 9243TIP3   OH249219   6.371   6.654   6.437  0.5405 -0.1041  0.9119
 9243TIP3    H149220   6.427   6.578   6.451  1.4406 -0.1673 -2.2871
 9243TIP3    H249221   6.293   6.619   6.393  0.2162  0.6154  0.8961
 9244TIP3   OH249222   4.389   1.268   4.285  0.3848  0.1878 -0.0321
 9244TIP3    H149223   4.478   1.294   4.260  0.3881  0.9055  0.6984
 9244TIP3    H249224   4.346   1.350   4.310 -0.1675 -0.2773  0.5793
 9245TIP3   OH249225   1.995   3.800  15.113  0.6832 -0.3730 -0.0814
 9245TIP3    H149226   2.000   3.857  15.191  0.6458  0.7891 -0.8975
 9245TIP3    H249227   1.918   3.832  15.065  2.3148  0.8523 -2.0207
 9246TIP3   OH249228   5.039   3.528  13.773 -0.8127 -0.2210  0.0256
 9246TIP3    H149229   4.955   3.499  13.736  0.8908 -2.3757 -2.4873
 9246TIP3    H249230   5.075   3.586  13.706  0.0190  0.1670  0.7963
 9247TIP3   OH249231   4.466   6.509  16.919 -0.4398  0.1288 -0.2741
 9247TIP3    H149232   4.447   6.451  16.846 -2.0446  1.4312 -0.9471
 9247TIP3    H249233   4.381   6.523  16.961  0.0810  1.2007  0.4605
 9248TIP3   OH249234   0.836   0.276  13.722 -0.0633  0.4818  0.1182
 9248TIP3    H149235   0.864   0.310  13.637 -0.4240 -0.0763 -0.2296
 9248TIP3    H249236   0.770   0.211  13.701  0.1819 -0.0008  0.8035
 9249TIP3   OH249237   2.373   1.933  16.844 -0.2318  0.1667  0.2966
 9249TIP3    H149238   2.279   1.915  16.841 -0.1022 -0.3962 -1.1235
 9249TIP3    H249239   2.378   2.028  16.854 -0.9759  0.2919 -0.3353
 9250TIP3   OH249240   4.495   0.339   4.990 -0.0770  0.7856 -0.0351
 9250TIP3    H149241   4.446   0.395   4.929 -0.9207  0.5106  0.3667
 9250TIP3    H249242   4.576   0.386   5.006  0.1425  0.8873 -1.3272
 9251TIP3   OH249243   4.314   3.857   0.880  0.3836 -0.0794  0.0526
 9251TIP3    H149244   4.398   3.848   0.836  0.2751  2.3648 -0.8029
 9251TIP3    H249245   4.324   3.933   0.937 -1.3767  0.6321 -0.5020
 9252TIP3   OH249246   0.719   2.993  11.216 -0.2964  0.7173 -0.1341
 9252TIP3    H149247   0.662   3.060  11.253 -0.3607  0.6042 -0.0295
 9252TIP3    H249248   0.661   2.917  11.203 -0.0048  0.3570  0.6630
 9253TIP3   OH249249   5.112   4.606   1.483 -0.1674  0.2697  0.2975
 9253TIP3    H149250   5.207   4.595   1.487 -0.0373  0.2169 -1.8333
 9253TIP3    H249251   5.096   4.697   1.505  0.2892  0.0917  1.4112
 9254TIP3   OH249252   6.337   3.449   3.443  0.4443  0.2010  0.2574
 9254TIP3    H149253   6.413   3.430   3.388 -0.2909  0.4180 -0.8839
 9254TIP3    H249254   6.263   3.414   3.393 -0.3993  1.6434  0.4459
 9255TIP3   OH249255   4.097   4.156   5.363 -0.1816  0.3076  0.7761
 9255TIP3    H149256   4.075   4.064   5.377  0.8657  0.1674  1.5738
 9255TIP3    H249257   4.191   4.161   5.378  0.2002  1.1042 -1.3921
 9256TIP3   OH249258   6.679   2.061   5.775 -0.2775  0.4695  0.0485
 9256TIP3    H149259   6.668   1.992   5.840  1.6793  1.3002  1.3879
 9256TIP3    H249260   6.747   2.028   5.716  0.4112  1.0757  0.4866
 9257TIP3   OH249261   1.926   3.317   1.444 -0.3268  0.4597 -0.1074
 9257TIP3    H149262   1.935   3.409   1.470  0.5778  0.5888 -0.8358
 9257TIP3    H249263   1.898   3.272   1.523  0.8934  1.0903  0.7012
 9258TIP3   OH249264   2.823   4.098   1.290  0.3859  0.1226 -0.2522
 9258TIP3    H149265   2.797   4.015   1.331  0.2768  0.7027  0.9220
 9258TIP3    H249266   2.777   4.099   1.207 -1.7931  0.1844  0.8711
 9259TIP3   OH249267   3.444   4.586   3.630 -0.1065 -0.3330 -0.4256
 9259TIP3    H149268   3.422   4.610   3.720 -1.8883 -0.1861 -0.8646
 9259TIP3    H249269   3.386   4.640   3.576 -1.6822 -2.9484 -1.5443
 9260TIP3   OH249270   6.358   5.974   2.447  0.3699 -0.1479  0.3758
 9260TIP3    H149271   6.385   5.912   2.380 -0.2853 -1.4063  1.2269
 9260TIP3    H249272   6.277   5.937   2.483  1.1448  0.0085  2.4319
 9261TIP3   OH249273   3.575   4.849   1.654  0.4014  0.2268 -0.3746
 9261TIP3    H149274   3.555   4.757   1.668  1.3557 -0.1790 -1.5190
 9261TIP3    H249275   3.551   4.867   1.564  0.8166  0.9303 -0.3598
 9262TIP3   OH249276   5.924   5.071   0.471  0.5311 -0.4226  0.5846
 9262TIP3    H149277   5.870   5.143   0.503 -0.8813 -0.7652 -0.8727
 9262TIP3    H249278   6.010   5.111   0.455  0.2157  0.5592  1.2418
 9263TIP3   OH249279   0.903   5.802  13.240  0.4264 -0.6092 -0.0016
 9263TIP3    H149280   0.934   5.873  13.184 -0.6775  0.0009  0.1348
 9263TIP3    H249281   0.890   5.728  13.180 -0.8153  0.0580 -0.5967
 9264TIP3   OH249282   6.055   3.805   0.495 -0.1578  0.0624 -0.0961
 9264TIP3    H149283   6.011   3.809   0.580 -1.0984 -0.5406 -0.5341
 9264TIP3    H249284   6.127   3.745   0.508 -1.6456 -1.8558 -0.2674
 9265TIP3   OH249285   4.314   5.771  13.796  0.1652  0.0867 -0.0907
 9265TIP3    H149286   4.302   5.693  13.741  0.0556 -0.3404  0.5216
 9265TIP3    H249287   4.370   5.741  13.867  0.3325  0.6409  0.0148
 9266TIP3   OH249288   1.071   0.465  14.423  0.2819 -0.3462  0.0980
 9266TIP3    H149289   1.072   0.554  14.458 -1.3399  0.0318 -0.7407
 9266TIP3    H249290   1.079   0.476  14.328  0.2801 -1.1092  0.0037
 9267TIP3   OH249291   4.768   4.578   1.989  0.2249  0.2667 -0.2677
 9267TIP3    H149292   4.739   4.532   2.068  0.0413 -0.7376 -0.9006
 9267TIP3    H249293   4.730   4.665   1.996  1.6243  0.7782  1.5853
 9268TIP3   OH249294   5.973   2.012   3.628 -0.4952 -0.0039 -0.0022
 9268TIP3    H149295   5.929   2.097   3.623  0.4208  0.5706  1.2074
 9268TIP3    H249296   5.941   1.964   3.552 -3.4120  0.2864  0.9041
 9269TIP3   OH249297   2.786   2.016   4.384 -0.4105 -0.1318 -0.0817
 9269TIP3    H149298   2.718   2.037   4.448 -0.8208 -1.7940  0.0926
 9269TIP3    H249299   2.741   1.963   4.318  0.5943 -0.8810 -0.1972
 9270TIP3   OH249300   0.973   3.271  10.888 -0.9545  0.6392  0.0143
 9270TIP3    H149301   1.000   3.196  10.835  0.3865  2.4811 -2.0875
 9270TIP3    H249302   0.895   3.304  10.844 -1.3125  0.7140  0.6969
 9271TIP3   OH249303   2.696   6.661   4.818  0.3358 -0.4919  0.2133
 9271TIP3    H149304   2.731   6.724   4.881  1.2436  0.6122 -1.3429
 9271TIP3    H249305   2.735   6.685   4.735 -2.0890 -0.8976 -1.1301
 9272TIP3   OH249306   4.332   0.692   4.616 -0.1163 -0.0483  0.2808
 9272TIP3    H149307   4.339   0.688   4.711  0.8688 -0.8660  0.1829
 9272TIP3    H249308   4.394   0.761   4.591 -1.0520  0.8294  0.2757
 9273TIP3   OH249309   0.758   5.365  16.637  0.2696 -0.0289 -0.5016
 9273TIP3    H149310   0.690   5.335  16.697 -0.0827 -0.5682 -1.1552
 9273TIP3    H249311   0.778   5.288  16.583  0.5322  0.4636 -1.1135
 9274TIP3   OH249312   0.662   5.038   3.399  0.2563  0.4467  0.0977
 9274TIP3    H149313   0.582   5.040   3.450  0.6027  1.5459  0.6385
 9274TIP3    H249314   0.678   4.945   3.382 -1.4132  0.2452 -0.5111
 9275TIP3   OH249315   4.872   5.002  13.476  0.1564 -0.2280 -0.0469
 9275TIP3    H149316   4.788   4.995  13.522 -0.6111  1.3421 -1.1340
 9275TIP3    H249317   4.901   5.091  13.493  1.7262 -0.8111  0.4576
 9276TIP3   OH249318   2.522   4.725   2.280 -0.0601  0.1341 -0.0892
 9276TIP3    H149319   2.578   4.770   2.344 -1.3520  0.2696  0.9886
 9276TIP3    H249320   2.436   4.766   2.291 -0.0010  1.2925 -3.0647
 9277TIP3   OH249321   6.407   0.711   5.158  0.1307 -0.1147 -0.0966
 9277TIP3    H149322   6.460   0.744   5.085  0.6883 -0.4905  0.1274
 9277TIP3    H249323   6.404   0.783   5.220 -2.9321  1.3689 -1.7660
 9278TIP3   OH249324   2.942   0.753   3.326 -0.1972  0.4953  0.4020
 9278TIP3    H149325   2.938   0.661   3.301  0.6173  0.8981 -1.3320
 9278TIP3    H249326   2.938   0.752   3.421  4.8702 -1.7295  0.9113
 9279TIP3   OH249327   3.311   0.811   1.682  0.3693 -0.2846 -0.3390
 9279TIP3    H149328   3.292   0.898   1.716  3.0379 -0.4171  1.7674
 9279TIP3    H249329   3.261   0.752   1.738  1.3823 -0.2503  0.6430
 9280TIP3   OH249330   4.298   3.257  11.705  0.1637 -0.1759  0.1495
 9280TIP3    H149331   4.266   3.198  11.773  0.0430  0.1986  0.4254
 9280TIP3    H249332   4.227   3.261  11.640  0.9036 -1.7554 -0.7985
 9281TIP3   OH249333   4.081   5.233  13.624 -0.5091  0.0031  0.3870
 9281TIP3    H149334   4.149   5.243  13.691  0.6303 -1.5840 -0.4597
 9281TIP3    H249335   3.999   5.236  13.674  0.2896 -0.7840  1.8468
 9282TIP3   OH249336   1.618   3.837  14.262 -0.1895  0.1855  0.2551
 9282TIP3    H149337   1.665   3.908  14.218  1.9075 -1.5048 -0.4140
 9282TIP3    H249338   1.568   3.794  14.192  0.1407 -0.2060  0.2568
 9283TIP3   OH249339   6.764   3.210  13.255  0.0098 -0.0527  0.0084
 9283TIP3    H149340   6.790   3.158  13.331 -2.3199 -0.9084  0.3062
 9283TIP3    H249341   6.716   3.284  13.291 -0.2352  0.0872 -0.5912
 9284TIP3   OH249342   5.517   5.809  17.155  0.0095  0.0119 -0.2071
 9284TIP3    H149343   5.583   5.773  17.215  1.9436 -0.5431 -2.4904
 9284TIP3    H249344   5.496   5.735  17.098 -2.3706  0.3106  0.2044
 9285TIP3   OH249345   0.750   2.919  12.521 -0.0787 -0.1454 -0.5425
 9285TIP3    H149346   0.668   2.921  12.471 -0.9312 -1.3733  0.6862
 9285TIP3    H249347   0.750   2.832  12.562  0.9484  0.5009  0.9319
 9286TIP3   OH249348   2.659   1.516   0.209  0.3681 -0.5551 -0.2932
 9286TIP3    H149349   2.724   1.474   0.265  0.3963  1.1881  1.0796
 9286TIP3    H249350   2.696   1.513   0.121  0.5358 -2.9609 -0.2017
 9287TIP3   OH249351   1.079   2.554   4.914 -0.2098 -0.7899  0.4162
 9287TIP3    H149352   1.048   2.466   4.892 -1.2887  0.1620 -2.2819
 9287TIP3    H249353   1.162   2.562   4.867 -0.1959 -0.3057  0.5252
 9288TIP3   OH249354   3.174   4.859   1.027  0.1710  0.6827 -0.2546
 9288TIP3    H149355   3.195   4.795   0.958 -1.3819  1.3640 -1.4286
 9288TIP3    H249356   3.220   4.827   1.104  0.4757 -1.1460 -1.1343
 9289TIP3   OH249357   2.334   1.551  15.546  0.0478  0.2630  0.9390
 9289TIP3    H149358   2.246   1.518  15.566 -0.0712 -0.4258 -0.5862
 9289TIP3    H249359   2.393   1.489  15.587 -0.1941 -0.9929 -0.4974
 9290TIP3   OH249360   5.193   3.511  17.215  0.2497  0.0518 -0.0280
 9290TIP3    H149361   5.203   3.418  17.193  0.5610  0.3130 -1.0577
 9290TIP3    H249362   5.282   3.545  17.218  0.1622  0.2115  0.8585
 9291TIP3   OH249363   5.582   0.996   4.087 -0.0638  0.2312  0.4828
 9291TIP3    H149364   5.529   1.075   4.094 -1.7271 -0.7759 -0.0646
 9291TIP3    H249365   5.587   0.962   4.176 -0.4032  0.2950  0.5272
 9292TIP3   OH249366   4.731   3.453   4.251 -0.1246  0.7177 -0.0505
 9292TIP3    H149367   4.689   3.375   4.285 -0.9530  1.8384  1.5842
 9292TIP3    H249368   4.668   3.490   4.189  0.1778  0.2436 -0.6579
 9293TIP3   OH249369   6.545   2.616   2.772 -0.0312  0.9058  0.6366
 9293TIP3    H149370   6.460   2.601   2.813 -0.1832 -0.2533 -0.0777
 9293TIP3    H249371   6.605   2.630   2.845 -0.7329  1.2545  1.1593
 9294TIP3   OH249372   4.912   3.551  16.120  0.9223  0.2375  0.6713
 9294TIP3    H149373   4.906   3.462  16.153 -0.9896 -0.3841 -1.1565
 9294TIP3    H249374   4.857   3.602  16.179 -1.1302 -0.5580 -0.4672
 9295TIP3   OH249375   4.498   4.335   3.890 -0.1922 -0.4712  0.1541
 9295TIP3    H149376   4.474   4.306   3.978 -1.3767  1.6610  0.5813
 9295TIP3    H249377   4.432   4.399   3.866 -0.3942 -1.5967 -2.6862
 9296TIP3   OH249378   2.789   4.103  10.877 -0.5522 -0.2052 -0.2923
 9296TIP3    H149379   2.700   4.104  10.914  0.4124 -0.7880  2.2091
 9296TIP3    H249380   2.831   4.180  10.914  0.2776 -0.4556 -0.7010
 9297TIP3   OH249381   1.140   4.534   3.952  0.1565 -0.1841  0.2700
 9297TIP3    H149382   1.118   4.442   3.940 -1.7118  0.3811 -1.1870
 9297TIP3    H249383   1.142   4.570   3.864  0.3214  1.2778  0.8411
 9298TIP3   OH249384   4.722   6.218   4.733 -0.2728  0.1763  0.0916
 9298TIP3    H149385   4.744   6.127   4.710 -0.5159  0.0244  0.4543
 9298TIP3    H249386   4.790   6.270   4.690 -1.9330  0.0984 -2.8644
 9299TIP3   OH249387   5.068   2.969   4.314 -0.1991  0.1955 -0.0298
 9299TIP3    H149388   5.061   2.954   4.219 -0.0347  0.7107 -0.1231
 9299TIP3    H249389   5.053   3.063   4.325 -0.0071  0.1737  0.4362
 9300TIP3   OH249390   5.012   5.614  17.110  0.2200  0.3350  0.0535
 9300TIP3    H149391   5.081   5.551  17.128 -1.2683 -0.4404  3.9194
 9300TIP3    H249392   4.947   5.565  17.059  0.6412 -0.1644 -0.0084
 9301TIP3   OH249393   1.244   1.350  11.444 -0.0688  0.4952  0.2337
 9301TIP3    H149394   1.314   1.346  11.510  1.7566  0.2111 -1.6121
 9301TIP3    H249395   1.205   1.262  11.447  2.4512 -0.8382 -1.4427
 9302TIP3   OH249396   1.738   2.409   1.729 -0.2016  0.4174 -0.7750
 9302TIP3    H149397   1.693   2.391   1.811 -0.3094 -1.7362 -1.2576
 9302TIP3    H249398   1.770   2.324   1.700 -0.5228  1.0453 -3.1623
 9303TIP3   OH249399   0.061   3.686  11.750 -0.5981  0.8768  0.4488
 9303TIP3    H149400  -0.019   3.634  11.757 -0.1395 -0.0319 -0.7625
 9303TIP3    H249401   0.085   3.705  11.841 -0.8323 -0.9824  0.9450
 9304TIP3   OH249402   5.613   5.173   6.177 -0.3274  0.3996  0.3968
 9304TIP3    H149403   5.658   5.222   6.109 -0.7430  0.4905  0.1804
 9304TIP3    H249404   5.593   5.239   6.244  1.6608 -0.0014  1.4710
 9305TIP3   OH249405   4.271   1.567   3.174  0.0907  0.7675  0.1162
 9305TIP3    H149406   4.272   1.527   3.087 -2.5002  0.2591  0.2386
 9305TIP3    H249407   4.185   1.610   3.179 -0.7495 -0.9989  3.1714
 9306TIP3   OH249408   6.440   4.157  16.619  0.4178  0.0654 -0.0621
 9306TIP3    H149409   6.349   4.176  16.598  0.0280 -2.6807 -1.1834
 9306TIP3    H249410   6.436   4.109  16.701  0.7808 -0.6704 -0.4687
 9307TIP3   OH249411   6.802   2.881   5.513  0.6379 -0.1655  0.0549
 9307TIP3    H149412   6.750   2.878   5.593  1.6351 -3.6551  0.7670
 9307TIP3    H249413   6.739   2.861   5.443 -0.0484  1.9294  0.0034
 9308TIP3   OH249414   6.254   4.483   2.832 -0.2556 -0.1334  0.0103
 9308TIP3    H149415   6.240   4.569   2.792  0.6390 -0.1567 -0.3683
 9308TIP3    H249416   6.288   4.502   2.919  0.8867 -0.0891 -0.4240
 9309TIP3   OH249417   6.244   2.637  13.815 -0.0593 -0.4823 -0.2543
 9309TIP3    H149418   6.251   2.541  13.820 -1.0898 -0.6837 -1.9523
 9309TIP3    H249419   6.259   2.666  13.905  0.1440 -2.2401  0.3309
 9310TIP3   OH249420   6.041   1.587   4.411 -0.3162  0.0262 -0.5165
 9310TIP3    H149421   6.062   1.558   4.499  2.1242  2.9018  0.0016
 9310TIP3    H249422   6.080   1.522   4.353 -0.3705 -0.9385  0.5134
 9311TIP3   OH249423   1.149   2.830  14.684  0.6792  0.3563  0.0080
 9311TIP3    H149424   1.188   2.886  14.752 -0.4280  2.1073 -0.7307
 9311TIP3    H249425   1.161   2.880  14.603  2.1853 -1.7830 -1.2068
 9312TIP3   OH249426   5.722   2.174  11.648 -0.1692 -0.4880  0.0913
 9312TIP3    H149427   5.744   2.208  11.734  1.1523 -0.2911 -0.3079
 9312TIP3    H249428   5.774   2.094  11.639 -1.1179 -1.1026 -0.1024
 9313TIP3   OH249429   5.437   1.578   0.351 -0.6928  0.3941 -0.1318
 9313TIP3    H149430   5.449   1.667   0.316  0.1419  0.9461  1.4547
 9313TIP3    H249431   5.499   1.524   0.303 -0.6223  0.8315 -0.5410
 9314TIP3   OH249432   0.902   4.328  16.492  0.3189 -0.2777 -0.0649
 9314TIP3    H149433   0.922   4.390  16.421 -0.9333 -0.9405 -1.0442
 9314TIP3    H249434   0.983   4.323  16.542  1.0841  0.6133 -1.1444
 9315TIP3   OH249435   2.842   2.627   1.717 -0.3064  0.1440  0.4180
 9315TIP3    H149436   2.787   2.705   1.721  0.5613  0.7216  1.3652
 9315TIP3    H249437   2.812   2.573   1.791 -0.6576 -0.2677 -0.0164
 9316TIP3   OH249438   4.891   1.460  12.713 -0.4749 -0.7050 -0.1069
 9316TIP3    H149439   4.934   1.542  12.691 -2.0862  0.4918  0.9229
 9316TIP3    H249440   4.962   1.398  12.728  0.8923  1.0962  1.2930
 9317TIP3   OH249441   2.764   6.035   4.258 -0.2015 -0.0966 -0.2193
 9317TIP3    H149442   2.737   6.053   4.168 -0.2524 -2.1798 -0.6664
 9317TIP3    H249443   2.687   6.056   4.311 -0.8564 -0.7223 -0.8980
 9318TIP3   OH249444   4.272   4.065  15.426 -0.4594 -0.1253 -0.3678
 9318TIP3    H149445   4.249   4.014  15.503 -0.4207 -2.0974 -1.6145
 9318TIP3    H249446   4.352   4.111  15.450  0.5654 -2.1287  0.1904
 9319TIP3   OH249447   3.400   4.983  12.896  0.1940 -0.2815  0.0494
 9319TIP3    H149448   3.326   4.993  12.955  1.9408 -2.0615  2.7367
 9319TIP3    H249449   3.472   5.029  12.939  1.2218 -0.4811 -1.3839
 9320TIP3   OH249450   0.419   3.419   5.412 -0.4793 -0.0402 -0.0685
 9320TIP3    H149451   0.332   3.397   5.447  0.6493 -1.4954  2.0588
 9320TIP3    H249452   0.430   3.512   5.433 -0.4626 -0.5031  2.3017
 9321TIP3   OH249453   0.782   5.156   2.530 -0.0309 -0.2072  0.1035
 9321TIP3    H149454   0.753   5.173   2.440  0.4420  1.3457  0.2183
 9321TIP3    H249455   0.775   5.061   2.540  0.6100 -0.5047 -1.8268
 9322TIP3   OH249456   4.378   2.821   4.256  0.2772 -0.4486  0.0970
 9322TIP3    H149457   4.359   2.737   4.298 -3.1640  1.0681  2.0173
 9322TIP3    H249458   4.322   2.823   4.179  0.6458 -0.0596 -0.1671
 9323TIP3   OH249459   1.568   0.887  12.066 -0.3052  0.3972  0.1910
 9323TIP3    H149460   1.546   0.928  11.982 -2.3724  1.3683  1.1484
 9323TIP3    H249461   1.655   0.922  12.086  0.2500  0.1229 -1.5160
 9324TIP3   OH249462   0.359   4.979  13.004 -0.1422  0.1743 -0.0377
 9324TIP3    H149463   0.338   4.920  13.076 -1.4530  1.6664  0.8576
 9324TIP3    H249464   0.286   5.040  13.000  0.9000  1.4159 -1.2745
 9325TIP3   OH249465   0.746   1.246   1.523 -0.1060 -0.1131 -0.0166
 9325TIP3    H149466   0.666   1.228   1.572  0.2802  1.2355  1.1767
 9325TIP3    H249467   0.721   1.313   1.459  0.2295  0.9884  0.9656
 9326TIP3   OH249468   1.022   1.918  11.864 -0.1690 -0.5888  0.0840
 9326TIP3    H149469   1.063   1.866  11.796 -0.4907  0.1774 -0.7114
 9326TIP3    H249470   1.027   1.864  11.943 -1.5479 -2.3469 -0.9661
 9327TIP3   OH249471   5.486   3.159   5.724 -0.0867 -0.1376  0.4555
 9327TIP3    H149472   5.487   3.075   5.678  2.1087  0.3103 -0.4915
 9327TIP3    H249473   5.394   3.182   5.731 -0.6372 -1.6426 -1.1118
 9328TIP3   OH249474   1.690   4.515  12.764 -0.6429  0.3426  1.0321
 9328TIP3    H149475   1.715   4.606  12.781  1.0674  0.0237  0.4454
 9328TIP3    H249476   1.675   4.512  12.670 -0.5588 -0.0243  1.0315
 9329TIP3   OH249477   5.599   5.570   2.076  0.3440 -0.2167 -0.2315
 9329TIP3    H149478   5.519   5.621   2.090  1.4331  1.8067 -0.9423
 9329TIP3    H249479   5.662   5.606   2.138  1.9038  1.1822 -2.4747
 9330TIP3   OH249480   4.572   0.781  12.758  0.4821 -0.1094  0.1325
 9330TIP3    H149481   4.548   0.864  12.717  1.7474 -0.8248 -2.2930
 9330TIP3    H249482   4.489   0.745  12.791 -0.1403  1.8794  0.8805
 9331TIP3   OH249483   4.828   2.989  13.594  0.1685 -0.2337 -0.0659
 9331TIP3    H149484   4.781   2.996  13.677  0.1557  0.2382 -0.1098
 9331TIP3    H249485   4.771   2.934  13.539 -0.6875  0.9106 -0.3622
 9332TIP3   OH249486   4.434   0.855  17.294 -0.4903 -0.0976  0.0275
 9332TIP3    H149487   4.466   0.918  17.229 -2.1802  0.0661 -0.7011
 9332TIP3    H249488   4.466   0.770  17.262 -0.8894  0.0372 -0.7529
 9333TIP3   OH249489   0.471   1.124  11.662 -0.0132  0.0253 -0.1710
 9333TIP3    H149490   0.495   1.033  11.644  0.3409  0.0174  0.3233
 9333TIP3    H249491   0.394   1.117  11.719  0.1890  0.0345  0.1018
 9334TIP3   OH249492   3.502   6.367   2.801 -0.9411  0.1495 -0.3748
 9334TIP3    H149493   3.444   6.396   2.871  0.1400  0.4135  0.4420
 9334TIP3    H249494   3.569   6.434   2.796  1.2219 -1.7418  1.0714
 9335TIP3   OH249495   4.151   1.730  10.602  0.3770 -0.3746 -0.1333
 9335TIP3    H149496   4.077   1.687  10.645 -0.2475 -1.0598 -1.8252
 9335TIP3    H249497   4.121   1.818  10.584  0.6642 -0.0650  0.8597
 9336TIP3   OH249498   0.068   4.158   4.761  0.5228 -0.2177 -0.2756
 9336TIP3    H149499  -0.018   4.182   4.727  0.5696 -1.4184 -1.3233
 9336TIP3    H249500   0.129   4.189   4.693  0.8764  0.1656  0.2130
 9337TIP3   OH249501   4.106   1.472  13.285  0.4570 -0.1237 -0.9042
 9337TIP3    H149502   4.137   1.442  13.371 -3.8126  1.5265  1.5213
 9337TIP3    H249503   4.125   1.565  13.285 -3.3591  0.8233  0.4227
 9338TIP3   OH249504   6.038   2.932   3.738  0.0164 -0.3137  0.0101
 9338TIP3    H149505   5.951   2.935   3.699 -0.4455  0.1313  1.0558
 9338TIP3    H249506   6.095   2.971   3.671 -0.2783 -2.1577 -1.3925
 9339TIP3   OH249507   1.284   1.928  11.071 -0.0383  0.3153  0.7110
 9339TIP3    H149508   1.240   1.910  10.988  1.1546  1.3509 -0.1809
 9339TIP3    H249509   1.372   1.892  11.060  0.0674  0.2827  1.6142
 9340TIP3   OH249510   0.477   0.353  13.953  0.3976 -0.7910  0.1092
 9340TIP3    H149511   0.467   0.409  13.876  0.4275 -0.6787  0.1867
 9340TIP3    H249512   0.398   0.368  14.004 -0.1434 -1.7159 -0.4473
 9341TIP3   OH249513   4.805   1.097  12.596 -0.2816  0.2014  0.4799
 9341TIP3    H149514   4.762   1.105  12.510  1.8791  1.3715 -0.5866
 9341TIP3    H249515   4.889   1.055  12.576 -0.8050 -1.9262  2.4574
 9342TIP3   OH249516   5.153   2.230  11.495 -0.5610 -0.6053  0.0268
 9342TIP3    H149517   5.109   2.314  11.491 -2.1792 -1.4063  0.1996
 9342TIP3    H249518   5.241   2.247  11.461 -1.0033  1.0426 -0.3688
 9343TIP3   OH249519   5.887   3.051  15.450 -0.3361 -0.1408 -0.1892
 9343TIP3    H149520   5.837   3.089  15.378  0.2091 -0.0417 -0.5154
 9343TIP3    H249521   5.843   3.083  15.529  0.5397  1.8027 -0.4272
 9344TIP3   OH249522   3.329   2.266  15.273 -0.6391 -0.1897  0.0513
 9344TIP3    H149523   3.254   2.209  15.288 -0.6570 -0.0970  0.3149
 9344TIP3    H249524   3.372   2.229  15.195 -0.9216 -0.2781 -0.0639
 9345TIP3   OH249525   6.721   3.444   0.356 -0.5419  0.1459 -0.1370
 9345TIP3    H149526   6.734   3.499   0.433  0.2619 -0.1646 -0.0458
 9345TIP3    H249527   6.713   3.356   0.391  0.3099 -0.0584 -0.4337
 9346TIP3   OH249528   5.711   1.046  12.719 -0.4371  0.0885 -0.4276
 9346TIP3    H149529   5.777   0.998  12.670  0.5518 -1.0904  1.9116
 9346TIP3    H249530   5.634   0.989  12.719 -0.4244  0.0725 -0.5772
 9347TIP3   OH249531   0.318   5.326   5.424 -0.9514  0.6660 -0.3363
 9347TIP3    H149532   0.364   5.331   5.508  1.5711 -0.5447 -1.5478
 9347TIP3    H249533   0.363   5.389   5.368 -1.4174  0.1920 -1.2735
 9348TIP3   OH249534   2.239   4.115  16.420  1.0224  0.2526  0.2524
 9348TIP3    H149535   2.262   4.113  16.327  1.0979  1.2633  0.2418
 9348TIP3    H249536   2.149   4.081  16.423  0.8940  0.5425 -0.2308
 9349TIP3   OH249537   3.030   1.091   5.991  0.2181  0.8929 -0.0021
 9349TIP3    H149538   2.951   1.144   5.997 -0.4171 -0.0839  0.5470
 9349TIP3    H249539   3.034   1.065   5.899 -0.0111  1.0901 -0.0693
 9350TIP3   OH249540   6.191   1.863   2.114  0.4826  0.2811  0.1668
 9350TIP3    H149541   6.209   1.799   2.046  0.6114 -0.9645  1.3219
 9350TIP3    H249542   6.167   1.811   2.191 -1.0894  1.6775  0.6933
 9351TIP3   OH249543   2.441   1.891  14.106  0.0599 -0.0631 -0.5734
 9351TIP3    H149544   2.403   1.931  14.028 -0.8904 -0.7825 -0.4941
 9351TIP3    H249545   2.522   1.940  14.120 -0.7522  1.4349 -0.8256
 9352TIP3   OH249546   0.840   5.549   0.507 -0.3592 -0.5632  0.1962
 9352TIP3    H149547   0.928   5.555   0.470 -0.0632  0.2720  0.9889
 9352TIP3    H249548   0.850   5.491   0.583  0.1608  1.7857  2.0172
 9353TIP3   OH249549   0.537   1.652   1.640 -0.4386  0.2910  0.3010
 9353TIP3    H149550   0.486   1.570   1.642 -2.8676  1.6965  0.7722
 9353TIP3    H249551   0.568   1.663   1.729 -0.1368 -0.0770  0.2456
 9354TIP3   OH249552   1.676   2.086   0.638 -0.1366 -0.0128 -0.1774
 9354TIP3    H149553   1.607   2.151   0.628 -0.3511 -0.4703 -2.0859
 9354TIP3    H249554   1.757   2.137   0.646 -0.5392  0.4996  0.8204
 9355TIP3   OH249555   4.833   5.368   1.896  0.5377  0.3072 -0.0737
 9355TIP3    H149556   4.917   5.371   1.851  0.8966  1.6476  0.6288
 9355TIP3    H249557   4.802   5.459   1.896 -0.6396 -0.0679  0.1948
 9356TIP3   OH249558   1.245   0.263  16.947 -0.3752  0.6147 -0.7193
 9356TIP3    H149559   1.185   0.321  16.900 -2.1468 -0.7006 -0.1824
 9356TIP3    H249560   1.196   0.183  16.960  1.1610 -0.1663  0.6744
 9357TIP3   OH249561   1.550   2.777   1.088  0.1976 -0.1268 -0.6705
 9357TIP3    H149562   1.476   2.725   1.056  0.4688 -1.2559  0.4902
 9357TIP3    H249563   1.510   2.848   1.138 -0.1025 -0.8153  0.0700
 9358TIP3   OH249564   2.776   6.293   4.848  0.2566  0.4399  0.2906
 9358TIP3    H149565   2.833   6.222   4.819 -0.6381 -0.2264  0.0858
 9358TIP3    H249566   2.821   6.373   4.822  0.3282 -0.0961 -1.3794
 9359TIP3   OH249567   0.718   1.909   3.364  0.8681 -0.0178  0.1245
 9359TIP3    H149568   0.693   1.983   3.309  1.2133 -0.2774 -0.3987
 9359TIP3    H249569   0.638   1.883   3.409  0.5229  0.0431 -0.4520
 9360TIP3   OH249570   3.368   2.497  14.731  0.0346  0.1576 -0.2849
 9360TIP3    H149571   3.361   2.445  14.651 -2.6188 -0.9888  0.5768
 9360TIP3    H249572   3.358   2.587  14.702  0.0412 -0.1693 -1.3398
 9361TIP3   OH249573   6.621   6.257   2.888 -0.2337 -0.1210  0.1039
 9361TIP3    H149574   6.683   6.257   2.960 -0.8169  1.4903  0.6729
 9361TIP3    H249575   6.664   6.307   2.819  0.4831 -1.9919 -0.8669
 9362TIP3   OH249576   5.450   5.171   4.839 -0.2029 -0.1635  0.4607
 9362TIP3    H149577   5.481   5.262   4.844  1.5632 -0.6865 -0.2909
 9362TIP3    H249578   5.525   5.118   4.866 -1.6014 -1.3912  2.1315
 9363TIP3   OH249579   4.034   3.597  14.331  0.0442  0.0243 -0.4964
 9363TIP3    H149580   4.005   3.599  14.240  0.7319 -2.0291 -0.8056
 9363TIP3    H249581   4.009   3.510  14.362  1.1259  0.1604  0.8378
 9364TIP3   OH249582   1.099   0.416   6.122  0.3937 -0.2008  0.6023
 9364TIP3    H149583   1.030   0.383   6.064  1.6079  0.0043 -1.0430
 9364TIP3    H249584   1.110   0.347   6.188  0.2137 -1.3194 -0.4862
 9365TIP3   OH249585   0.239   3.645   4.660  0.8210  0.2540  0.5982
 9365TIP3    H149586   0.179   3.585   4.615  0.6996  0.6951  0.1619
 9365TIP3    H249587   0.277   3.593   4.730 -0.3729  0.0669  1.1300
 9366TIP3   OH249588   0.065   3.002   6.268  0.1509  0.1239  0.1084
 9366TIP3    H149589   0.010   3.051   6.328 -0.4728  0.6679 -0.8814
 9366TIP3    H249590   0.073   3.058   6.191  0.6583 -0.6959 -0.4549
 9367TIP3   OH249591   3.097   3.249  16.730  0.0194  0.0686  0.4484
 9367TIP3    H149592   3.011   3.254  16.771  0.4707  1.4923  1.2840
 9367TIP3    H249593   3.082   3.269  16.638 -0.7133 -1.0531  0.3084
 9368TIP3   OH249594   3.677   0.226  17.289 -0.0048 -0.0455 -0.0896
 9368TIP3    H149595   3.628   0.277  17.226  0.1069  0.5917  0.3285
 9368TIP3    H249596   3.614   0.162  17.323  0.1554 -0.9393 -1.4334
 9369TIP3   OH249597   5.369   4.564  12.044  0.2519  0.0536  0.0541
 9369TIP3    H149598   5.379   4.631  11.976 -0.9922  1.4253  1.1465
 9369TIP3    H249599   5.331   4.489  11.999 -0.7732  1.0215 -0.7426
 9370TIP3   OH249600   5.947   2.818  15.321 -0.1521 -0.4590 -0.2583
 9370TIP3    H149601   5.979   2.763  15.393  1.7411 -0.5634 -1.1157
 9370TIP3    H249602   5.933   2.904  15.361  2.3331 -0.1035 -0.0017
 9371TIP3   OH249603   2.628   2.188   3.617  0.2611  0.1658 -0.1725
 9371TIP3    H149604   2.541   2.161   3.585  1.2521  0.4207 -3.5329
 9371TIP3    H249605   2.625   2.283   3.616  0.1121  0.1883  1.2801
 9372TIP3   OH249606   2.654   1.609   5.864  0.2327 -0.5212  0.3903
 9372TIP3    H149607   2.696   1.690   5.895 -0.4049  0.1974 -0.5457
 9372TIP3    H249608   2.660   1.549   5.938  1.0566  0.2545  0.9796
 9373TIP3   OH249609   2.446   5.430   2.019 -0.1498  0.4881  0.4203
 9373TIP3    H149610   2.456   5.462   1.930 -3.3276  1.3288  0.2618
 9373TIP3    H249611   2.357   5.394   2.022  0.4921 -1.1311  2.7916
 9374TIP3   OH249612   1.303   5.670  11.726  0.0203 -0.3848 -0.4641
 9374TIP3    H149613   1.297   5.580  11.759  0.6606 -1.9417 -4.1778
 9374TIP3    H249614   1.394   5.681  11.701  0.2733  1.8854  1.1142
 9375TIP3   OH249615   3.908   5.589  16.054  0.0307 -0.2569  0.2853
 9375TIP3    H149616   3.924   5.678  16.022  2.0393 -0.3395  0.9211
 9375TIP3    H249617   3.827   5.562  16.011 -0.6821  1.9056  0.1571
 9376TIP3   OH249618   4.615   6.767   2.337  0.1780  0.2221  0.1406
 9376TIP3    H149619   4.683   6.735   2.397  0.1307  1.2354  0.7573
 9376TIP3    H249620   4.611   6.861   2.354  0.0598  0.5110 -1.3677
 9377TIP3   OH249621   1.544   3.400  16.110  0.3598  0.2980  0.0572
 9377TIP3    H149622   1.580   3.313  16.094  2.2830  1.2173 -0.8990
 9377TIP3    H249623   1.451   3.393  16.086  0.9859 -0.9181 -2.2228
 9378TIP3   OH249624   2.552   1.432  15.635 -0.1331  0.2611 -0.0876
 9378TIP3    H149625   2.593   1.347  15.617  0.0482  0.4345 -0.5233
 9378TIP3    H249626   2.542   1.434  15.730 -0.4888 -0.4076 -0.1062
 9379TIP3   OH249627   1.946   1.173   4.293  0.0440  0.0430  0.2090
 9379TIP3    H149628   1.995   1.092   4.278 -2.9263 -2.1071  1.1063
 9379TIP3    H249629   1.969   1.198   4.383  1.4211  0.5956 -0.2704
 9380TIP3   OH249630   5.701   3.977  16.901  0.2106  0.1930 -0.6088
 9380TIP3    H149631   5.611   3.995  16.873  0.0080 -1.3496 -1.0282
 9380TIP3    H249632   5.756   4.014  16.832 -0.1218  0.6612 -0.6247
 9381TIP3   OH249633   4.811   4.932   1.713 -0.2023  0.6407 -0.3232
 9381TIP3    H149634   4.805   4.841   1.744  0.2097  0.8359  0.3457
 9381TIP3    H249635   4.904   4.952   1.716 -0.2160  0.8648 -1.1500
 9382TIP3   OH249636   0.619   5.693  15.109  0.2090 -0.2719 -0.2241
 9382TIP3    H149637   0.642   5.671  15.199  0.3250 -0.9114 -0.3991
 9382TIP3    H249638   0.545   5.753  15.117  1.3739  1.1369  0.3248
 9383TIP3   OH249639   0.549   2.524   4.347  0.1510 -1.0932  0.2077
 9383TIP3    H149640   0.493   2.513   4.271 -0.2659  0.7841  0.1826
 9383TIP3    H249641   0.496   2.494   4.421 -0.2645 -0.9050 -0.0087
 9384TIP3   OH249642   0.307   3.220  14.854  0.2035 -0.6225  0.8642
 9384TIP3    H149643   0.387   3.217  14.802 -0.3066  0.2705 -0.0299
 9384TIP3    H249644   0.242   3.175  14.799  0.5763 -3.5279  2.6073
 9385TIP3   OH249645   2.777   4.719  13.972  0.2188  0.6012 -0.0736
 9385TIP3    H149646   2.855   4.664  13.975  0.7715  1.3582 -0.1564
 9385TIP3    H249647   2.753   4.732  14.064  0.6519  0.9970 -0.0132
 9386TIP3   OH249648   3.760   5.673  11.415 -0.4167 -0.0691  0.4234
 9386TIP3    H149649   3.684   5.720  11.450 -1.2070 -0.5763 -0.5355
 9386TIP3    H249650   3.761   5.590  11.462 -0.1533  0.1351  0.7838
 9387TIP3   OH249651   6.352   0.813  13.930  0.0617  0.6085 -0.6733
 9387TIP3    H149652   6.393   0.741  13.978  0.7365 -0.8412 -3.2457
 9387TIP3    H249653   6.373   0.891  13.981  2.1099 -0.6340  0.5150
 9388TIP3   OH249654   3.491   5.936   0.793  0.0210  0.3787  0.6106
 9388TIP3    H149655   3.440   5.997   0.740 -0.1263  0.8456  1.2854
 9388TIP3    H249656   3.532   5.878   0.729 -0.1485  0.9399 -0.0175
 9389TIP3   OH249657   2.998   6.244  16.728  0.3736 -0.1697  0.0057
 9389TIP3    H149658   2.960   6.160  16.702  3.3753 -1.4671 -0.6199
 9389TIP3    H249659   2.956   6.264  16.812 -0.8805 -1.9462 -0.1363
 9390TIP3   OH249660   5.167   3.325  12.862  0.0819  0.2497 -0.7147
 9390TIP3    H149661   5.219   3.366  12.793  0.1513  0.6103 -0.4498
 9390TIP3    H249662   5.078   3.323  12.826 -0.0257  1.1302 -0.5177
 9391TIP3   OH249663   1.149   0.207   3.885  1.0905 -0.3299 -0.1730
 9391TIP3    H149664   1.139   0.297   3.855 -0.3301 -0.9439 -1.7147
 9391TIP3    H249665   1.233   0.206   3.932  2.7388  1.0904 -2.8423
 9392TIP3   OH249666   0.220   6.066   3.973  0.4294 -0.0179  0.5069
 9392TIP3    H149667   0.240   6.159   3.965 -2.0050  0.7282  2.1150
 9392TIP3    H249668   0.294   6.022   3.932  2.0377  2.5925  0.4047
 9393TIP3   OH249669   4.115   1.741   2.502 -0.8154  0.9897 -0.1248
 9393TIP3    H149670   4.028   1.703   2.487 -0.3212 -0.0269 -0.5127
 9393TIP3    H249671   4.176   1.675   2.467  0.0642  2.2507 -1.0441
 9394TIP3   OH249672   4.583   2.671   5.186 -0.4140 -0.2194  0.2836
 9394TIP3    H149673   4.630   2.753   5.195  1.6045 -1.2160 -0.5236
 9394TIP3    H249674   4.643   2.614   5.137 -0.9663 -2.7555  2.3253
 9395TIP3   OH249675   1.444   1.594  14.617  0.0609  0.9437 -0.0667
 9395TIP3    H149676   1.510   1.525  14.620 -2.2268 -1.6112 -2.7223
 9395TIP3    H249677   1.444   1.630  14.705  3.2503 -0.5477  0.7129
 9396TIP3   OH249678   5.119   3.855   5.585 -0.9102  0.1620 -0.1651
 9396TIP3    H149679   5.101   3.945   5.613 -1.4763  0.0841 -0.2559
 9396TIP3    H249680   5.111   3.803   5.666 -1.2305  0.1116 -0.2263
 9397TIP3   OH249681   1.318   4.898   4.978  0.0727  0.6773  0.3079
 9397TIP3    H149682   1.259   4.942   4.916  0.5293  2.5851  1.1428
 9397TIP3    H249683   1.382   4.965   5.001  0.5282 -0.2981  2.0328
 9398TIP3   OH249684   4.313   1.494  10.601 -0.0970 -0.3629  0.2897
 9398TIP3    H149685   4.276   1.427  10.544  1.7735  0.7991 -2.4669
 9398TIP3    H249686   4.246   1.563  10.604 -1.3232 -1.5277  1.8040
 9399TIP3   OH249687   6.654   6.511   0.359  0.3407  0.1840  0.3903
 9399TIP3    H149688   6.702   6.588   0.328 -0.0946  0.3244  0.0613
 9399TIP3    H249689   6.717   6.465   0.414  0.9025  0.2898 -0.1550
 9400TIP3   OH249690   0.922   3.634   5.306  0.1925 -0.0723 -0.1507
 9400TIP3    H149691   1.013   3.608   5.318  0.1305 -0.5364 -0.6424
 9400TIP3    H249692   0.882   3.625   5.392  0.8957  1.3073  0.3472
 9401TIP3   OH249693   1.952   3.306  13.361  0.7688  0.0797 -0.3815
 9401TIP3    H149694   1.987   3.313  13.450  1.2427 -0.6653 -0.4956
 9401TIP3    H249695   1.944   3.212  13.347  0.2136  0.2086 -0.9470
 9402TIP3   OH249696   3.794   0.438  12.188 -0.0238  0.0712  0.3897
 9402TIP3    H149697   3.855   0.426  12.261  1.6246 -0.7976 -1.0754
 9402TIP3    H249698   3.830   0.511  12.138  2.5026 -3.0927 -2.9193
 9403TIP3   OH249699   4.303   4.402   5.136 -0.3748  1.1238 -0.0774
 9403TIP3    H149700   4.230   4.365   5.186  0.6979  1.7524  2.0350
 9403TIP3    H249701   4.291   4.496   5.143 -0.1947  1.2272 -1.0401
 9404TIP3   OH249702   3.756   2.601   0.367  0.1091 -0.0082 -0.2713
 9404TIP3    H149703   3.797   2.607   0.453  0.5226  0.2628 -0.4805
 9404TIP3    H249704   3.678   2.548   0.380  0.4438 -0.3939  0.1688
 9405TIP3   OH249705   4.708   5.883  13.789 -0.4982  1.0420 -0.3020
 9405TIP3    H149706   4.746   5.913  13.871  0.8073 -0.4132 -0.3287
 9405TIP3    H249707   4.707   5.788  13.796 -0.9936  0.9137 -1.7019
 9406TIP3   OH249708   0.617   6.785  15.875 -0.7207 -0.1015 -0.0121
 9406TIP3    H149709   0.646   6.694  15.884 -2.5925 -0.7484 -0.2222
 9406TIP3    H249710   0.641   6.825  15.958  1.2603 -0.4207 -0.3803
 9407TIP3   OH249711   1.144   3.749  15.348  0.1154  0.6306 -0.5133
 9407TIP3    H149712   1.114   3.665  15.313  0.3859  0.4613 -0.3460
 9407TIP3    H249713   1.232   3.731  15.380 -0.1005  0.7981  0.1969
 9408TIP3   OH249714   4.108   3.024   1.524 -0.0385 -0.3257 -0.3867
 9408TIP3    H149715   4.115   2.982   1.438 -1.2491 -2.2709  0.3978
 9408TIP3    H249716   4.058   3.104   1.506  0.0182 -0.5280 -1.5553
 9409TIP3   OH249717   0.348   3.675  15.484 -0.0008 -0.2415  0.4388
 9409TIP3    H149718   0.308   3.589  15.499 -2.8556  0.0452 -3.7898
 9409TIP3    H249719   0.433   3.655  15.444 -0.9854 -1.2336 -1.2972
 9410TIP3   OH249720   1.211   4.193  13.290 -0.0991 -0.2246  0.8540
 9410TIP3    H149721   1.206   4.098  13.299  1.8809 -0.4829 -0.0825
 9410TIP3    H249722   1.128   4.218  13.249  0.7985 -2.1291 -2.5641
 9411TIP3   OH249723   0.600   3.510   4.927 -0.0677  0.1895 -0.2770
 9411TIP3    H149724   0.644   3.508   5.012 -0.5415  1.3056  0.0087
 9411TIP3    H249725   0.635   3.434   4.880  1.4324  0.5122  0.2812
 9412TIP3   OH249726   1.604   4.434  11.859  0.0582  0.2243  0.0018
 9412TIP3    H149727   1.698   4.436  11.839  0.1649 -1.7307  0.1275
 9412TIP3    H249728   1.586   4.521  11.895  1.8431  0.6157  0.0690
 9413TIP3   OH249729   5.600   1.942  13.466  0.4434  0.2048 -0.1353
 9413TIP3    H149730   5.539   1.993  13.520  0.9689  0.4501  0.2301
 9413TIP3    H249731   5.547   1.913  13.391 -0.4730 -0.7388  0.8508
 9414TIP3   OH249732   3.914   2.572   2.687  0.4440 -0.5050  0.4554
 9414TIP3    H149733   3.842   2.634   2.693  2.0861  1.8139 -1.6913
 9414TIP3    H249734   3.884   2.505   2.625  0.3374  0.8730 -1.0543
 9415TIP3   OH249735   2.570   3.941  11.363  0.2357 -0.2474 -0.7448
 9415TIP3    H149736   2.499   3.955  11.300  0.1732  1.0515 -0.4112
 9415TIP3    H249737   2.577   4.024  11.410  1.4544 -0.6146 -0.2376
 9416TIP3   OH249738   0.799   6.798  16.104  0.5586  0.0604 -0.4366
 9416TIP3    H149739   0.831   6.729  16.161  0.0579 -0.4910 -0.8219
 9416TIP3    H249740   0.817   6.879  16.152 -0.5867 -0.4291  0.8785
 9417TIP3   OH249741   1.561   1.176   1.279 -0.0753  0.2619  0.3102
 9417TIP3    H149742   1.534   1.107   1.218  0.3552  0.7234 -0.4131
 9417TIP3    H249743   1.623   1.229   1.229  0.0178  0.8535  1.0425
 9418TIP3   OH249744   2.956   6.444   5.385 -0.0941  0.1166 -0.5619
 9418TIP3    H149745   2.909   6.375   5.337  0.0567 -1.9328  2.0150
 9418TIP3    H249746   3.048   6.430   5.364  0.0414 -1.2473  0.7681
 9419TIP3   OH249747   0.050   5.199   5.203 -0.4763 -0.6562 -0.2752
 9419TIP3    H149748   0.113   5.271   5.196  2.7005 -2.7616  3.0481
 9419TIP3    H249749   0.052   5.157   5.117  1.2975  0.4510 -0.8455
 9420TIP3   OH249750   6.185   3.542  14.174  0.0345  1.0914 -0.1344
 9420TIP3    H149751   6.220   3.458  14.145 -1.1648  0.7130 -0.5650
 9420TIP3    H249752   6.257   3.584  14.219 -0.3546 -1.8252  3.7549
 9421TIP3   OH249753   0.665   5.176   5.015 -0.7415 -0.1116 -0.1838
 9421TIP3    H149754   0.733   5.201   4.952  0.6975  2.1442  2.0751
 9421TIP3    H249755   0.584   5.175   4.964  0.5457 -0.0610 -2.3846
 9422TIP3   OH249756   0.487   5.095   0.090  0.5334  0.6054  0.4195
 9422TIP3    H149757   0.503   5.004   0.114 -0.0683  0.2989 -0.3033
 9422TIP3    H249758   0.460   5.137   0.172  0.4973  0.0565  0.6923
 9423TIP3   OH249759   5.426   3.568   2.744  0.1926  0.4088  0.5364
 9423TIP3    H149760   5.385   3.655   2.736  1.4820  1.0193  0.2654
 9423TIP3    H249761   5.371   3.522   2.807 -0.3076  1.5656  0.9848
 9424TIP3   OH249762   3.816   5.037   5.827 -0.0353 -0.0965 -0.0224
 9424TIP3    H149763   3.877   5.017   5.757  1.8186 -1.2459  1.8073
 9424TIP3    H249764   3.845   5.121   5.862 -0.5293  0.1457 -0.1819
 9425TIP3   OH249765   0.592   3.382  15.830 -0.0003 -0.1799 -0.4547
 9425TIP3    H149766   0.682   3.416  15.835 -0.3573  0.6318  1.6011
 9425TIP3    H249767   0.601   3.289  15.850  0.3157  0.0781  0.6929
 9426TIP3   OH249768   3.066   4.712   4.091  0.1601  0.0365 -0.2894
 9426TIP3    H149769   3.033   4.636   4.139 -1.3732 -1.9111 -3.9770
 9426TIP3    H249770   3.018   4.787   4.126 -0.9260 -1.2598  1.1080
 9427TIP3   OH249771   2.038   3.023   6.009 -0.5819 -0.0224 -0.3218
 9427TIP3    H149772   2.051   3.072   6.090 -0.0307  1.4219 -1.2545
 9427TIP3    H249773   2.118   2.971   5.999 -1.2510 -1.3361  0.7710
 9428TIP3   OH249774   5.112   2.950  13.654 -0.8900 -0.1074  0.6647
 9428TIP3    H149775   5.175   3.015  13.623 -0.5673 -1.1184 -0.9449
 9428TIP3    H249776   5.031   3.000  13.669  0.1725  1.1644  2.5328
 9429TIP3   OH249777   2.413   0.679  11.362 -0.2408 -0.5012 -1.0922
 9429TIP3    H149778   2.463   0.627  11.298 -0.0195 -1.3445 -0.2707
 9429TIP3    H249779   2.474   0.692  11.435  0.2120  2.2100 -1.8456
 9430TIP3   OH249780   1.715   3.655  12.667 -0.0982 -0.2292  0.3096
 9430TIP3    H149781   1.685   3.693  12.585  0.0095  0.6025  0.6416
 9430TIP3    H249782   1.677   3.711  12.735 -0.3521 -1.0243  0.8412
 9431TIP3   OH249783   2.747   3.524  14.279  0.2080 -0.0731  0.5943
 9431TIP3    H149784   2.807   3.514  14.352 -0.9397 -1.3342  1.4077
 9431TIP3    H249785   2.794   3.580  14.216  2.0083 -0.6405  1.3842
 9432TIP3   OH249786   4.848   5.930   5.242  0.4499  0.2144 -0.5666
 9432TIP3    H149787   4.814   5.943   5.154  1.9186 -1.5017 -1.4785
 9432TIP3    H249788   4.920   5.992   5.250  0.4375  0.2398 -0.6576
 9433TIP3   OH249789   3.978   1.946   5.029  0.2323  0.2169  0.8538
 9433TIP3    H149790   3.910   1.961   5.094  0.2546 -0.7467  1.1175
 9433TIP3    H249791   3.966   1.855   5.002  1.2029  0.1330  0.6636
 9434TIP3   OH249792   5.897   5.168  11.727  0.2608 -0.1055 -0.4045
 9434TIP3    H149793   5.923   5.242  11.782 -0.8344  0.4954 -0.6737
 9434TIP3    H249794   5.974   5.151  11.673  0.8005  0.3120  0.2086
 9435TIP3   OH249795   1.517   1.939   5.388 -0.5017 -0.3224 -0.0939
 9435TIP3    H149796   1.581   1.951   5.318 -0.4063 -1.2232 -0.1837
 9435TIP3    H249797   1.512   1.844   5.399  0.1584 -0.1715  1.7635
 9436TIP3   OH249798   3.290   3.465  12.811  0.3727  0.1772 -0.8827
 9436TIP3    H149799   3.239   3.400  12.858 -0.3233  0.3380 -1.3955
 9436TIP3    H249800   3.240   3.482  12.731  0.4509  1.4561 -0.6929
 9437TIP3   OH249801   1.407   1.731   3.078 -0.7901  0.1846 -0.4333
 9437TIP3    H149802   1.396   1.802   3.015 -1.8609  1.0774  0.6837
 9437TIP3    H249803   1.369   1.766   3.159 -1.0115 -1.5400  0.2463
 9438TIP3   OH249804   0.185   3.666   5.527  0.0586  0.4229  0.3198
 9438TIP3    H149805   0.145   3.584   5.554 -1.4329  0.7569 -0.7703
 9438TIP3    H249806   0.205   3.654   5.434  1.9643  0.5036  0.6689
 9439TIP3   OH249807   2.663   0.735   1.890 -0.2512  0.2231 -0.0486
 9439TIP3    H149808   2.583   0.768   1.931 -0.8577  0.1199 -1.1075
 9439TIP3    H249809   2.690   0.804   1.830  0.8796  0.5616  0.8156
 9440TIP3   OH249810   0.991   3.795  16.907 -0.3888  0.7945  0.2943
 9440TIP3    H149811   0.897   3.788  16.892 -0.2612 -0.5888  0.0035
 9440TIP3    H249812   1.009   3.737  16.980  0.7859 -2.3859 -2.2540
 9441TIP3   OH249813   3.777   4.976   0.840 -0.0100 -0.3880  0.1381
 9441TIP3    H149814   3.768   5.039   0.912  0.3034 -2.5492  2.1738
 9441TIP3    H249815   3.872   4.969   0.827  0.1111 -2.0206  1.5004
 9442TIP3   OH249816   6.542   4.250  12.209 -0.2101 -0.5314  0.1865
 9442TIP3    H149817   6.589   4.304  12.272 -1.6756 -1.3620  2.1001
 9442TIP3    H249818   6.610   4.214  12.152  1.2425 -0.1354  1.6087
 9443TIP3   OH249819   0.832   3.763  14.316 -0.1509  0.0486  0.4258
 9443TIP3    H149820   0.781   3.807  14.248 -0.3665  0.1131  0.6297
 9443TIP3    H249821   0.922   3.790  14.299 -0.3065  0.7503  0.6788
 9444TIP3   OH249822   6.246   1.117   3.431  0.3214  0.3438  0.5611
 9444TIP3    H149823   6.305   1.168   3.376 -0.1831 -0.0289 -0.3334
 9444TIP3    H249824   6.301   1.049   3.470  0.5659  0.2532  0.0617
 9445TIP3   OH249825   1.769   3.722  16.539  0.2117 -0.1387 -0.0556
 9445TIP3    H149826   1.698   3.677  16.494  0.0639 -0.4751  0.5011
 9445TIP3    H249827   1.840   3.725  16.475  0.8872 -2.7895  0.4706
 9446TIP3   OH249828   5.941   0.507  15.832  0.0052 -0.4711 -0.6208
 9446TIP3    H149829   5.917   0.442  15.765 -1.9220 -0.4663  0.0156
 9446TIP3    H249830   5.873   0.573  15.827 -0.0470 -0.3457  1.1897
 9447TIP3   OH249831   3.408   6.156  15.354 -0.3857 -0.5143  0.4195
 9447TIP3    H149832   3.438   6.085  15.297  1.2257  2.9122 -3.5890
 9447TIP3    H249833   3.322   6.179  15.320  0.6575  1.6775 -1.0398
 9448TIP3   OH249834   3.440   2.639   1.930  0.2102 -0.4098 -0.3173
 9448TIP3    H149835   3.413   2.690   1.854 -1.1115 -1.0401 -0.3017
 9448TIP3    H249836   3.374   2.570   1.936  0.6917 -0.7681  0.9959
 9449TIP3   OH249837   2.361   3.973   4.231  0.2408  0.3989 -0.3979
 9449TIP3    H149838   2.378   4.055   4.185 -0.7826  0.9494  0.1605
 9449TIP3    H249839   2.298   3.928   4.175  0.4605  0.1946 -0.4811
 9450TIP3   OH249840   0.763   1.111   3.431 -0.2888  0.1054  0.0966
 9450TIP3    H149841   0.807   1.027   3.419  0.6861  0.4387  1.1545
 9450TIP3    H249842   0.682   1.103   3.380 -0.3400 -1.5571  0.3721
 9451TIP3   OH249843   1.535   3.265   1.703 -0.4187 -0.2412 -0.0785
 9451TIP3    H149844   1.530   3.171   1.722 -1.8878 -0.7534 -2.5406
 9451TIP3    H249845   1.444   3.291   1.688  0.2049  0.8537 -2.3561
 9452TIP3   OH249846   4.032   1.501   4.791 -0.1857 -0.4367 -0.1675
 9452TIP3    H149847   3.970   1.533   4.725  1.1200  1.1760 -0.6960
 9452TIP3    H249848   4.080   1.431   4.748 -0.7504 -0.8216 -0.1869
 9453TIP3   OH249849   6.734   5.101  10.683 -0.3866 -0.8093 -0.1850
 9453TIP3    H149850   6.775   5.073  10.601  0.5712  1.3956 -0.5411
 9453TIP3    H249851   6.643   5.119  10.659 -0.4313 -1.4054 -0.4659
 9454TIP3   OH249852   4.897   3.544   3.789  0.0289  0.5859 -0.7560
 9454TIP3    H149853   4.898   3.498   3.873  3.2313  0.7493 -0.5679
 9454TIP3    H249854   4.833   3.496   3.736 -1.6094  0.0937  1.5248
 9455TIP3   OH249855   3.905   2.878  15.518 -0.2589  0.2770 -0.5345
 9455TIP3    H149856   3.900   2.944  15.587  0.0747  0.1221 -0.3618
 9455TIP3    H249857   3.882   2.796  15.562 -0.3188  0.2207 -0.6707
 9456TIP3   OH249858   2.990   2.547   1.097 -0.2276  0.0111  0.0650
 9456TIP3    H149859   2.943   2.629   1.084 -1.1862 -0.3485  1.1770
 9456TIP3    H249860   2.986   2.503   1.012 -0.2902  0.8023 -0.3472
 9457TIP3   OH249861   2.135   3.380   6.332  0.8113 -0.1800 -0.1064
 9457TIP3    H149862   2.187   3.381   6.252 -1.7546  0.4876 -1.9037
 9457TIP3    H249863   2.106   3.471   6.342 -1.5202 -0.8374 -0.3237
 9458TIP3   OH249864   3.060   4.106   3.494 -0.3316 -0.3723 -0.0263
 9458TIP3    H149865   3.044   4.148   3.579 -0.1013  1.7301 -0.9542
 9458TIP3    H249866   3.154   4.088   3.494 -0.4878 -1.2174  0.5123
 9459TIP3   OH249867   6.539   6.467   2.571 -0.4925 -0.1541 -0.6199
 9459TIP3    H149868   6.628   6.449   2.602 -0.4975  0.3194 -0.3259
 9459TIP3    H249869   6.552   6.520   2.493 -0.5312  0.9279  0.0860
 9460TIP3   OH249870   0.161   1.385   0.251  0.5922  0.5399 -0.0727
 9460TIP3    H149871   0.080   1.432   0.231  0.1001  0.3102  1.3028
 9460TIP3    H249872   0.180   1.406   0.343  1.0037 -0.9905  0.2215
 9461TIP3   OH249873   4.282   5.816  12.436  0.2051 -0.1416 -0.8885
 9461TIP3    H149874   4.342   5.888  12.457  0.2782 -0.3876 -0.2542
 9461TIP3    H249875   4.244   5.842  12.352 -0.4818  1.1078 -0.2313
 9462TIP3   OH249876   4.644   2.306  16.105  0.2720 -0.0074  0.8847
 9462TIP3    H149877   4.694   2.366  16.160 -1.0068  0.7973  1.1965
 9462TIP3    H249878   4.682   2.220  16.123  1.8249  0.6224  0.7769
 9463TIP3   OH249879   4.526   3.370   1.909 -0.0346 -0.1644 -0.2197
 9463TIP3    H149880   4.537   3.385   2.003 -1.1114 -2.6615  0.3908
 9463TIP3    H249881   4.588   3.430   1.868  0.3790  1.0994  2.0561
 9464TIP3   OH249882   2.200   2.657   4.726  0.0661  0.1835  0.3943
 9464TIP3    H149883   2.137   2.584   4.727  0.9282 -0.5745  0.6854
 9464TIP3    H249884   2.249   2.644   4.645 -0.5302  1.1191 -0.1324
 9465TIP3   OH249885   6.813   6.179  14.196 -0.0977  0.7776 -0.1745
 9465TIP3    H149886   6.870   6.253  14.177 -2.2937  2.5716 -0.2698
 9465TIP3    H249887   6.798   6.183  14.290 -0.5094  0.6926 -0.2334
 9466TIP3   OH249888   1.500   6.388   1.171  0.2501  0.2679 -0.3520
 9466TIP3    H149889   1.442   6.323   1.211  0.1080  0.5389 -0.1193
 9466TIP3    H249890   1.446   6.430   1.103 -0.3757  1.6684  0.9473
 9467TIP3   OH249891   1.143   2.468  12.354  0.6446  0.5255 -0.0579
 9467TIP3    H149892   1.234   2.497  12.349  0.7228  0.4406  0.7350
 9467TIP3    H249893   1.092   2.542  12.320  0.9795  0.7563 -0.0587
 9468TIP3   OH249894   0.802   6.546  15.528 -0.6045  0.7243  0.1507
 9468TIP3    H149895   0.784   6.634  15.561 -1.4120  1.0198 -1.0116
 9468TIP3    H249896   0.897   6.537  15.533 -0.5568  1.4327  0.8125
 9469TIP3   OH249897   1.892   6.109   3.121 -0.1190 -0.5444 -0.4597
 9469TIP3    H149898   1.987   6.096   3.116  0.0714 -3.2363  4.3629
 9469TIP3    H249899   1.881   6.204   3.117  2.9638 -0.0298  0.2782
 9470TIP3   OH249900   5.251   0.058  16.859 -0.6657 -0.3437 -0.2277
 9470TIP3    H149901   5.314  -0.013  16.874 -1.0389 -0.4628  0.8120
 9470TIP3    H249902   5.166   0.015  16.855 -0.8809  0.0314  0.2777
 9471TIP3   OH249903   4.740   1.363   3.174  0.2505  0.0256  0.2944
 9471TIP3    H149904   4.723   1.270   3.162 -1.4198  0.5512 -2.1723
 9471TIP3    H249905   4.803   1.384   3.105 -1.7153  1.2383 -1.2420
 9472TIP3   OH249906   4.380   0.398  17.181  0.0133  0.3309  0.0113
 9472TIP3    H149907   4.322   0.451  17.236 -1.9303 -1.4816 -0.1808
 9472TIP3    H249908   4.363   0.429  17.092 -0.8629 -0.2985 -0.0633
 9473TIP3   OH249909   2.418   4.423   2.230 -0.3325  0.4842 -0.2729
 9473TIP3    H149910   2.468   4.502   2.251  0.2007  0.0953 -0.0538
 9473TIP3    H249911   2.360   4.449   2.159  0.7290  0.7419 -1.0664
 9474TIP3   OH249912   2.509   2.904  11.857  0.4292  0.0827 -0.2988
 9474TIP3    H149913   2.582   2.885  11.916  0.1679 -0.5922 -0.1809
 9474TIP3    H249914   2.457   2.969  11.904 -0.6315 -1.5919  0.9476
 9475TIP3   OH249915   5.569   0.200   5.122 -0.2279 -0.1491 -0.0173
 9475TIP3    H149916   5.513   0.175   5.049  0.3885 -2.9874  0.3576
 9475TIP3    H249917   5.511   0.247   5.182 -1.0072  1.2207 -1.7686
 9476TIP3   OH249918   2.935   2.469  13.526 -0.8725  0.6470 -0.2555
 9476TIP3    H149919   2.890   2.533  13.581  2.1185  2.3936  0.3543
 9476TIP3    H249920   2.926   2.386  13.573  1.8864  2.1131  3.3543
 9477TIP3   OH249921   5.267   4.511  14.453  0.4976  0.4573 -0.4133
 9477TIP3    H149922   5.181   4.552  14.470  0.3150 -0.2828  0.5492
 9477TIP3    H249923   5.326   4.585  14.443  0.2888  1.0277  1.9455
 9478TIP3   OH249924   5.013   3.701   4.377  0.6252  0.4947 -0.0579
 9478TIP3    H149925   5.051   3.787   4.360  0.8098  0.1048 -1.7342
 9478TIP3    H249926   4.963   3.713   4.458  2.1389  1.6893  0.7563
 9479TIP3   OH249927   4.965   0.551  13.262  0.0958 -0.1791  0.4174
 9479TIP3    H149928   4.966   0.462  13.226 -1.4223 -1.1313  2.5084
 9479TIP3    H249929   5.023   0.547  13.337  0.8908  0.9514 -0.1076
 9480TIP3   OH249930   1.003   3.612   6.827 -0.5386  0.3098  0.1752
 9480TIP3    H149931   1.064   3.628   6.755  1.0028 -3.0508  0.5260
 9480TIP3    H249932   1.002   3.694   6.876  1.9322  1.2482 -1.1603
 9481TIP3   OH249933   4.826   5.129  13.792  0.2490  0.4240  0.0129
 9481TIP3    H149934   4.913   5.167  13.805  0.6525 -1.0360  1.9966
 9481TIP3    H249935   4.812   5.074  13.869 -1.5571 -1.0500 -1.2848
 9482TIP3   OH249936   2.876   4.933   4.231 -0.1762  0.3183 -0.6911
 9482TIP3    H149937   2.828   5.003   4.187 -2.0527 -0.5876 -0.1439
 9482TIP3    H249938   2.823   4.855   4.218  1.0934 -0.7076  0.0679
 9483TIP3   OH249939   3.407   6.149   6.131 -0.1631  0.2736 -0.1546
 9483TIP3    H149940   3.500   6.128   6.132 -0.0488  0.7091  1.3204
 9483TIP3    H249941   3.365   6.076   6.176 -0.5178  0.1947 -0.6029
 9484TIP3   OH249942   0.954   3.754   5.840  0.3984 -0.1202 -0.2445
 9484TIP3    H149943   0.956   3.676   5.895 -0.2768  1.3448  1.9929
 9484TIP3    H249944   0.890   3.811   5.881  1.8087  2.1523 -1.0135
 9485TIP3   OH249945   3.140   0.532  11.990 -0.6261 -0.0531 -0.4166
 9485TIP3    H149946   3.074   0.540  12.059  0.0195  2.4069  0.0110
 9485TIP3    H249947   3.095   0.559  11.910  0.1425  3.4804  0.1543
 9486TIP3   OH249948   4.315   3.114   1.674  0.2243 -0.3341 -0.3893
 9486TIP3    H149949   4.359   3.192   1.642  0.0141 -0.9064 -2.1642
 9486TIP3    H249950   4.247   3.095   1.609 -1.8839 -0.1923  1.6269
 9487TIP3   OH249951   4.918   1.203   0.659 -0.1530 -0.0665 -0.7000
 9487TIP3    H149952   4.887   1.217   0.749  2.2381  0.0334  0.1707
 9487TIP3    H249953   4.856   1.140   0.622 -0.6229 -0.9095  1.3620
 9488TIP3   OH249954   6.615   5.072   6.160  0.2012  0.5432 -0.0633
 9488TIP3    H149955   6.664   5.088   6.079  0.1932  0.3418 -0.1083
 9488TIP3    H249956   6.674   5.101   6.230  0.5183  0.0015 -0.1007
 9489TIP3   OH249957   3.138   4.221   2.325  0.0511 -0.0220 -0.5151
 9489TIP3    H149958   3.172   4.254   2.409  1.1391  1.1526 -1.3803
 9489TIP3    H249959   3.196   4.148   2.304  0.7170  0.6063 -0.9281
 9490TIP3   OH249960   6.619   5.598  15.796 -0.1177 -0.2915  0.5627
 9490TIP3    H149961   6.599   5.517  15.749 -0.5003 -0.2647  0.6714
 9490TIP3    H249962   6.712   5.613  15.780 -0.3384 -0.0163 -0.5947
 9491TIP3   OH249963   4.984   5.729  16.252  0.2813  0.5679  0.1645
 9491TIP3    H149964   5.020   5.727  16.163  0.5963 -0.0491  0.3003
 9491TIP3    H249965   4.890   5.741  16.240 -0.2078 -2.8285 -0.4203
 9492TIP3   OH249966   2.728   3.831   6.566 -0.0254 -0.0676  0.1365
 9492TIP3    H149967   2.635   3.847   6.551 -0.2946 -0.8791  0.8774
 9492TIP3    H249968   2.740   3.738   6.547  0.3988 -0.2196  1.1128
 9493TIP3   OH249969   1.836   3.702  15.956  0.2152  0.2842  0.1509
 9493TIP3    H149970   1.912   3.754  15.929  1.3370 -1.4778 -0.2285
 9493TIP3    H249971   1.779   3.704  15.879 -0.6912  2.4938  0.7974
 9494TIP3   OH249972   5.530   1.682   4.997 -0.1337  0.0201 -0.2995
 9494TIP3    H149973   5.454   1.723   4.957 -0.1797  0.6321  0.3925
 9494TIP3    H249974   5.521   1.701   5.091 -0.4709 -2.0524  0.1412
 9495TIP3   OH249975   1.490   4.449   4.544  0.1426 -0.3791  0.4802
 9495TIP3    H149976   1.585   4.442   4.540  0.3271  1.8261 -0.3292
 9495TIP3    H249977   1.470   4.446   4.638  1.3829  2.1919  0.9324
 9496TIP3   OH249978   2.018   2.727   2.305 -0.0253  0.4202  0.1357
 9496TIP3    H149979   2.107   2.715   2.337 -0.1765 -0.6612  0.2179
 9496TIP3    H249980   2.016   2.815   2.269  1.1226  0.4025  0.0047
 9497TIP3   OH249981   6.282   5.889  11.276  0.1977  0.3135  0.2403
 9497TIP3    H149982   6.257   5.981  11.284 -1.4487 -0.0297 -0.4644
 9497TIP3    H249983   6.362   5.890  11.224 -0.1676  1.3163 -0.3357
 9498TIP3   OH249984   0.691   5.200   1.328 -0.3278 -0.0006  0.1736
 9498TIP3    H149985   0.765   5.139   1.326  0.8408  1.3084  1.1693
 9498TIP3    H249986   0.716   5.270   1.267 -1.6023 -0.4230 -0.8799
 9499TIP3   OH249987   0.530   1.252  14.227  0.1898 -0.3709 -0.3432
 9499TIP3    H149988   0.517   1.219  14.316  0.5776  0.9692  0.2327
 9499TIP3    H249989   0.611   1.302  14.231 -0.9644  1.6673 -0.8460
 9500TIP3   OH249990   6.510   5.163   4.313 -0.5873 -0.0411  0.1426
 9500TIP3    H149991   6.498   5.208   4.397 -0.8397 -0.7914  0.5134
 9500TIP3    H249992   6.460   5.082   4.321  1.5575 -1.4396  0.2811
 9501TIP3   OH249993   1.667   6.073   1.846  0.8693 -0.2872 -0.0732
 9501TIP3    H149994   1.650   6.109   1.933  0.8029 -3.6009  1.4430
 9501TIP3    H249995   1.747   6.117   1.816 -0.2194  2.3955  0.6688
 9502TIP3   OH249996   5.520   5.518  14.380 -0.4270  0.4474 -0.2828
 9502TIP3    H149997   5.459   5.465  14.431 -1.3795  0.9654 -0.8578
 9502TIP3    H249998   5.500   5.608  14.404  0.9511  0.5760  0.4304
 9503TIP3   OH249999   1.429   2.759   6.856 -0.2622  0.4076  0.0449
 9503TIP3    H150000   1.362   2.694   6.836  0.0063  0.6173 -1.7557
 9503TIP3    H250001   1.388   2.843   6.834  0.6516  0.5113 -1.4251
 9504TIP3   OH250002   0.347   4.884   4.291 -0.0118 -0.2475  0.0532
 9504TIP3    H150003   0.289   4.874   4.215 -0.7177 -1.3965  0.7259
 9504TIP3    H250004   0.369   4.795   4.316 -0.3208  0.0945  1.6143
 9505TIP3   OH250005   5.908   2.109   3.182 -0.2045 -0.2109  0.5282
 9505TIP3    H150006   5.863   2.059   3.251  1.8852 -0.6152  1.6702
 9505TIP3    H250007   5.908   2.051   3.106 -1.8442 -0.0688  0.3784
 9506TIP3   OH250008   5.812   5.013  17.238 -0.1153 -0.1501  0.1418
 9506TIP3    H150009   5.775   4.965  17.312 -0.4980 -1.5608 -0.9290
 9506TIP3    H250010   5.819   4.949  17.168  2.2654  0.6393 -0.4206
 9507TIP3   OH250011   1.558   6.783   1.872  0.0194 -0.3940 -0.3974
 9507TIP3    H150012   1.635   6.731   1.848  0.4539  0.5533 -1.1584
 9507TIP3    H250013   1.485   6.721   1.867  0.5496 -0.9988 -1.0278
 9508TIP3   OH250014   1.424   0.889   2.075  0.0039  0.0690 -0.2755
 9508TIP3    H150015   1.483   0.929   2.011  0.8944  0.7235  0.9071
 9508TIP3    H250016   1.463   0.910   2.160 -1.0081 -0.9783  0.4864
 9509TIP3   OH250017   4.817   6.215   0.839  0.4511 -0.1196  0.1308
 9509TIP3    H150018   4.792   6.232   0.930 -0.6795 -1.0063  0.0106
 9509TIP3    H250019   4.910   6.191   0.844  0.1197 -1.2832  1.2132
 9510TIP3   OH250020   1.881   4.458  12.286  0.0150  0.1650  0.0306
 9510TIP3    H150021   1.921   4.379  12.248 -1.0569  0.3377 -1.5586
 9510TIP3    H250022   1.920   4.531  12.238 -0.8524  0.4359 -0.2836
 9511TIP3   OH250023   6.583   1.979   4.523  0.4748  0.0397 -0.2127
 9511TIP3    H150024   6.598   1.888   4.498 -1.3394 -0.3796  0.0495
 9511TIP3    H250025   6.560   2.023   4.441  0.2987 -0.0043 -0.1892
 9512TIP3   OH250026   5.165   2.001  11.662 -0.2408  0.2063 -0.6342
 9512TIP3    H150027   5.183   2.076  11.604 -1.8458  1.7786  0.7824
 9512TIP3    H250028   5.090   1.957  11.622  0.0811 -0.0725 -0.9390
 9513TIP3   OH250029   6.486   5.587   4.546 -0.2261  0.5538  0.2610
 9513TIP3    H150030   6.579   5.591   4.569 -0.5280  3.4109  1.3918
 9513TIP3    H250031   6.445   5.655   4.600 -2.9985 -0.6319 -0.1923
 9514TIP3   OH250032   4.169   2.155  11.770 -0.0275  0.3869  0.1989
 9514TIP3    H150033   4.173   2.209  11.691 -2.3595 -1.4080 -1.2884
 9514TIP3    H250034   4.233   2.086  11.754 -0.8599 -0.2679 -0.4304
 9515TIP3   OH250035   5.225   5.290   5.576 -0.0566  0.1850 -0.5475
 9515TIP3    H150036   5.257   5.234   5.647 -1.5205 -0.0201 -0.0275
 9515TIP3    H250037   5.130   5.289   5.585 -0.1336  2.9792 -0.3658
 9516TIP3   OH250038   2.260   0.500  11.131 -0.3162 -0.0147  0.0807
 9516TIP3    H150039   2.239   0.453  11.212 -1.7621 -0.6285 -0.6109
 9516TIP3    H250040   2.176   0.533  11.100  0.2266  0.3037 -1.1066
 9517TIP3   OH250041   3.510   6.252   1.296 -0.3607 -0.2229 -0.0342
 9517TIP3    H150042   3.421   6.238   1.326  0.1403 -0.1313  1.6003
 9517TIP3    H250043   3.557   6.285   1.373  1.0316 -0.0606 -0.9044
 9518TIP3   OH250044   0.295   5.539  12.580 -0.3533 -0.5007  0.0562
 9518TIP3    H150045   0.277   5.613  12.637 -0.1197 -0.4320  0.0426
 9518TIP3    H250046   0.230   5.474  12.604 -1.5602  0.2813 -0.9955
 9519TIP3   OH250047   4.823   3.615   2.645  0.7062 -0.4680  0.6907
 9519TIP3    H150048   4.812   3.558   2.721  0.9108 -2.7695 -0.9187
 9519TIP3    H250049   4.918   3.620   2.632  0.6361 -1.0654 -0.0967
 9520TIP3   OH250050   2.645   5.189   3.926  0.1555 -0.3037 -0.5621
 9520TIP3    H150051   2.552   5.166   3.930  0.1898 -0.6341 -1.4485
 9520TIP3    H250052   2.688   5.109   3.895  0.9810 -0.7454  1.5341
 9521TIP3   OH250053   6.242   6.126  13.105  0.0065 -0.2725 -0.5798
 9521TIP3    H150054   6.149   6.144  13.093 -0.3270 -1.7978 -0.5751
 9521TIP3    H250055   6.287   6.204  13.073 -1.2591  0.2516 -1.1161
 9522TIP3   OH250056   2.101   5.358   2.359 -0.7369 -0.3672 -0.1940
 9522TIP3    H150057   2.049   5.290   2.403  0.3787 -0.3517  1.2432
 9522TIP3    H250058   2.044   5.435   2.359 -1.3657 -0.8245 -0.2517
 9523TIP3   OH250059   3.695   3.075   3.042 -0.6411  0.1233 -0.1536
 9523TIP3    H150060   3.686   3.162   3.082 -2.4835  0.2850 -0.8418
 9523TIP3    H250061   3.710   3.092   2.950  0.7920 -0.2942 -0.0213
 9524TIP3   OH250062   2.504   3.743   5.854  0.3490 -0.2445  0.3616
 9524TIP3    H150063   2.495   3.720   5.947 -0.6155 -0.9980  0.0949
 9524TIP3    H250064   2.498   3.660   5.808  1.0780  0.0973 -0.3775
 9525TIP3   OH250065   2.454   6.308   1.982 -0.1159  0.7330 -0.1704
 9525TIP3    H150066   2.377   6.274   1.936  0.5942 -1.9190  0.4666
 9525TIP3    H250067   2.509   6.345   1.913 -0.8411  0.3946 -0.9426
 9526TIP3   OH250068   6.435   0.028  11.489 -0.3273  0.0957 -0.1389
 9526TIP3    H150069   6.529   0.046  11.482 -0.4568  1.5462  1.2496
 9526TIP3    H250070   6.428  -0.038  11.558 -0.3229 -0.0960 -0.3207
 9527TIP3   OH250071   3.098   5.029   1.617  0.2344 -0.2876  0.0058
 9527TIP3    H150072   3.066   5.046   1.528  1.4413  0.3458 -0.3186
 9527TIP3    H250073   3.187   5.063   1.618  0.7803 -1.6337  1.0124
 9528TIP3   OH250074   0.478   6.148  17.000 -0.3382 -0.1408 -0.1469
 9528TIP3    H150075   0.567   6.182  17.007 -0.1305 -0.6671 -0.1929
 9528TIP3    H250076   0.446   6.146  17.090 -1.0708  2.0217 -0.2981
 9529TIP3   OH250077   6.555   4.796   2.692 -0.1172 -0.4374  0.2972
 9529TIP3    H150078   6.633   4.827   2.646 -0.7859  0.0130 -0.5664
 9529TIP3    H250079   6.555   4.845   2.775  0.4306 -0.3368  0.2423
 9530TIP3   OH250080   1.442   2.596  11.754  0.5055  0.5271 -0.1455
 9530TIP3    H150081   1.397   2.672  11.717  1.1305  0.8310 -0.2890
 9530TIP3    H250082   1.529   2.598  11.715  0.3051 -0.6641 -0.7002
 9531TIP3   OH250083   3.811   2.183   3.276 -0.3747 -0.3766  0.5753
 9531TIP3    H150084   3.859   2.261   3.303  0.8098 -0.4438 -1.2138
 9531TIP3    H250085   3.731   2.216   3.235  0.4110 -0.0553 -0.7254
 9532TIP3   OH250086   1.703   4.149  17.229  0.0948 -0.6074 -0.5760
 9532TIP3    H150087   1.675   4.240  17.222  0.2936 -0.5404 -0.5122
 9532TIP3    H250088   1.788   4.146  17.185  1.6389 -0.0502  2.0925
 9533TIP3   OH250089   0.664   5.424   1.581  0.0819 -1.2111 -0.1794
 9533TIP3    H150090   0.719   5.429   1.502  1.2296 -1.8582  0.5549
 9533TIP3    H250091   0.666   5.332   1.606 -0.7396 -1.1061  0.2908
 9534TIP3   OH250092   3.070   0.433   6.250 -0.1443 -0.1174 -1.3426
 9534TIP3    H150093   3.013   0.483   6.191  1.4346  0.9981 -1.9856
 9534TIP3    H250094   3.144   0.408   6.195  0.8160 -0.0528 -0.0993
 9535TIP3   OH250095   0.753   2.671  13.101  0.1106  0.3776 -0.0270
 9535TIP3    H150096   0.689   2.646  13.168  0.2294 -0.6217 -0.2684
 9535TIP3    H250097   0.790   2.588  13.071  1.6759  0.9566  0.2373
 9536TIP3   OH250098   0.310   1.060   6.326 -0.8381  0.1547  0.0041
 9536TIP3    H150099   0.256   1.032   6.400  0.0862  0.0813  0.6766
 9536TIP3    H250100   0.368   1.127   6.363 -1.0273  0.8172 -0.8932
 9537TIP3   OH250101   0.330   2.669   1.331 -0.0797  0.4964  0.4354
 9537TIP3    H150102   0.400   2.722   1.370 -0.9589  1.0830  1.2781
 9537TIP3    H250103   0.291   2.623   1.406  1.5630 -2.5404 -0.4089
 9538TIP3   OH250104   6.575   0.735   4.923 -0.5390 -0.0028  0.6846
 9538TIP3    H150105   6.573   0.718   4.829  0.6867  0.6871  0.5296
 9538TIP3    H250106   6.600   0.651   4.962  2.1091  0.4754  0.1500
 9539TIP3   OH250107   1.545   4.380  11.563  0.2636 -0.1743 -0.2442
 9539TIP3    H150108   1.630   4.422  11.577  0.3189 -0.9033  1.9615
 9539TIP3    H250109   1.481   4.451  11.569  0.4823 -0.0847  1.7996
 9540TIP3   OH250110   3.190   3.024   3.530  0.5364  0.8446 -0.1346
 9540TIP3    H150111   3.126   3.019   3.600  0.1121 -0.3300 -0.5825
 9540TIP3    H250112   3.172   3.107   3.486  2.6975  3.1270  2.8623
 9541TIP3   OH250113   5.772   5.697   2.868  0.2441  0.1009  0.2246
 9541TIP3    H150114   5.780   5.720   2.961  0.1858 -0.4639  0.3714
 9541TIP3    H250115   5.848   5.642   2.850 -0.0581 -0.2753  0.0891
 9542TIP3   OH250116   2.262   6.338   2.224 -0.2398  0.2452  0.1533
 9542TIP3    H150117   2.267   6.396   2.148  2.2156 -2.9360 -2.4511
 9542TIP3    H250118   2.352   6.336   2.258 -0.7762 -0.2721  1.6087
 9543TIP3   OH250119   3.997   2.843   3.562 -0.4706  0.6385 -0.1214
 9543TIP3    H150120   3.963   2.923   3.522 -2.3846  0.1027  0.3159
 9543TIP3    H250121   3.947   2.773   3.521  0.4318 -0.2624  0.2737
 9544TIP3   OH250122   2.570   1.545  17.081 -0.3250  0.2032  0.6273
 9544TIP3    H150123   2.588   1.639  17.078  0.5831  0.0269  0.1629
 9544TIP3    H250124   2.539   1.525  16.992  0.0888 -0.0489  0.5392
 9545TIP3   OH250125   1.472   3.785   3.051 -0.2692 -0.2202  0.7512
 9545TIP3    H150126   1.541   3.736   3.096  1.1485 -0.4553 -1.5369
 9545TIP3    H250127   1.500   3.876   3.057 -0.1307 -0.2418  0.4464
 9546TIP3   OH250128   1.880   2.615   5.448 -0.5064  0.5295  0.4570
 9546TIP3    H150129   1.902   2.598   5.356  1.0348  0.8594  0.7410
 9546TIP3    H250130   1.909   2.537   5.495 -3.4817 -0.7344  0.4409
 9547TIP3   OH250131   2.541   1.929  12.693 -0.1897  0.6163 -0.0644
 9547TIP3    H150132   2.456   1.965  12.720 -0.7129  0.0630 -0.9350
 9547TIP3    H250133   2.580   1.997  12.639  0.9832  1.8476  2.1813
 9548TIP3   OH250134   3.115   3.283  14.579 -0.1770 -0.1744  0.9704
 9548TIP3    H150135   3.052   3.331  14.632 -1.4862 -1.1664  0.3810
 9548TIP3    H250136   3.191   3.270  14.636 -0.6400  0.7364  1.8113
 9549TIP3   OH250137   5.599   3.409   2.322 -0.5944 -0.5498  0.3784
 9549TIP3    H150138   5.553   3.478   2.369 -2.4963 -1.7092  0.3293
 9549TIP3    H250139   5.598   3.438   2.230  0.6298  0.3860  0.6370
 9550TIP3   OH250140   1.626   3.543   6.367 -0.6475  0.7122  0.3459
 9550TIP3    H150141   1.636   3.544   6.462 -0.6020  2.8943  0.3671
 9550TIP3    H250142   1.665   3.460   6.340 -1.2689 -0.2731  2.2642
 9551TIP3   OH250143   5.105   1.358   1.447 -0.1174 -0.2180  0.1559
 9551TIP3    H150144   5.082   1.346   1.540 -0.0014  1.3708  0.4102
 9551TIP3    H250145   5.072   1.444   1.425  1.7805  0.3444 -0.6770
 9552TIP3   OH250146   4.519   2.401  13.454 -0.1786  0.3867 -0.1499
 9552TIP3    H150147   4.463   2.407  13.531  0.0863  2.7069 -0.0657
 9552TIP3    H250148   4.479   2.461  13.390  1.8256  1.7174 -0.2721
 9553TIP3   OH250149   4.777   6.443  11.924  0.3558 -0.0153 -0.5788
 9553TIP3    H150150   4.791   6.481  12.011  0.9434 -0.8067 -0.3112
 9553TIP3    H250151   4.761   6.350  11.941 -3.7493  0.4367 -0.9851
 9554TIP3   OH250152   4.793   2.860   2.719 -0.1686  0.6611  0.1909
 9554TIP3    H150153   4.828   2.807   2.790  1.2909  2.1681  0.6409
 9554TIP3    H250154   4.713   2.898   2.755 -0.7170 -0.4418  0.1835
 9555TIP3   OH250155   6.187   4.625   3.438  0.5358  0.3958  0.3564
 9555TIP3    H150156   6.137   4.566   3.382 -1.6965  0.7598  1.8507
 9555TIP3    H250157   6.271   4.635   3.393  0.0268 -1.8231 -1.2463
 9556TIP3   OH250158   5.654   1.999  15.736  0.0306 -0.0161  0.2384
 9556TIP3    H150159   5.735   1.988  15.786  0.0475  0.1748  0.2549
 9556TIP3    H250160   5.610   2.074  15.777  1.1554  1.6803 -1.4647
 9557TIP3   OH250161   5.100   0.050  13.982  0.2213 -0.0993  0.0953
 9557TIP3    H150162   5.066  -0.018  13.924  1.0368 -0.5984  0.1866
 9557TIP3    H250163   5.034   0.060  14.050 -0.9123  0.7219 -1.0631
 9558TIP3   OH250164   2.465   4.608   1.544  0.1469  0.5041 -0.4276
 9558TIP3    H150165   2.373   4.621   1.564 -0.2704  0.2266 -2.0321
 9558TIP3    H250166   2.479   4.657   1.463  1.5302  0.9257  0.0348
 9559TIP3   OH250167   4.587   1.961   1.362 -0.1817  0.3127  0.0909
 9559TIP3    H150168   4.640   1.921   1.431  0.3040  1.9089  0.6780
 9559TIP3    H250169   4.497   1.953   1.394 -0.0849 -0.2059  0.2453
 9560TIP3   OH250170   6.289   1.216  12.676 -0.2728  0.3323  0.2228
 9560TIP3    H150171   6.276   1.311  12.671 -0.1189  0.3154 -0.7158
 9560TIP3    H250172   6.214   1.184  12.727 -0.0595  0.9995  0.9762
 9561TIP3   OH250173   0.830   6.153  16.480 -0.0535 -0.5308 -0.0817
 9561TIP3    H150174   0.811   6.172  16.571  1.8139 -0.2701  0.2895
 9561TIP3    H250175   0.926   6.149  16.475 -0.1410 -1.7611 -1.7798
 9562TIP3   OH250176   2.063   6.276   5.045  0.0190  0.6683  0.1082
 9562TIP3    H150177   2.072   6.263   5.140  0.9423  0.1613 -0.0344
 9562TIP3    H250178   2.126   6.344   5.024  0.0211  0.5749 -0.1897
 9563TIP3   OH250179   4.142   2.599   4.090  0.0377 -0.3506 -0.0586
 9563TIP3    H150180   4.094   2.554   4.020 -2.1841 -1.1886  1.9011
 9563TIP3    H250181   4.077   2.615   4.158  2.0218  0.8076  1.6877
 9564TIP3   OH250182   1.845   5.325  16.337 -0.0414 -0.4437  0.7983
 9564TIP3    H150183   1.814   5.236  16.324  0.8749 -0.7586  0.7246
 9564TIP3    H250184   1.889   5.349  16.256 -0.2132  0.0506  0.8430
 9565TIP3   OH250185   4.233   5.876   0.337  0.2520  0.1572  0.1154
 9565TIP3    H150186   4.145   5.871   0.300 -0.0698 -2.8505  0.9914
 9565TIP3    H250187   4.291   5.845   0.268  0.4804  0.9059 -0.0356
 9566TIP3   OH250188   0.900   0.385  16.927 -0.0657  0.1766  0.4206
 9566TIP3    H150189   0.806   0.391  16.910  0.1479  0.2727 -0.8159
 9566TIP3    H250190   0.909   0.311  16.987 -0.9651  0.4918  0.9721
 9567TIP3   OH250191   2.346   2.050   2.465 -0.3211 -0.1813 -0.3352
 9567TIP3    H150192   2.253   2.044   2.442 -0.2810  0.9532 -0.9159
 9567TIP3    H250193   2.346   2.084   2.554 -0.4888  1.1967 -0.8297
 9568TIP3   OH250194   3.462   0.693   5.244  0.5815  0.2075  0.0496
 9568TIP3    H150195   3.374   0.656   5.256  0.3175  0.6079 -0.5616
 9568TIP3    H250196   3.491   0.657   5.160  1.7054 -1.2600  1.0092
 9569TIP3   OH250197   0.378   0.323  15.701 -0.3878 -0.2367 -0.6266
 9569TIP3    H150198   0.421   0.399  15.740  0.4796 -1.2216  0.3962
 9569TIP3    H250199   0.367   0.261  15.773 -1.4229 -0.9419 -1.3565
 9570TIP3   OH250200   1.555   1.765  16.582  0.4033  0.7087  0.7577
 9570TIP3    H150201   1.547   1.671  16.566  0.3445  0.5591  1.6214
 9570TIP3    H250202   1.466   1.794  16.603  0.0397  1.3571 -1.4510
 9571TIP3   OH250203   2.853   3.902  11.447 -0.4825  0.3133 -0.2445
 9571TIP3    H150204   2.875   3.960  11.520 -1.8347  0.1268  0.3329
 9571TIP3    H250205   2.758   3.909  11.438 -0.7684 -2.1712  0.1535
 9572TIP3   OH250206   0.225   2.854  16.705  0.3998 -0.3301 -0.3203
 9572TIP3    H150207   0.169   2.877  16.779  1.2432  0.0608  0.2155
 9572TIP3    H250208   0.183   2.778  16.665  0.4916 -1.2207  1.2029
 9573TIP3   OH250209   6.312   1.671  17.299 -0.3438 -0.2143  0.2430
 9573TIP3    H150210   6.250   1.660  17.372 -0.2423  0.0030  0.3649
 9573TIP3    H250211   6.350   1.758  17.314  0.7440 -0.7666  0.7437
 9574TIP3   OH250212   3.312   2.268   3.263  0.7472 -0.0259  0.0231
 9574TIP3    H150213   3.300   2.230   3.176  0.4725 -0.9816  0.4616
 9574TIP3    H250214   3.287   2.360   3.253  0.3870 -0.2049 -0.8200
 9575TIP3   OH250215   0.690   2.261   0.187  0.1387 -0.1155  0.0825
 9575TIP3    H150216   0.761   2.301   0.238 -1.3577 -0.7941  2.9133
 9575TIP3    H250217   0.722   2.173   0.165  0.4692 -0.1608  0.7263
 9576TIP3   OH250218   2.161   2.960  16.687  0.1970 -0.3401 -0.1436
 9576TIP3    H150219   2.208   2.964  16.771  0.3054 -1.7725 -0.1226
 9576TIP3    H250220   2.129   2.870  16.681  2.0860 -0.9600 -2.6266
 9577TIP3   OH250221   4.671   3.036   2.006  0.2341 -0.0367  0.0589
 9577TIP3    H150222   4.580   3.061   2.017  0.0607  0.3063 -1.7900
 9577TIP3    H250223   4.704   3.024   2.095 -0.9215  2.2700  0.8770
 9578TIP3   OH250224   4.697   0.813   2.981 -0.9463  0.6296  0.7426
 9578TIP3    H150225   4.741   0.732   3.008 -2.2076  0.0549  1.1082
 9578TIP3    H250226   4.720   0.822   2.888  0.4636  0.7015  1.0661
 9579TIP3   OH250227   1.815   6.352   0.531  0.0852  0.6425 -0.6477
 9579TIP3    H150228   1.877   6.416   0.497  0.1877  0.7714 -0.2273
 9579TIP3    H250229   1.738   6.403   0.554  1.0106  1.0243  1.9139
 9580TIP3   OH250230   4.126   2.437  11.303 -0.2159 -0.5825 -0.0696
 9580TIP3    H150231   4.091   2.413  11.218  0.5571  0.5942 -0.7472
 9580TIP3    H250232   4.203   2.490  11.283  1.3886 -2.2214  1.3473
 9581TIP3   OH250233   4.896   5.084  13.197  0.8866  0.1314  0.1443
 9581TIP3    H150234   4.979   5.064  13.154  1.0449 -0.9545  0.9259
 9581TIP3    H250235   4.906   5.052  13.286 -0.5198 -0.3986  0.1384
 9582TIP3   OH250236   3.720   4.488   3.671  0.2012  0.7324 -0.5885
 9582TIP3    H150237   3.653   4.550   3.700  1.1363  1.8739 -0.8230
 9582TIP3    H250238   3.766   4.533   3.601  1.2953  0.0153 -0.3501
 9583TIP3   OH250239   4.858   1.483  15.778 -0.4564  0.5900  0.4838
 9583TIP3    H150240   4.860   1.569  15.820  2.6109 -0.6894  3.4503
 9583TIP3    H250241   4.846   1.422  15.850  1.3131 -1.6140 -0.9578
 9584TIP3   OH250242   3.794   3.202  14.222  0.5338  0.2266 -0.2094
 9584TIP3    H150243   3.768   3.218  14.131 -0.0291 -1.3866 -0.3573
 9584TIP3    H250244   3.712   3.191  14.270  0.8412 -0.0861  0.2589
 9585TIP3   OH250245   2.912   6.344  12.257 -0.1384 -0.2361 -0.2738
 9585TIP3    H150246   2.956   6.337  12.341 -0.6012 -1.1208 -0.0980
 9585TIP3    H250247   2.944   6.270  12.206  0.3762  0.4653 -1.0070
 9586TIP3   OH250248   3.436   1.720  14.814  0.3215  0.3921  0.1962
 9586TIP3    H150249   3.420   1.783  14.744 -0.4895 -0.4364 -0.3833
 9586TIP3    H250250   3.494   1.766  14.875  0.4247  1.3909 -0.6334
 9587TIP3   OH250251   3.976   4.747  15.202  0.1626 -0.0644 -0.6092
 9587TIP3    H150252   3.962   4.667  15.254 -2.3358  0.8231  0.2708
 9587TIP3    H250253   4.033   4.801  15.256 -0.9818  0.1269  0.4505
 9588TIP3   OH250254   0.253   4.222  14.305  0.2716  0.1817  0.1372
 9588TIP3    H150255   0.309   4.269  14.366 -1.0783 -0.0654  1.6245
 9588TIP3    H250256   0.165   4.228  14.343 -0.6209 -0.0037 -1.7780
 9589TIP3   OH250257   4.548   1.678   2.151  0.8416 -0.1977 -0.1740
 9589TIP3    H150258   4.513   1.753   2.104  1.3259 -0.1646 -0.4930
 9589TIP3    H250259   4.487   1.607   2.133  1.8265 -0.6142 -2.1973
 9590TIP3   OH250260   2.681   0.295  16.492  0.0605 -0.2665 -0.7519
 9590TIP3    H150261   2.614   0.237  16.529  1.1284 -0.4918  0.9061
 9590TIP3    H250262   2.759   0.241  16.484  0.8010  0.6687 -0.0972
 9591TIP3   OH250263   5.799   4.242   3.743 -0.2633 -0.4592  0.3450
 9591TIP3    H150264   5.732   4.182   3.710 -2.6147  2.0526  0.2329
 9591TIP3    H250265   5.793   4.319   3.686  1.0864  0.7969  1.8106
 9592TIP3   OH250266   4.539   6.254   5.310 -0.9474 -0.2389  0.3466
 9592TIP3    H150267   4.498   6.221   5.390 -1.4298 -1.5510 -0.4035
 9592TIP3    H250268   4.630   6.223   5.314 -0.7935  0.2505  0.6833
 9593TIP3   OH250269   1.618   0.651   3.604  0.3242 -0.2333 -0.3019
 9593TIP3    H150270   1.707   0.679   3.625 -0.3299  0.6057  1.5935
 9593TIP3    H250271   1.574   0.731   3.573 -0.0470 -0.4147 -0.2536
 9594TIP3   OH250272   5.097   6.643   3.460 -0.0509 -0.9307  0.4572
 9594TIP3    H150273   5.164   6.711   3.452 -1.9730  1.0674  0.2174
 9594TIP3    H250274   5.107   6.609   3.549  0.3731  0.3772  0.9326
 9595TIP3   OH250275   3.291   6.042   5.048 -0.1843  0.0026 -0.0998
 9595TIP3    H150276   3.344   6.004   5.118 -0.0292  0.4095  0.0121
 9595TIP3    H250277   3.205   6.002   5.058  0.3542 -1.4327 -0.9088
 9596TIP3   OH250278   0.791   1.968  15.647  0.1654  0.5245 -0.0138
 9596TIP3    H150279   0.828   1.894  15.695  1.9203  1.2133 -0.2096
 9596TIP3    H250280   0.713   1.992  15.696 -0.4618 -1.4337  0.0394
 9597TIP3   OH250281   4.860   0.260   4.258  0.7543 -0.1359 -0.6969
 9597TIP3    H150282   4.783   0.314   4.241  0.5464 -0.4520 -0.7712
 9597TIP3    H250283   4.878   0.272   4.351 -0.1105 -0.9827 -0.4005
 9598TIP3   OH250284   5.966   6.071  16.673 -0.1046 -0.0118 -0.3292
 9598TIP3    H150285   5.964   6.165  16.692  3.8871  0.4563 -1.3557
 9598TIP3    H250286   5.976   6.029  16.759 -1.3669  0.4959  0.0879
 9599TIP3   OH250287   2.457   5.470  12.476  0.5202 -0.0513  0.0308
 9599TIP3    H150288   2.492   5.381  12.467 -0.0700 -0.2615 -0.2096
 9599TIP3    H250289   2.487   5.498  12.563  0.6871 -0.4980  0.1216
 9600TIP3   OH250290   3.161   5.330  13.305 -0.6079  0.0280 -0.0454
 9600TIP3    H150291   3.095   5.372  13.360 -1.5844 -0.1099 -1.0575
 9600TIP3    H250292   3.209   5.272  13.364 -0.2928  1.3541  1.0454
 9601TIP3   OH250293   2.330   1.628   1.128 -0.2134  0.2596 -0.3507
 9601TIP3    H150294   2.367   1.574   1.199  0.1949 -1.3894 -1.7598
 9601TIP3    H250295   2.252   1.668   1.167  0.3951 -0.0225  1.2466
 9602TIP3   OH250296   3.030   2.763   5.550 -0.3845 -0.7596 -0.3750
 9602TIP3    H150297   2.943   2.753   5.511  0.1025 -0.7742 -1.4913
 9602TIP3    H250298   3.070   2.835   5.500  0.3508 -0.9473 -0.0635
 9603TIP3   OH250299   0.856   4.551   2.795  0.6943 -0.1433 -0.2392
 9603TIP3    H150300   0.882   4.569   2.885  0.1763 -0.3212 -0.0531
 9603TIP3    H250301   0.774   4.503   2.802  1.3460 -1.3871 -0.7716
 9604TIP3   OH250302   1.692   1.363  15.775 -0.3244  0.4841 -0.0908
 9604TIP3    H150303   1.719   1.453  15.762  0.2656  0.2531 -0.4869
 9604TIP3    H250304   1.746   1.331  15.847  0.5482 -0.0020 -0.9378
 9605TIP3   OH250305   5.922   3.937  13.036  0.1134 -0.7694  0.5059
 9605TIP3    H150306   6.016   3.935  13.053 -0.3976 -1.4942  4.1801
 9605TIP3    H250307   5.906   3.859  12.982  1.7448  0.3541 -1.7645
 9606TIP3   OH250308   0.934   3.524  14.498  0.3159  0.2660  0.0005
 9606TIP3    H150309   1.007   3.586  14.497  0.9754 -0.4761 -1.6669
 9606TIP3    H250310   0.865   3.567  14.448  0.4814 -0.0155 -0.4701
 9607TIP3   OH250311   0.284   4.075  14.648 -0.7098  0.1075  0.6369
 9607TIP3    H150312   0.256   4.133  14.578 -2.0855 -2.1984 -0.8542
 9607TIP3    H250313   0.208   4.019  14.664  0.3441 -0.8967  2.4177
 9608TIP3   OH250314   5.703   1.774  13.167 -0.0586  0.0340 -0.2454
 9608TIP3    H150315   5.654   1.693  13.174 -0.3780  0.2132 -0.3753
 9608TIP3    H250316   5.793   1.750  13.189 -0.3920 -0.0859  1.0582
 9609TIP3   OH250317   1.402   2.855   2.017 -0.3496 -0.4884 -0.0874
 9609TIP3    H150318   1.455   2.782   2.048  0.2261  0.3307  0.9502
 9609TIP3    H250319   1.365   2.825   1.934  0.7314 -1.5487 -0.2139
 9610TIP3   OH250320   0.769   4.977  15.017 -0.0757 -0.2878  0.4230
 9610TIP3    H150321   0.721   4.910  15.065  0.9734 -0.5131  1.2095
 9610TIP3    H250322   0.853   4.936  14.996  0.1074  0.3687 -0.1672
 9611TIP3   OH250323   2.536   6.185   4.209 -0.2733  0.1510 -0.6551
 9611TIP3    H150324   2.520   6.270   4.168 -1.8845 -1.0179 -2.6154
 9611TIP3    H250325   2.472   6.181   4.280 -0.7794  0.2453 -1.0982
 9612TIP3   OH250326   0.247   4.253   4.543 -0.4740  0.2690 -0.0859
 9612TIP3    H150327   0.234   4.343   4.515 -0.2202  0.3583  0.0806
 9612TIP3    H250328   0.317   4.257   4.608 -1.0677  0.0612  0.5764
 9613TIP3   OH250329   3.508   3.071  12.285  0.3155 -0.1885 -0.6468
 9613TIP3    H150330   3.420   3.110  12.284  0.7041  0.8501  0.8398
 9613TIP3    H250331   3.559   3.124  12.224  0.0404 -0.4605 -1.1151
 9614TIP3   OH250332   0.054   0.467   4.827  0.1172 -0.4481  0.0898
 9614TIP3    H150333   0.002   0.504   4.755  1.1376  0.4125 -0.2377
 9614TIP3    H250334   0.094   0.389   4.789  0.1424 -0.3519 -0.0848
 9615TIP3   OH250335   0.144   6.064  17.087 -0.0197 -0.4084 -0.2167
 9615TIP3    H150336   0.183   6.037  17.004 -1.6300  0.7674 -1.4241
 9615TIP3    H250337   0.116   5.982  17.128  0.6873 -0.9915 -0.8738
 9616TIP3   OH250338   0.958   4.274   0.643 -0.3981  0.2742  0.0255
 9616TIP3    H150339   0.989   4.267   0.733 -0.5091  0.9423  0.1214
 9616TIP3    H250340   0.998   4.199   0.598 -0.3032 -0.0351  0.6128
 9617TIP3   OH250341   0.438   4.828  16.539  0.4940 -0.0565 -0.3662
 9617TIP3    H150342   0.351   4.823  16.577  0.3384 -1.4779 -0.8325
 9617TIP3    H250343   0.490   4.875  16.603 -0.9937  2.4193 -0.8675
 9618TIP3   OH250344   4.168   5.533  16.900 -0.4660  0.3842 -0.1578
 9618TIP3    H150345   4.085   5.555  16.941 -0.5409  0.7242 -0.4972
 9618TIP3    H250346   4.146   5.507  16.811 -0.2437  0.1493 -0.1475
 9619TIP3   OH250347   0.476   1.895   4.238 -0.0408 -0.8659  0.0708
 9619TIP3    H150348   0.444   1.806   4.252 -0.7150 -0.3210  2.2157
 9619TIP3    H250349   0.399   1.950   4.243  0.6349  0.0384  0.7808
 9620TIP3   OH250350   3.132   0.431  14.346 -0.2665 -0.4366 -0.0945
 9620TIP3    H150351   3.065   0.459  14.284  0.7005  1.7893 -0.2341
 9620TIP3    H250352   3.208   0.408  14.291  0.0639 -0.0318  0.1882
 9621TIP3   OH250353   5.385   3.363   1.354 -0.3694  0.3408  0.1219
 9621TIP3    H150354   5.343   3.437   1.398  0.3906  0.6856  0.2780
 9621TIP3    H250355   5.359   3.372   1.263 -2.7420 -0.9114  0.5950
 9622TIP3   OH250356   0.570   3.706  16.169 -0.4248 -0.5846  0.5733
 9622TIP3    H150357   0.598   3.702  16.077  0.6782  0.2512  0.8528
 9622TIP3    H250358   0.603   3.790  16.200 -1.0028 -0.7485  1.6771
 9623TIP3   OH250359   5.850   0.453  17.153 -0.1778 -0.5897  0.1274
 9623TIP3    H150360   5.935   0.410  17.157 -1.0769 -2.6296 -1.2511
 9623TIP3    H250361   5.816   0.447  17.243  0.4219 -1.2458  0.3188
 9624TIP3   OH250362   4.461   6.458  16.168 -0.3294 -0.0007  0.3000
 9624TIP3    H150363   4.453   6.531  16.230  0.9088 -0.7276  1.3666
 9624TIP3    H250364   4.537   6.409  16.199 -0.3008 -0.9752 -1.2134
 9625TIP3   OH250365   6.715   2.055  12.337  0.0652 -0.0552 -0.3204
 9625TIP3    H150366   6.725   1.961  12.354 -1.0785 -0.1391 -0.0638
 9625TIP3    H250367   6.772   2.097  12.401  1.6452 -0.5898 -1.3087
 9626TIP3   OH250368   0.259   1.015  13.979  0.0598 -0.1946  0.8584
 9626TIP3    H150369   0.224   1.019  13.890  2.7239  0.8282 -0.2349
 9626TIP3    H250370   0.299   0.928  13.985  0.1035 -0.1668  0.9685
 9627TIP3   OH250371   5.106   6.058   2.358  0.4772 -0.6827 -0.3532
 9627TIP3    H150372   5.010   6.064   2.358  0.4876 -0.2660 -1.3836
 9627TIP3    H250373   5.129   6.040   2.449 -0.7046 -2.9568 -0.4271
 9628TIP3   OH250374   0.766   1.526   5.890  0.4141 -0.7605 -0.0552
 9628TIP3    H150375   0.680   1.500   5.924  0.2401 -2.0627 -1.4016
 9628TIP3    H250376   0.829   1.484   5.948  0.1372 -0.9627  0.1015
 9629TIP3   OH250377   2.098   6.672   3.802 -0.2816  0.0149  0.1610
 9629TIP3    H150378   2.160   6.720   3.747  0.0060  0.3170  0.7409
 9629TIP3    H250379   2.014   6.683   3.758 -0.1407  0.6795  0.0548
 9630TIP3   OH250380   2.472   0.052  14.170  0.2318 -0.4396  0.0317
 9630TIP3    H150381   2.451   0.018  14.258  0.6184 -4.4005 -1.1885
 9630TIP3    H250382   2.567   0.051  14.167  0.2292 -2.1297 -0.9229
 9631TIP3   OH250383   3.687   2.069  11.115 -0.1909 -0.4107  0.1948
 9631TIP3    H150384   3.611   2.066  11.057  0.3777 -1.9387 -0.5064
 9631TIP3    H250385   3.755   2.111  11.062  0.4243 -2.1007 -0.3932
 9632TIP3   OH250386   4.240   3.254  16.847  0.4297  0.3838  0.0065
 9632TIP3    H150387   4.150   3.277  16.823  1.1989  1.5781 -1.8799
 9632TIP3    H250388   4.276   3.335  16.884  0.3039 -0.5220  2.3202
 9633TIP3   OH250389   3.583   2.963  15.017 -0.3847 -0.3572 -0.2174
 9633TIP3    H150390   3.633   3.014  14.953 -0.5967 -2.1649 -1.9158
 9633TIP3    H250391   3.543   2.892  14.966  0.3663 -2.5844  2.0845
 9634TIP3   OH250392   0.135   2.433  11.990 -0.3812 -0.8319 -0.2906
 9634TIP3    H150393   0.130   2.340  12.014 -1.6150 -0.8363 -0.5066
 9634TIP3    H250394   0.111   2.435  11.898 -0.3444 -0.2964 -0.2886
 9635TIP3   OH250395   3.360   2.456  10.291 -0.3699  0.2056 -0.1657
 9635TIP3    H150396   3.383   2.417  10.376 -2.4685  0.4336  0.5527
 9635TIP3    H250397   3.440   2.447  10.239  0.5703 -1.1181  1.3988
 9636TIP3   OH250398   1.807   4.968  15.483 -0.1424 -0.2148  0.4948
 9636TIP3    H150399   1.802   5.059  15.510 -0.1990 -0.4000  1.1453
 9636TIP3    H250400   1.830   4.921  15.563 -2.2803 -1.0264  0.7001
 9637TIP3   OH250401   5.804   4.797   2.339  0.4595 -0.1796 -0.4778
 9637TIP3    H150402   5.850   4.720   2.374  0.9826  0.4243  0.1882
 9637TIP3    H250403   5.837   4.870   2.391 -1.1528  0.2994 -0.0829
 9638TIP3   OH250404   5.582   2.158  16.888  0.2344 -0.1817  0.0386
 9638TIP3    H150405   5.634   2.116  16.957  0.8550 -1.6296 -1.2381
 9638TIP3    H250406   5.493   2.126  16.902  0.4024 -0.6576  0.0412
 9639TIP3   OH250407   1.642   5.960  14.106  0.4988 -0.6118  0.5293
 9639TIP3    H150408   1.562   5.943  14.156 -0.4968  0.8769 -0.4566
 9639TIP3    H250409   1.706   5.990  14.171 -0.1298 -0.6594  1.1812
 9640TIP3   OH250410   4.071   2.046   2.869 -0.0339  0.0914 -0.6553
 9640TIP3    H150411   4.056   2.071   2.961  1.1288  1.6139 -0.8268
 9640TIP3    H250412   4.070   2.129   2.822  0.2410 -0.5889 -1.8908
 9641TIP3   OH250413   1.924   5.140  15.723  0.3099 -0.0517 -0.2892
 9641TIP3    H150414   1.937   5.209  15.657 -0.3890  0.7716  0.4045
 9641TIP3    H250415   2.013   5.117  15.749  0.5649  1.5935  0.4489
 9642TIP3   OH250416   2.417   3.746   0.749  0.4746  0.5785 -0.1676
 9642TIP3    H150417   2.375   3.767   0.832 -0.2609  1.3682 -0.7067
 9642TIP3    H250418   2.369   3.799   0.685  0.6704 -0.4050 -1.1640
 9643TIP3   OH250419   4.371   0.100  13.966  0.2137 -0.5860  0.2373
 9643TIP3    H150420   4.330   0.063  13.887 -1.3133  0.1615  0.6377
 9643TIP3    H250421   4.349   0.193  13.963  0.0616 -0.5574  1.5675
 9644TIP3   OH250422   1.480   5.641   0.296 -0.1544 -0.0865 -0.0768
 9644TIP3    H150423   1.393   5.680   0.288 -0.0038  0.5721  1.1180
 9644TIP3    H250424   1.515   5.679   0.377  0.9691 -0.8736 -0.1727
 9645TIP3   OH250425   6.797   1.095  14.041 -0.4779  0.3420  0.4942
 9645TIP3    H150426   6.883   1.066  14.071 -0.6958 -0.6970  0.1775
 9645TIP3    H250427   6.786   1.182  14.079  1.1155  0.9132 -0.2826
 9646TIP3   OH250428   0.145   3.735  12.004  0.0499  0.1219 -0.3036
 9646TIP3    H150429   0.073   3.745  12.065 -0.7044 -0.1354 -1.1299
 9646TIP3    H250430   0.215   3.693  12.055 -1.2668 -1.9533 -0.0990
 9647TIP3   OH250431   0.253   2.845   4.854 -0.2493  0.1401 -0.2340
 9647TIP3    H150432   0.193   2.888   4.915 -0.3855 -0.5794  0.1489
 9647TIP3    H250433   0.195   2.810   4.785 -0.2241 -0.1356 -0.1161
 9648TIP3   OH250434   3.732   1.055  16.960  0.2834  0.6924 -0.5287
 9648TIP3    H150435   3.811   1.005  16.979 -0.1537  0.1295 -0.1417
 9648TIP3    H250436   3.672   0.992  16.921 -0.4654  0.7634  0.4560
 9649TIP3   OH250437   3.679   0.275  11.382 -0.1075 -0.5630 -0.4219
 9649TIP3    H150438   3.663   0.363  11.416 -0.0727 -0.9330  0.5945
 9649TIP3    H250439   3.665   0.283  11.288  0.6799  0.7032 -0.4567
 9650TIP3   OH250440   5.632   3.500  12.440 -0.1795  0.2515  0.7827
 9650TIP3    H150441   5.635   3.542  12.526 -1.3407  2.7719 -0.2904
 9650TIP3    H250442   5.541   3.476  12.428 -0.2430  0.8711 -0.1130
 9651TIP3   OH250443   0.496   2.633  15.461  0.3226 -0.1969 -0.5653
 9651TIP3    H150444   0.403   2.648  15.443  0.2338 -1.1702 -1.0065
 9651TIP3    H250445   0.497   2.557  15.519  0.8510 -0.2932 -0.6960
 9652TIP3   OH250446   5.533   2.436   1.053 -0.2478 -0.2306 -0.3734
 9652TIP3    H150447   5.531   2.340   1.059 -1.4410 -0.1770  0.6944
 9652TIP3    H250448   5.465   2.457   0.989  0.2984 -0.1104 -0.9137
 9653TIP3   OH250449   2.296   3.325   6.070 -0.0356  0.0578 -0.1189
 9653TIP3    H150450   2.353   3.270   6.123  2.6656  2.3039 -0.5030
 9653TIP3    H250451   2.303   3.290   5.982 -2.4840 -2.0651  0.4110
 9654TIP3   OH250452   0.168   5.017   3.198  0.2507  0.2212  0.5436
 9654TIP3    H150453   0.145   5.102   3.237 -0.8616 -0.2551  0.9734
 9654TIP3    H250454   0.085   4.982   3.167  0.7195 -0.6727  0.2757
 9655TIP3   OH250455   4.134   1.791  12.703 -0.2163  0.1564 -0.1962
 9655TIP3    H150456   4.128   1.743  12.786  0.4097  0.5927  0.1001
 9655TIP3    H250457   4.217   1.764  12.665 -0.2305  0.4084 -0.4094
 9656TIP3   OH250458   3.615   4.862   2.586  0.3383 -0.2440  0.4999
 9656TIP3    H150459   3.569   4.879   2.503 -1.4184  0.0605  1.4798
 9656TIP3    H250460   3.585   4.775   2.612  2.1747 -1.0610  0.0434
 9657TIP3   OH250461   0.951   3.096   6.048  0.1364 -0.3549  0.2727
 9657TIP3    H150462   0.941   3.141   5.964 -0.4541 -0.1574  0.4439
 9657TIP3    H250463   0.862   3.090   6.083  0.4139 -0.0860  1.0616
 9658TIP3   OH250464   1.865   1.218  15.510 -0.2566  0.3937 -0.5007
 9658TIP3    H150465   1.931   1.279  15.478  0.2180  0.1660  0.0307
 9658TIP3    H250466   1.782   1.252  15.475 -0.1026  1.7509  0.3507
 9659TIP3   OH250467   3.622   2.968   4.001 -0.1287 -0.0540 -0.0922
 9659TIP3    H150468   3.577   2.884   3.999 -0.4209  0.0475  1.2918
 9659TIP3    H250469   3.697   2.957   3.942 -0.2464 -1.2358 -0.0435
 9660TIP3   OH250470   6.297   6.176   5.584  0.5742  0.7665  0.3799
 9660TIP3    H150471   6.383   6.216   5.575  1.0506 -0.1639  0.6650
 9660TIP3    H250472   6.312   6.083   5.569 -0.3973  0.6058  0.3491
 9661TIP3   OH250473   1.818   6.438   3.431 -0.2024 -0.2772 -0.2909
 9661TIP3    H150474   1.869   6.415   3.508 -1.9508 -0.1774  0.9532
 9661TIP3    H250475   1.779   6.523   3.452  0.4804  0.4914 -1.9178
 9662TIP3   OH250476   1.228   1.758  13.303 -0.1862 -0.7683 -0.3561
 9662TIP3    H150477   1.312   1.803  13.293 -0.8269  0.6684  0.4391
 9662TIP3    H250478   1.168   1.808  13.248 -0.5015 -1.9340 -1.1187
 9663TIP3   OH250479   1.531   2.299   0.756  0.2112 -0.3138 -0.3425
 9663TIP3    H150480   1.481   2.246   0.818  1.5413 -0.9234  0.2462
 9663TIP3    H250481   1.477   2.377   0.742 -0.9564 -1.0051  0.1538
 9664TIP3   OH250482   0.888   3.404   2.612 -0.1505 -0.1429  0.7465
 9664TIP3    H150483   0.944   3.474   2.645  0.2079 -0.1886  0.2442
 9664TIP3    H250484   0.825   3.389   2.683  0.0828  0.3343  1.0645
 9665TIP3   OH250485   5.450   2.232  14.931 -0.2388  0.1470 -0.4168
 9665TIP3    H150486   5.354   2.232  14.929 -0.2581 -1.0987 -1.9489
 9665TIP3    H250487   5.475   2.301  14.870 -0.1101  1.4470  1.0529
 9666TIP3   OH250488   1.483   1.353  11.594  0.1700 -0.3378  0.5794
 9666TIP3    H150489   1.548   1.382  11.530 -1.2282 -0.2298 -0.8544
 9666TIP3    H250490   1.504   1.260  11.609 -0.5266 -0.8747 -1.4370
 9667TIP3   OH250491   0.588   6.408  12.161 -0.4790 -0.0459  0.4403
 9667TIP3    H150492   0.588   6.498  12.193 -1.0062 -0.7536  2.5935
 9667TIP3    H250493   0.600   6.354  12.239  1.3535 -1.8321 -0.9514
 9668TIP3   OH250494   2.135   6.679  11.270  0.1070  0.3156 -0.0715
 9668TIP3    H150495   2.229   6.698  11.269 -0.1562  1.7969  0.5761
 9668TIP3    H250496   2.114   6.661  11.178  1.0009 -0.0038 -0.2312
 9669TIP3   OH250497   0.123   6.268   0.163  0.3259  0.5267 -0.0275
 9669TIP3    H150498   0.135   6.178   0.133 -0.7287  0.5485 -0.5455
 9669TIP3    H250499   0.038   6.268   0.205  1.2181  0.8011  1.8974
 9670TIP3   OH250500   2.768   1.884  15.076  0.4246  0.0088 -0.2840
 9670TIP3    H150501   2.863   1.888  15.063  0.1865  1.2732 -2.1101
 9670TIP3    H250502   2.735   1.849  14.993 -0.8373  1.5412 -0.4606
 9671TIP3   OH250503   3.746   5.794  14.191  0.0317 -0.6276  0.2439
 9671TIP3    H150504   3.832   5.836  14.198 -0.0381 -0.3644 -0.3877
 9671TIP3    H250505   3.729   5.791  14.097  0.3253 -2.6871  0.2156
 9672TIP3   OH250506   4.435   0.733   2.946  0.7529  0.0337 -0.6354
 9672TIP3    H150507   4.378   0.791   2.998  0.8079 -0.2281 -0.2755
 9672TIP3    H250508   4.488   0.793   2.894  0.4678  0.2948 -0.6339
 9673TIP3   OH250509   3.416   5.724   6.434  0.0278  0.4060 -0.1852
 9673TIP3    H150510   3.332   5.769   6.440  0.2380  0.6418  1.4042
 9673TIP3    H250511   3.394   5.631   6.439 -0.1003  0.4879  1.5771
 9674TIP3   OH250512   2.748   2.551   2.178 -0.2465  0.0267 -0.3859
 9674TIP3    H150513   2.717   2.625   2.231 -0.9579 -0.5349 -0.0057
 9674TIP3    H250514   2.718   2.473   2.224  1.7016 -0.5686 -0.0542
 9675TIP3   OH250515   1.832   4.884   4.786 -0.4388 -0.3019 -0.1321
 9675TIP3    H150516   1.797   4.893   4.875 -1.7335  0.6273 -0.7045
 9675TIP3    H250517   1.785   4.950   4.735 -0.5519 -1.5703 -1.7562
 9676TIP3   OH250518   6.481   1.173  13.595  0.1545 -0.2565  0.5580
 9676TIP3    H150519   6.527   1.124  13.664 -0.8731 -1.5712  0.3399
 9676TIP3    H250520   6.414   1.223  13.642  0.5377  0.1703  0.6664
 9677TIP3   OH250521   6.814   3.978   5.830 -0.3810 -0.1115 -0.0192
 9677TIP3    H150522   6.780   4.038   5.897  0.5328  0.7969 -0.3456
 9677TIP3    H250523   6.909   3.995   5.830 -0.0820 -1.6654 -0.0181
 9678TIP3   OH250524   2.033   5.461  12.829 -0.1822 -0.3857  0.0270
 9678TIP3    H150525   2.077   5.377  12.834 -1.0024 -0.8521 -0.2917
 9678TIP3    H250526   1.940   5.440  12.843 -0.3374  0.5357  0.5086
 9679TIP3   OH250527   4.291   1.582   5.379  0.3176  0.1781 -0.0575
 9679TIP3    H150528   4.272   1.490   5.397 -0.7377  0.4397  0.2284
 9679TIP3    H250529   4.306   1.620   5.466  1.3534  0.1638 -0.2154
 9680TIP3   OH250530   1.086   0.829   4.934 -0.4468  0.2987 -0.5515
 9680TIP3    H150531   0.992   0.810   4.937 -0.4452  0.1376 -1.3846
 9680TIP3    H250532   1.108   0.850   5.025 -1.2476  0.1564 -0.3093
 9681TIP3   OH250533   1.480   1.881  12.759 -0.6450 -0.2001 -0.5125
 9681TIP3    H150534   1.543   1.809  12.750  1.3981  1.4329 -0.1146
 9681TIP3    H250535   1.463   1.910  12.669  3.1249  2.4284 -0.6527
 9682TIP3   OH250536   2.097   0.347  14.045 -0.1925  0.1945 -0.1669
 9682TIP3    H150537   2.191   0.335  14.036 -0.0250  1.6177 -0.5913
 9682TIP3    H250538   2.082   0.438  14.019 -1.7591 -0.1816 -0.6694
 9683TIP3   OH250539   2.123   5.240  14.846  0.0766  0.4326  0.0877
 9683TIP3    H150540   2.186   5.300  14.887  0.6132 -0.4548  0.6016
 9683TIP3    H250541   2.166   5.211  14.766  0.9212 -1.1413  1.0470
 9684TIP3   OH250542   3.381   6.477   1.131 -0.5898  0.2679 -0.0657
 9684TIP3    H150543   3.455   6.537   1.136  1.3089 -1.7147 -2.1293
 9684TIP3    H250544   3.382   6.429   1.214  0.1893  0.5419  0.0813
 9685TIP3   OH250545   4.869   5.673  16.515  0.2912  0.2076  0.1704
 9685TIP3    H150546   4.852   5.766  16.535  1.1572 -0.0016  2.1262
 9685TIP3    H250547   4.950   5.675  16.464  0.1512  0.5444 -0.0466
 9686TIP3   OH250548   0.888   6.629   4.571  0.7743  0.3697 -0.3785
 9686TIP3    H150549   0.964   6.686   4.585 -0.2007  1.8785 -1.0130
 9686TIP3    H250550   0.906   6.585   4.488  0.9215  0.7679 -0.5595
 9687TIP3   OH250551   6.013   3.010   4.521  0.8739 -0.0573 -0.1523
 9687TIP3    H150552   6.066   2.959   4.460  0.6061 -3.2759  2.0441
 9687TIP3    H250553   6.074   3.037   4.590  0.7507  1.5986 -0.6470
 9688TIP3   OH250554   1.830   3.193   5.015 -0.1900 -0.7657 -0.3191
 9688TIP3    H150555   1.890   3.259   4.982  1.2877 -1.4771  0.8201
 9688TIP3    H250556   1.839   3.120   4.954 -1.5232 -0.1063 -1.3495
 9689TIP3   OH250557   5.311   0.685  14.637  0.2657  0.1611 -0.3236
 9689TIP3    H150558   5.248   0.720  14.573  1.1196  1.5237 -0.4712
 9689TIP3    H250559   5.344   0.763  14.682 -0.3581 -0.7742  1.8605
 9690TIP3   OH250560   3.263   1.114  12.003 -0.1324 -0.7249 -0.1631
 9690TIP3    H150561   3.270   1.063  12.084 -1.5628  0.9478  1.1101
 9690TIP3    H250562   3.219   1.056  11.942 -0.7293 -1.4017  0.8763
 9691TIP3   OH250563   0.000   5.279  16.851 -0.1300  0.0102 -0.1966
 9691TIP3    H150564  -0.050   5.359  16.836  0.3395  0.4735  0.6117
 9691TIP3    H250565  -0.018   5.256  16.942  2.9523  1.5668  0.9613
 9692TIP3   OH250566   2.875   3.748   4.654  0.1273  0.1621  0.0571
 9692TIP3    H150567   2.791   3.743   4.608 -1.0833 -0.0808  2.2137
 9692TIP3    H250568   2.883   3.841   4.678  1.3479  0.5394 -1.5862
 9693TIP3   OH250569   0.111   6.372   5.808  0.1643  0.0202 -0.3037
 9693TIP3    H150570   0.173   6.411   5.870  0.9663 -0.0101 -1.0693
 9693TIP3    H250571   0.027   6.413   5.829  0.4301  0.0538  0.7573
 9694TIP3   OH250572   4.350   2.634  12.013  0.3110 -0.1949  0.2654
 9694TIP3    H150573   4.439   2.651  12.041  1.5673  0.7412 -3.6709
 9694TIP3    H250574   4.344   2.539  12.004  1.0016 -0.2373  0.2701
 9695TIP3   OH250575   5.990   2.467   0.341 -0.1191  0.1116  0.0250
 9695TIP3    H150576   5.968   2.376   0.362 -1.3207  0.0968 -1.1182
 9695TIP3    H250577   6.047   2.495   0.412  0.1157 -1.4690  0.5115
 9696TIP3   OH250578   3.056   1.363  15.159  0.6344  0.5555  0.1526
 9696TIP3    H150579   3.087   1.328  15.076  1.6071  0.4455  0.5479
 9696TIP3    H250580   3.015   1.447  15.136  2.5096  1.4093 -0.2364
 9697TIP3   OH250581   5.072   5.414   1.417  0.3507  0.3867 -0.1203
 9697TIP3    H150582   5.145   5.379   1.468  0.7991  0.1704 -0.8890
 9697TIP3    H250583   4.994   5.372   1.454  0.9420 -2.3422 -1.6837
 9698TIP3   OH250584   5.082   4.697   0.584  0.5281 -0.0136  0.4076
 9698TIP3    H150585   5.167   4.741   0.578  0.7166 -0.5512 -1.6263
 9698TIP3    H250586   5.019   4.762   0.553  0.1056  0.5008  2.2300
 9699TIP3   OH250587   6.139   1.755  17.101  0.3396  0.5327 -0.2834
 9699TIP3    H150588   6.076   1.683  17.094  0.1871  0.6634 -0.2367
 9699TIP3    H250589   6.211   1.717  17.152  0.8494  0.0073 -1.3518
 9700TIP3   OH250590   3.291   4.737  11.754 -0.2550  0.0073  0.0166
 9700TIP3    H150591   3.263   4.719  11.844 -0.6497  0.9450  0.1030
 9700TIP3    H250592   3.218   4.707  11.700 -0.3841  0.2178  0.0722
 9701TIP3   OH250593   0.497   3.560   1.384 -0.2597  0.2262  0.2838
 9701TIP3    H150594   0.436   3.539   1.313 -0.6522  1.0848  0.3453
 9701TIP3    H250595   0.558   3.486   1.387 -0.0479  0.3140 -1.1572
 9702TIP3   OH250596   4.717   0.862   3.330 -0.1748  0.8563  0.1667
 9702TIP3    H150597   4.751   0.810   3.257  0.0300  0.9328  0.2071
 9702TIP3    H250598   4.731   0.808   3.407 -0.0346  0.9361  0.1982
 9703TIP3   OH250599   0.460   2.982   0.142 -0.4781  0.0516  1.0662
 9703TIP3    H150600   0.431   2.892   0.161 -0.1167 -0.1476  0.6878
 9703TIP3    H250601   0.395   3.016   0.081 -1.9396  0.8730  2.9846
 9704TIP3   OH250602   3.715   1.751   6.692  0.1937  0.3286  0.0711
 9704TIP3    H150603   3.656   1.690   6.649 -0.6774  1.2551 -0.0784
 9704TIP3    H250604   3.794   1.751   6.638 -0.6621  1.0312 -1.2204
 9705TIP3   OH250605   4.805   3.706  15.215 -0.3880  0.7757  0.3697
 9705TIP3    H150606   4.837   3.778  15.159  0.6962 -0.2494 -0.3875
 9705TIP3    H250607   4.782   3.749  15.297 -1.5344  2.2587 -0.6543
 9706TIP3   OH250608   5.364   6.243   1.845  0.1453 -0.1579  0.0761
 9706TIP3    H150609   5.301   6.194   1.897  1.1403 -1.3190  0.2319
 9706TIP3    H250610   5.436   6.262   1.905  0.4312  0.2130 -0.3736
 9707TIP3   OH250611   0.298   3.008   0.752  0.2260 -0.2596 -0.1678
 9707TIP3    H150612   0.206   3.012   0.778 -0.6185 -0.2702 -2.7968
 9707TIP3    H250613   0.307   2.923   0.708  2.1487 -1.2951  2.0368
 9708TIP3   OH250614   3.835   2.958  15.234 -0.0744 -0.4929 -0.1603
 9708TIP3    H150615   3.745   2.987  15.252 -0.2661 -1.5799  0.7926
 9708TIP3    H250616   3.872   2.941  15.321  0.3350 -2.0927 -0.6181
 9709TIP3   OH250617   6.348   0.006  13.124  0.5830  0.6056  0.3257
 9709TIP3    H150618   6.439   0.034  13.122  0.2135  1.8821  0.6841
 9709TIP3    H250619   6.327  -0.003  13.217  0.5473 -0.4315  0.2319
 9710TIP3   OH250620   4.372   0.318   3.345 -0.2171 -0.1556  0.1407
 9710TIP3    H150621   4.431   0.338   3.418  0.4576 -1.2415 -0.0875
 9710TIP3    H250622   4.400   0.231   3.315 -0.5081  0.2572 -1.3845
 9711TIP3   OH250623   4.051   6.461   1.429  0.1275 -0.2015 -0.3360
 9711TIP3    H150624   4.037   6.374   1.465 -1.0029 -0.0422 -0.3591
 9711TIP3    H250625   4.142   6.481   1.450 -0.2081 -0.4900  1.6225
 9712TIP3   OH250626   2.339   3.309   5.780 -0.3468 -0.1957  0.0795
 9712TIP3    H150627   2.419   3.263   5.758 -0.0230  0.7574 -0.7978
 9712TIP3    H250628   2.368   3.390   5.821 -0.8644  0.0128  0.0415
 9713TIP3   OH250629   2.763   4.252   0.616  0.3247 -0.0191  0.1557
 9713TIP3    H150630   2.798   4.293   0.538 -1.2013  1.2950  0.1082
 9713TIP3    H250631   2.702   4.186   0.583 -1.6317  1.6996  0.1548
 9714TIP3   OH250632   0.637   5.921   2.585 -0.0542  0.1275 -0.7058
 9714TIP3    H150633   0.600   5.846   2.631 -0.8922  0.4981 -0.7687
 9714TIP3    H250634   0.629   5.993   2.647  0.6532  0.1966 -0.6846
 9715TIP3   OH250635   0.299   0.360   0.439 -0.3149  0.2146 -0.4474
 9715TIP3    H150636   0.306   0.372   0.534 -1.1953  0.5536 -0.4187
 9715TIP3    H250637   0.240   0.286   0.428  1.2111 -1.0244 -0.7226
 9716TIP3   OH250638   3.377   3.190  16.642 -0.1200 -0.1029 -0.1729
 9716TIP3    H150639   3.389   3.111  16.695 -0.2027 -1.6126 -2.3046
 9716TIP3    H250640   3.284   3.210  16.649 -0.0203  0.1015  0.7181
 9717TIP3   OH250641   6.120   1.452  10.918 -0.0257 -0.0578  0.1319
 9717TIP3    H150642   6.181   1.490  10.981 -0.5142 -0.1427  0.6745
 9717TIP3    H250643   6.077   1.527  10.878  0.0226 -0.0074  0.1754
 9718TIP3   OH250644   4.993   4.420   4.867  0.5454 -0.5834  0.0225
 9718TIP3    H150645   4.992   4.454   4.778  1.0839 -0.5918  0.0145
 9718TIP3    H250646   5.002   4.497   4.922 -0.1035 -0.5473  0.0906
 9719TIP3   OH250647   3.873   0.185   2.195  0.1605 -0.0255  0.2417
 9719TIP3    H150648   3.879   0.188   2.290  1.7094 -0.3587  0.1805
 9719TIP3    H250649   3.925   0.260   2.165 -2.4486  1.7009 -0.3454
 9720TIP3   OH250650   0.198   5.658  13.744  0.1385  0.9575  0.0626
 9720TIP3    H150651   0.255   5.735  13.743 -0.5188  1.4609  0.5829
 9720TIP3    H250652   0.110   5.693  13.757 -0.1101  0.0880  0.8559
 9721TIP3   OH250653   5.451   1.438   5.239  0.5840 -0.4468  0.6680
 9721TIP3    H150654   5.472   1.392   5.158  1.8490  0.6653  0.3443
 9721TIP3    H250655   5.483   1.380   5.309  0.3010 -0.9945  0.3452
 9722TIP3   OH250656   6.435   3.693  17.292  0.3208  0.0973 -0.1789
 9722TIP3    H150657   6.464   3.639  17.364  2.1595  0.1508 -0.8235
 9722TIP3    H250658   6.407   3.775  17.333  0.4840 -0.2051  0.5450
 9723TIP3   OH250659   6.631   0.378  16.558  0.1138 -0.9056  0.4045
 9723TIP3    H150660   6.712   0.425  16.536 -0.7466  0.8939  0.8286
 9723TIP3    H250661   6.635   0.367  16.653  0.1329 -1.3752  0.3509
 9724TIP3   OH250662   4.940   2.200  15.368 -0.1680  0.3981 -0.0560
 9724TIP3    H150663   5.024   2.171  15.402 -0.9322 -0.7591  0.9011
 9724TIP3    H250664   4.910   2.267  15.431 -0.0108  0.7478 -0.3492
 9725TIP3   OH250665   3.993   1.516   3.502  0.2449 -0.1742  0.4647
 9725TIP3    H150666   3.925   1.469   3.550 -0.0923  0.2237  0.3810
 9725TIP3    H250667   3.950   1.594   3.469  1.0853  0.7967  1.5899
 9726TIP3   OH250668   2.202   0.589   3.029 -0.0785  0.6589  0.1941
 9726TIP3    H150669   2.163   0.648   2.964 -0.7063  0.7099  0.6111
 9726TIP3    H250670   2.268   0.642   3.072  0.3224  0.6352 -0.3808
 9727TIP3   OH250671   6.818   5.994   0.919 -0.3858 -0.1359  0.4511
 9727TIP3    H150672   6.858   5.963   0.838  0.0523 -0.7387  0.8942
 9727TIP3    H250673   6.838   6.087   0.921  1.7912 -0.5765  1.1010
 9728TIP3   OH250674   0.264   6.074   1.128  0.0699 -0.5714  0.3084
 9728TIP3    H150675   0.232   6.159   1.099 -0.5752 -0.9205 -0.0229
 9728TIP3    H250676   0.305   6.036   1.051  0.4853 -0.5064  0.4934
 9729TIP3   OH250677   4.413   0.323   1.866  0.1453  0.6956 -0.0449
 9729TIP3    H150678   4.496   0.350   1.906  1.8617 -2.5251 -1.0782
 9729TIP3    H250679   4.393   0.238   1.905 -2.7114  1.3140  0.0972
 9730TIP3   OH250680   1.525   3.836  13.347 -0.3971 -0.5709 -0.3252
 9730TIP3    H150681   1.469   3.860  13.273 -0.1128  1.8095  0.1375
 9730TIP3    H250682   1.611   3.824  13.308 -0.4453 -0.2877 -0.5293
 9731TIP3   OH250683   3.457   6.123  13.796 -0.2307  0.3731  0.0890
 9731TIP3    H150684   3.522   6.174  13.747 -0.2019 -0.2029 -0.4937
 9731TIP3    H250685   3.422   6.061  13.732  1.2925 -1.8390  1.2479
 9732TIP3   OH250686   4.924   0.143   0.213 -0.3044 -0.0141  0.4491
 9732TIP3    H150687   4.949   0.139   0.121 -4.0474 -0.8365 -0.7141
 9732TIP3    H250688   4.963   0.225   0.245  1.2328  0.2169 -1.7608
 9733TIP3   OH250689   3.952   5.013  16.005 -0.0399  0.0832 -0.2931
 9733TIP3    H150690   3.857   5.015  15.998  0.0040 -1.5478 -2.0217
 9733TIP3    H250691   3.972   4.922  16.027  1.1431  0.3188 -0.3410
 9734TIP3   OH250692   0.372   4.111  15.258  0.1278 -0.3466  0.0311
 9734TIP3    H150693   0.368   4.103  15.354  0.1369 -3.9882 -0.1279
 9734TIP3    H250694   0.457   4.152  15.241  0.0547  0.5175  1.5624
 9735TIP3   OH250695   0.680   4.410   1.191  0.1648  0.5978 -0.2380
 9735TIP3    H150696   0.640   4.496   1.178  0.4185  0.7173 -0.2266
 9735TIP3    H250697   0.675   4.395   1.285 -0.4556  0.3188 -0.3092
 9736TIP3   OH250698   3.106   3.777  11.276 -0.4663 -0.1675 -0.0860
 9736TIP3    H150699   3.141   3.737  11.355 -1.3743 -2.3407 -0.6998
 9736TIP3    H250700   3.055   3.852  11.307 -3.5425 -2.7863  1.8361
 9737TIP3   OH250701   6.310   0.857  14.281  0.0008  0.0592  0.3584
 9737TIP3    H150702   6.335   0.901  14.363  0.5404  0.3743  0.0257
 9737TIP3    H250703   6.348   0.769  14.289 -0.0121  0.0641  0.4799
 9738TIP3   OH250704   0.687   0.831  16.407 -0.0761 -0.0564  0.3828
 9738TIP3    H150705   0.731   0.913  16.384  0.6144 -0.4702  0.2176
 9738TIP3    H250706   0.607   0.859  16.452 -1.3474  0.8137 -2.1644
 9739TIP3   OH250707   1.804   4.983  16.657 -1.0617 -0.3228 -0.2339
 9739TIP3    H150708   1.740   5.051  16.676  0.0015  0.6289  0.0487
 9739TIP3    H250709   1.760   4.924  16.595 -1.7826  0.9639 -0.9685
 9740TIP3   OH250710   3.597   1.758  12.191  0.2626 -0.1596  0.6827
 9740TIP3    H150711   3.615   1.692  12.124  1.4705 -0.6826  1.4675
 9740TIP3    H250712   3.506   1.745  12.215 -0.4351  0.5809 -1.4031
 9741TIP3   OH250713   2.915   3.270   2.728  0.2347 -0.5445  0.0332
 9741TIP3    H150714   2.936   3.247   2.638 -0.3339 -0.5967 -0.0906
 9741TIP3    H250715   2.852   3.204   2.756  1.9718 -1.8042  1.1792
 9742TIP3   OH250716   5.542   2.448   3.875 -0.3870  0.1622 -0.0101
 9742TIP3    H150717   5.574   2.366   3.914  0.4893  1.0702  1.2680
 9742TIP3    H250718   5.538   2.509   3.949 -0.2683  1.4983 -1.0797
 9743TIP3   OH250719   3.301   4.558   0.087 -0.3692  0.0649  0.8197
 9743TIP3    H150720   3.357   4.616   0.139 -0.1098 -0.3628  1.0218
 9743TIP3    H250721   3.344   4.554   0.002  0.1605 -0.6078  1.1041
 9744TIP3   OH250722   4.488   4.851  16.971  0.4397 -0.0344  0.0609
 9744TIP3    H150723   4.439   4.882  17.047  0.6431  0.1471  0.1204
 9744TIP3    H250724   4.423   4.844  16.901  0.3121  0.1142  0.1652
 9745TIP3   OH250725   2.567   5.899   5.580 -0.0773 -0.0165 -0.1363
 9745TIP3    H150726   2.633   5.858   5.525  0.1035  0.8586 -0.5898
 9745TIP3    H250727   2.577   5.857   5.666 -1.9016 -3.1107 -1.2526
 9746TIP3   OH250728   3.837   4.872  11.577 -0.5179 -0.1659  0.2319
 9746TIP3    H150729   3.892   4.795  11.561 -0.2777  0.2526 -1.0593
 9746TIP3    H250730   3.887   4.924  11.640 -0.7118 -1.0798  1.1674
 9747TIP3   OH250731   0.865   3.250   4.664 -0.6825 -0.8366 -0.0702
 9747TIP3    H150732   0.772   3.260   4.684 -0.7203  0.4284 -0.7817
 9747TIP3    H250733   0.890   3.169   4.709 -1.7964 -0.4959  1.2446
 9748TIP3   OH250734   6.788   4.149  14.724  0.0387 -0.1045  0.4012
 9748TIP3    H150735   6.729   4.196  14.783 -0.6526 -0.0797 -0.2802
 9748TIP3    H250736   6.825   4.079  14.777 -0.5698 -0.0818  0.8717
 9749TIP3   OH250737   1.560   1.313   1.948  0.1232  0.1286  0.0974
 9749TIP3    H150738   1.499   1.254   1.903  2.1852 -3.2011  1.2927
 9749TIP3    H250739   1.608   1.355   1.877  0.3338 -1.6456 -0.8922
 9750TIP3   OH250740   1.475   4.828   1.240 -0.1307  0.6165  0.0117
 9750TIP3    H150741   1.488   4.894   1.308  1.5122 -0.2341  0.5663
 9750TIP3    H250742   1.494   4.873   1.158 -0.8147  1.2918  0.2136
 9751TIP3   OH250743   3.517   3.376   5.920 -0.2542  0.2477  0.1376
 9751TIP3    H150744   3.587   3.436   5.944  0.7704 -0.9122  0.1415
 9751TIP3    H250745   3.516   3.378   5.824  0.0585 -0.0311  0.1268
 9752TIP3   OH250746   2.672   5.631  13.696  0.3741  0.4214  0.5698
 9752TIP3    H150747   2.720   5.550  13.714  0.3995  0.7850  2.2831
 9752TIP3    H250748   2.580   5.605  13.695  0.4665  0.0764 -0.7154
 9753TIP3   OH250749   3.676   1.109   3.683  0.5961 -0.1291 -0.2394
 9753TIP3    H150750   3.737   1.108   3.757  0.0781  1.2956  0.2404
 9753TIP3    H250751   3.609   1.044   3.706  0.0002  0.8604  0.9634
 9754TIP3   OH250752   5.596   3.516  14.737 -0.3198  0.3497 -0.1193
 9754TIP3    H150753   5.579   3.611  14.736  0.8362  0.5711 -0.3977
 9754TIP3    H250754   5.691   3.509  14.747 -0.4583 -0.7986  0.5548
 9755TIP3   OH250755   3.445   6.557  11.758 -0.0800  0.0838 -0.5234
 9755TIP3    H150756   3.478   6.569  11.668  0.4462  0.1076 -0.3320
 9755TIP3    H250757   3.387   6.481  11.753 -0.1383  0.1507 -0.9043
 9756TIP3   OH250758   1.906   0.238  11.905  0.1162 -0.7997  0.4363
 9756TIP3    H150759   1.845   0.310  11.889 -0.0301 -1.0618 -0.2064
 9756TIP3    H250760   1.865   0.162  11.863  0.0268 -1.3777  1.5293
 9757TIP3   OH250761   3.436   6.767  12.653 -0.3613 -0.2550 -0.1267
 9757TIP3    H150762   3.521   6.807  12.675 -0.4921 -0.3849  0.6305
 9757TIP3    H250763   3.394   6.832  12.596 -1.5414  1.8969  2.8642
 9758TIP3   OH250764   3.679   0.585   1.826  0.4478  1.0087  0.2809
 9758TIP3    H150765   3.758   0.604   1.876  1.2322 -2.0641  0.4214
 9758TIP3    H250766   3.706   0.595   1.734  1.3577 -0.8879  0.2893
 9759TIP3   OH250767   6.101   1.792   5.285  0.5037 -0.1726 -0.1958
 9759TIP3    H150768   6.143   1.827   5.364  0.3702 -0.2604 -0.0851
 9759TIP3    H250769   6.009   1.818   5.293  0.5741  0.1903 -0.5336
 9760TIP3   OH250770   0.633   2.591   3.736  0.2940 -0.5019  0.3842
 9760TIP3    H150771   0.545   2.565   3.764 -1.3254  1.5801 -2.3080
 9760TIP3    H250772   0.630   2.588   3.640  2.6257  1.2124  0.1664
 9761TIP3   OH250773   0.286   4.260   3.398 -0.0339  0.0107  0.3672
 9761TIP3    H150774   0.224   4.306   3.341  1.0435 -0.1928 -1.0062
 9761TIP3    H250775   0.325   4.329   3.452 -1.1966  0.1772  1.0531
 9762TIP3   OH250776   2.957   4.992   4.646 -0.5753  0.1170  1.1661
 9762TIP3    H150777   3.022   5.060   4.662  0.2467 -0.5499  0.7408
 9762TIP3    H250778   2.898   5.030   4.580 -0.0226  0.3480  0.7997
 9763TIP3   OH250779   2.802   3.772  13.403 -0.6186 -0.3335  0.1564
 9763TIP3    H150780   2.813   3.831  13.477  3.5716 -1.8030  1.0027
 9763TIP3    H250781   2.848   3.815  13.331  2.1834 -2.1931  0.6912
 9764TIP3   OH250782   6.732   6.231   6.903 -0.0646  0.5677  0.0239
 9764TIP3    H150783   6.691   6.287   6.837 -0.7065 -0.4954 -0.5112
 9764TIP3    H250784   6.681   6.244   6.982 -1.3130 -0.5363 -0.5617
 9765TIP3   OH250785   6.132   3.679  10.666  0.5008 -0.5290  0.0852
 9765TIP3    H150786   6.106   3.759  10.711 -1.0031 -1.5426  1.1012
 9765TIP3    H250787   6.207   3.704  10.613 -1.6625  2.2909 -1.9334
 9766TIP3   OH250788   4.482   4.604  15.893  0.3887 -0.7824 -0.3107
 9766TIP3    H150789   4.514   4.679  15.944  0.8560 -0.0380 -1.6595
 9766TIP3    H250790   4.561   4.555  15.872  0.1418 -1.3556  0.0682
 9767TIP3   OH250791   2.206   3.972  11.783 -0.1289  0.5722  0.1133
 9767TIP3    H150792   2.265   3.915  11.734  0.5920 -0.2714  1.8839
 9767TIP3    H250793   2.253   3.991  11.864 -1.5394  1.3791  0.7758
 9768TIP3   OH250794   4.465   1.898  16.215 -0.1163  0.4270 -1.1366
 9768TIP3    H150795   4.446   1.992  16.209 -0.1240  0.6273  1.1833
 9768TIP3    H250796   4.550   1.895  16.261 -0.6645 -0.7015 -0.1639
 9769TIP3   OH250797   4.191   0.896  16.147 -0.0313  0.5742  0.6317
 9769TIP3    H150798   4.109   0.933  16.115 -0.3054 -1.5831 -1.5413
 9769TIP3    H250799   4.258   0.930  16.088  0.2295  0.3647  0.8022
 9770TIP3   OH250800   3.296   1.073   0.976  0.3666 -0.6075 -0.5729
 9770TIP3    H150801   3.212   1.049   1.016  0.6278  0.0329  0.3948
 9770TIP3    H250802   3.342   0.989   0.966 -0.0113 -0.8627 -0.2184
 9771TIP3   OH250803   0.691   2.295  12.861 -0.2820 -0.2812 -0.0516
 9771TIP3    H150804   0.675   2.345  12.941  0.7465 -1.4581  0.9307
 9771TIP3    H250805   0.629   2.222  12.866 -0.9305  0.2102 -0.8560
 9772TIP3   OH250806   3.560   2.717  14.226 -0.1214  0.3828 -0.3935
 9772TIP3    H150807   3.627   2.649  14.217  0.3063  0.6319  0.7582
 9772TIP3    H250808   3.591   2.789  14.170 -0.0140  0.0634 -0.7486
 9773TIP3   OH250809   4.935   0.784   3.841  0.2660  0.2017 -0.1873
 9773TIP3    H150810   4.953   0.811   3.751 -1.0037 -0.2380 -0.5837
 9773TIP3    H250811   4.843   0.805   3.854 -0.5349 -2.9280 -0.1587
 9774TIP3   OH250812   4.220   4.793   3.772 -0.5929  0.6193 -0.4301
 9774TIP3    H150813   4.134   4.750   3.770  0.0765 -0.7637 -0.7701
 9774TIP3    H250814   4.200   4.885   3.757 -1.9925  0.2798 -0.8922
 9775TIP3   OH250815   4.965   1.414  16.246 -0.1208 -0.2444 -0.6044
 9775TIP3    H150816   4.908   1.491  16.242 -0.4658 -0.4331  0.3644
 9775TIP3    H250817   4.987   1.396  16.155  0.7158  1.5338 -0.8008
 9776TIP3   OH250818   2.773   5.006  13.334 -0.4246  0.5110 -0.3691
 9776TIP3    H150819   2.837   5.009  13.263 -0.0035 -1.7064 -0.1507
 9776TIP3    H250820   2.823   4.983  13.412 -1.3807 -0.7412 -0.0901
 9777TIP3   OH250821   2.109   2.055   3.783 -0.4549  0.4465 -0.3456
 9777TIP3    H150822   2.177   2.065   3.849 -1.7742 -2.3366  1.6634
 9777TIP3    H250823   2.044   1.998   3.825 -3.5156  2.0495 -2.5161
 9778TIP3   OH250824   2.055   3.024  14.705 -0.4030  0.2747 -0.4179
 9778TIP3    H150825   2.133   3.079  14.709 -0.6474  0.5857  0.3330
 9778TIP3    H250826   2.085   2.941  14.667  0.1963  0.5387 -0.5235
 9779TIP3   OH250827   4.441   5.014   0.421  0.1259 -0.5079  0.7169
 9779TIP3    H150828   4.479   5.034   0.507 -1.5383 -1.3625  1.7149
 9779TIP3    H250829   4.348   5.033   0.432 -0.3925 -2.2308 -0.3676
 9780TIP3   OH250830   3.631   5.195  12.430 -0.5719 -0.3884 -0.0782
 9780TIP3    H150831   3.584   5.140  12.493 -0.4794  0.8779  1.1662
 9780TIP3    H250832   3.672   5.263  12.484  0.9497 -0.2410 -1.3481
 9781TIP3   OH250833   3.691   1.245  11.370 -0.3371 -0.1124 -0.4648
 9781TIP3    H150834   3.600   1.272  11.365  0.0397  1.1485 -0.8924
 9781TIP3    H250835   3.698   1.171  11.311 -0.8981  0.3579 -1.1309
 9782TIP3   OH250836   2.934   1.946  12.623 -0.2329  0.1516 -0.1551
 9782TIP3    H150837   2.923   1.933  12.529 -1.7027  1.4729 -0.1971
 9782TIP3    H250838   3.010   2.004  12.630  0.8475 -1.1791 -0.4098
 9783TIP3   OH250839   3.913   0.437  17.084 -0.1500 -0.1956  0.2364
 9783TIP3    H150840   3.844   0.374  17.063 -0.8214  0.3881  0.6140
 9783TIP3    H250841   3.994   0.387  17.079 -0.5587 -0.8010 -0.6371
 9784TIP3   OH250842   1.595   1.555   4.550  0.0431  0.3935  0.5787
 9784TIP3    H150843   1.569   1.477   4.600 -0.5191  0.3442  0.2171
 9784TIP3    H250844   1.637   1.612   4.615  1.6191 -0.7307  0.6129
 9785TIP3   OH250845   2.732   3.914  17.005  0.5736  0.1386 -0.7934
 9785TIP3    H150846   2.793   3.982  17.033 -0.0572  1.6303 -2.8467
 9785TIP3    H250847   2.667   3.960  16.952 -1.4666 -1.6473  0.0060
 9786TIP3   OH250848   0.500   4.605  14.865  0.1338  0.2017  0.2666
 9786TIP3    H150849   0.578   4.656  14.843  1.2286 -1.5173 -0.0618
 9786TIP3    H250850   0.529   4.549  14.938 -0.4873 -1.1159 -0.4651
 9787TIP3   OH250851   5.607   4.280  13.443 -0.2728 -0.4794 -0.6103
 9787TIP3    H150852   5.701   4.265  13.439 -0.1153 -0.4580  1.6735
 9787TIP3    H250853   5.596   4.373  13.422  0.2372 -0.4089 -0.5623
 9788TIP3   OH250854   2.055   3.954   0.908  0.3941 -0.1338  0.0163
 9788TIP3    H150855   1.979   3.947   0.849  1.1203  1.0955 -1.1175
 9788TIP3    H250856   2.019   3.938   0.995 -0.8875 -1.0747 -0.6480
 9789TIP3   OH250857   6.556   3.437  11.187 -0.1864 -0.4596  0.1397
 9789TIP3    H150858   6.549   3.437  11.091 -0.1744 -0.1800  0.1384
 9789TIP3    H250859   6.468   3.414  11.217 -0.5346  0.7342  0.0797
 9790TIP3   OH250860   6.734   4.735   3.829 -0.4755 -0.2503 -0.3241
 9790TIP3    H150861   6.731   4.752   3.923  0.1699  2.3328 -0.6867
 9790TIP3    H250862   6.827   4.740   3.806 -0.6248 -0.8446 -1.1155
 9791TIP3   OH250863   5.131   5.028   2.944  0.6945 -0.2293  0.6647
 9791TIP3    H150864   5.137   5.068   3.031 -1.6210  0.5290  0.5431
 9791TIP3    H250865   5.185   4.949   2.950  0.8069 -0.0442  2.7201
 9792TIP3   OH250866   3.682   5.984  16.336 -0.0584 -0.1041 -0.2696
 9792TIP3    H150867   3.631   5.906  16.358 -0.0712 -0.3061 -0.9858
 9792TIP3    H250868   3.773   5.956  16.342  0.2512  1.1257  4.4639
 9793TIP3   OH250869   0.638   5.665   6.764  0.0324  0.1344  0.7449
 9793TIP3    H150870   0.573   5.595   6.755  1.0273 -0.6330 -0.9899
 9793TIP3    H250871   0.616   5.727   6.694 -0.2999  1.1356  1.7109
 9794TIP3   OH250872   1.351   0.783   3.579 -0.3614  0.9985  0.4790
 9794TIP3    H150873   1.299   0.809   3.503  0.5785  0.4762 -0.3689
 9794TIP3    H250874   1.404   0.860   3.601  0.5703  0.6475 -0.4484
 9795TIP3   OH250875   2.859   2.001   1.485  0.0532  0.1299  0.2779
 9795TIP3    H150876   2.799   2.009   1.560  2.2176 -0.4662  2.1856
 9795TIP3    H250877   2.872   2.090   1.455 -0.2680  0.4753  1.1164
 9796TIP3   OH250878   0.690   5.643   0.237 -0.3870 -0.3210 -0.2857
 9796TIP3    H150879   0.664   5.638   0.329 -1.9498  0.6317 -0.6389
 9796TIP3    H250880   0.775   5.686   0.239 -0.3728 -0.3543  0.7135
 9797TIP3   OH250881   2.245   5.747   1.539  0.4009  0.0535  0.2882
 9797TIP3    H150882   2.307   5.803   1.492 -0.4362  2.3671  1.7605
 9797TIP3    H250883   2.298   5.701   1.604  0.6619  2.1184  1.6409
 9798TIP3   OH250884   4.940   1.393   5.992  0.2373  0.1477 -0.5889
 9798TIP3    H150885   5.028   1.354   5.990  0.2289  0.1455 -1.1824
 9798TIP3    H250886   4.950   1.477   5.947  0.1480  0.6160  0.2489
 9799TIP3   OH250887   4.636   5.566   5.590  0.1708 -0.0053  0.1506
 9799TIP3    H150888   4.704   5.528   5.535  0.6444  0.1668  0.6041
 9799TIP3    H250889   4.589   5.626   5.533  0.1917 -0.3678 -0.2518
 9800TIP3   OH250890   0.489   2.601   1.801 -0.1541  0.1588  0.9256
 9800TIP3    H150891   0.518   2.611   1.891  1.2907 -0.8157  0.6183
 9800TIP3    H250892   0.449   2.684   1.778 -0.4034  0.4603  2.4116
 9801TIP3   OH250893   1.984   5.247  10.564  0.1739 -0.9847  0.9935
 9801TIP3    H150894   2.066   5.204  10.587  0.2030 -0.9941  0.8716
 9801TIP3    H250895   1.920   5.210  10.625  0.3985 -0.4547  1.5548
 9802TIP3   OH250896   5.176   1.270   5.932 -0.1232 -0.3072  0.2979
 9802TIP3    H150897   5.165   1.288   5.839 -0.5074  1.4961  0.6548
 9802TIP3    H250898   5.225   1.188   5.935  1.5236  0.5356 -1.5077
 9803TIP3   OH250899   1.179   1.573  17.096 -1.2247  0.5051 -0.5274
 9803TIP3    H150900   1.178   1.540  17.186 -1.0959  0.6388 -0.4778
 9803TIP3    H250901   1.198   1.496  17.042 -1.1915  0.4479 -0.4331
 9804TIP3   OH250902   4.163   0.684  16.314 -0.6443  0.0770  0.4125
 9804TIP3    H150903   4.144   0.777  16.302  0.3615  0.4356  1.3486
 9804TIP3    H250904   4.088   0.650  16.363 -0.4313  0.7165  1.2175
 9805TIP3   OH250905   3.848   0.576   5.890 -0.3512 -0.0354 -0.2623
 9805TIP3    H150906   3.898   0.591   5.809  1.0611  0.0974  0.6023
 9805TIP3    H250907   3.873   0.488   5.917  0.4888  0.5534  0.9161
 9806TIP3   OH250908   2.059   2.180  11.193  0.1551  0.0702  0.4245
 9806TIP3    H150909   2.024   2.260  11.231 -1.2071  0.0326 -0.6813
 9806TIP3    H250910   2.012   2.169  11.111 -1.2582 -2.9258  1.4555
 9807TIP3   OH250911   6.062   3.666  13.608 -0.2952  0.6035 -0.1344
 9807TIP3    H150912   6.015   3.629  13.683 -0.5902  0.8961 -0.1743
 9807TIP3    H250913   6.059   3.760  13.621  0.8028  0.6151  0.1736
 9808TIP3   OH250914   6.225   3.834   6.000 -0.4875 -0.6260 -0.2929
 9808TIP3    H150915   6.189   3.917   6.030 -1.7399 -0.5849 -1.8045
 9808TIP3    H250916   6.151   3.774   6.001 -0.4767 -0.7524 -2.7025
 9809TIP3   OH250917   2.534   4.474   5.966 -0.2644 -0.2734 -0.4184
 9809TIP3    H150918   2.612   4.486   5.911  0.2896  0.7007  0.5391
 9809TIP3    H250919   2.475   4.422   5.912  0.5061  0.1171 -1.6940
 9810TIP3   OH250920   6.680   1.336  11.537 -0.5156 -0.4049 -0.5497
 9810TIP3    H150921   6.692   1.429  11.555 -1.1389 -0.5296  0.6060
 9810TIP3    H250922   6.768   1.299  11.546 -0.4455 -0.1003  0.1204
 9811TIP3   OH250923   3.699   5.269   3.269  0.3011 -0.0853 -0.2166
 9811TIP3    H150924   3.757   5.218   3.326  0.8173  0.2816 -0.4118
 9811TIP3    H250925   3.754   5.339   3.235  0.2808 -0.8600 -1.9512
 9812TIP3   OH250926   6.651   1.046   1.446 -0.0053  0.1326  0.2789
 9812TIP3    H150927   6.681   1.136   1.432 -2.6241  1.1584  0.7646
 9812TIP3    H250928   6.717   0.992   1.403  1.1439  2.3204 -0.8710
 9813TIP3   OH250929   1.494   1.437  10.893 -0.5213 -0.2294  0.0212
 9813TIP3    H150930   1.516   1.427  10.801 -1.7012 -0.2992 -0.2669
 9813TIP3    H250931   1.413   1.489  10.893 -0.9216 -0.8122  0.9687
 9814TIP3   OH250932   3.928   6.289   4.380 -0.1228 -0.0800 -0.1302
 9814TIP3    H150933   3.888   6.279   4.466 -1.2305 -0.0117 -0.6146
 9814TIP3    H250934   3.890   6.218   4.327 -0.6297  0.7764 -0.9556
 9815TIP3   OH250935   4.485   6.430  14.577  1.0049  0.0429  0.3298
 9815TIP3    H150936   4.390   6.431  14.579  0.9346  2.4244 -0.5936
 9815TIP3    H250937   4.507   6.366  14.509 -0.0035  0.3703 -0.3368
 9816TIP3   OH250938   0.254   5.789   1.878  0.2410 -0.2145  0.6741
 9816TIP3    H150939   0.186   5.783   1.945 -0.9900  2.8043 -0.1289
 9816TIP3    H250940   0.335   5.770   1.925 -0.7945 -0.4747  2.4616
 9817TIP3   OH250941   4.021   4.742  17.141  0.1341  0.4140 -0.2831
 9817TIP3    H150942   4.050   4.654  17.164  1.6989  0.9021 -0.2764
 9817TIP3    H250943   4.055   4.798  17.211 -0.7556  1.0568 -0.3355
 9818TIP3   OH250944   4.478   2.240   6.501 -0.4564 -0.7626  0.3523
 9818TIP3    H150945   4.528   2.184   6.442  1.7434  1.6548 -0.2953
 9818TIP3    H250946   4.413   2.282   6.444  1.0605  0.8645 -0.2983
 9819TIP3   OH250947   2.400   1.866  15.080 -0.5946 -0.3304 -0.7058
 9819TIP3    H150948   2.383   1.833  14.992  0.3650  0.5804 -1.2544
 9819TIP3    H250949   2.333   1.933  15.093  0.5783  1.1003 -1.6574
 9820TIP3   OH250950   4.175   1.115  13.293  0.0363  0.2888  0.5725
 9820TIP3    H150951   4.207   1.157  13.214  0.0050 -1.8307 -0.6312
 9820TIP3    H250952   4.101   1.170  13.321 -0.3359  0.7499 -1.2020
 9821TIP3   OH250953   4.616   6.738   3.509  0.3032  0.3348 -0.1104
 9821TIP3    H150954   4.675   6.732   3.584 -0.3712 -1.5963  0.3256
 9821TIP3    H250955   4.531   6.712   3.545 -0.3362  0.7889 -1.2516
 9822TIP3   OH250956   2.005   0.369   1.950 -0.7923 -0.3133 -0.3119
 9822TIP3    H150957   1.993   0.358   1.856  0.6654 -0.1830 -0.5313
 9822TIP3    H250958   1.989   0.282   1.987 -1.1315 -0.4175 -0.6979
 9823TIP3   OH250959   5.159   2.518   2.444  0.2232  0.3773 -0.0652
 9823TIP3    H150960   5.094   2.548   2.507 -0.1349 -0.3698 -0.0634
 9823TIP3    H250961   5.238   2.501   2.495  0.2906  0.8778 -0.0012
 9824TIP3   OH250962   2.418   2.955   3.010 -0.2182 -0.4692 -0.3279
 9824TIP3    H150963   2.511   2.973   3.000 -0.1830  1.3821  2.2996
 9824TIP3    H250964   2.382   2.963   2.922  1.9915 -0.6700 -1.3115
 9825TIP3   OH250965   0.613   5.169   3.171  0.1899  0.1007 -0.3632
 9825TIP3    H150966   0.562   5.117   3.109 -0.5891 -0.9691  1.1207
 9825TIP3    H250967   0.594   5.131   3.256  1.3296  1.4498  0.5445
 9826TIP3   OH250968   2.677   4.794   5.129 -0.1562 -0.8594 -0.2148
 9826TIP3    H150969   2.727   4.816   5.051  0.4092  0.4097  0.4785
 9826TIP3    H250970   2.588   4.820   5.109  0.1189  0.1213 -0.1916
 9827TIP3   OH250971   4.991   6.804   3.256  0.0538 -0.3676 -0.2720
 9827TIP3    H150972   5.019   6.732   3.312  1.8609 -1.0592 -1.9341
 9827TIP3    H250973   5.072   6.851   3.235 -0.8317  1.0333 -0.7535
 9828TIP3   OH250974   6.684   3.510  11.699  0.5284  0.0369  0.3320
 9828TIP3    H150975   6.635   3.428  11.694 -1.5236  1.1594  0.4254
 9828TIP3    H250976   6.723   3.520  11.612 -0.2690 -0.4489 -0.1038
 9829TIP3   OH250977   4.913   3.296  12.596 -1.0485  0.0366  0.3439
 9829TIP3    H150978   4.850   3.261  12.659 -0.6441  1.0103  1.3245
 9829TIP3    H250979   4.963   3.220  12.567 -3.4745 -0.9893 -1.4595
 9830TIP3   OH250980   0.253   3.674   0.672 -0.0025  1.0075  0.6276
 9830TIP3    H150981   0.318   3.644   0.609  0.1642 -1.1193  1.7334
 9830TIP3    H250982   0.182   3.710   0.618  1.0545  1.2225 -0.6645
 9831TIP3   OH250983   0.677   1.738  16.500  0.1909  0.4755  0.3914
 9831TIP3    H150984   0.586   1.711  16.489 -0.4533  1.9769  1.6216
 9831TIP3    H250985   0.686   1.815  16.443 -0.3754  2.3998  2.7255
 9832TIP3   OH250986   0.262   5.362  17.219 -0.5486  0.4900 -0.2483
 9832TIP3    H150987   0.281   5.432  17.156  0.7210 -0.1178 -0.5767
 9832TIP3    H250988   0.343   5.310  17.222 -1.2544 -0.6069  0.4486
 9833TIP3   OH250989   0.278   6.459   2.243 -0.2326  0.1628  0.0755
 9833TIP3    H150990   0.267   6.491   2.333 -2.2813 -0.2089  0.0134
 9833TIP3    H250991   0.221   6.516   2.191  0.0484 -0.3529 -0.8087
 9834TIP3   OH250992   0.038   0.848  16.295 -0.1178 -0.1389  0.5399
 9834TIP3    H150993   0.090   0.891  16.363 -2.7318  1.0257  1.9387
 9834TIP3    H250994  -0.024   0.793  16.343 -1.9285  0.5783 -0.8584
 9835TIP3   OH250995   6.253   1.360   4.248 -0.0470 -0.4685  0.1665
 9835TIP3    H150996   6.224   1.355   4.157  1.4780 -2.1918 -0.2962
 9835TIP3    H250997   6.249   1.269   4.279 -0.1448  0.0299  1.7009
 9836TIP3   OH250998   0.178   1.792  14.917 -0.7003 -0.4803 -0.2755
 9836TIP3    H150999   0.122   1.746  14.854  0.1715 -1.9034 -0.0559
 9836TIP3    H251000   0.152   1.756  15.002 -0.6108  0.1013  0.0022
 9837TIP3   OH251001   0.961   3.334  12.314  0.0539  0.2949 -0.3782
 9837TIP3    H151002   0.987   3.347  12.406 -2.7405  3.2022  0.1686
 9837TIP3    H251003   0.932   3.420  12.285  0.8371 -0.5150 -4.0980
 9838TIP3   OH251004   4.963   6.045   1.605 -0.1083 -0.0897 -0.2147
 9838TIP3    H151005   4.921   6.000   1.532 -1.3358  1.0753 -0.2777
 9838TIP3    H251006   4.986   6.131   1.570  0.9450 -0.1501  0.2793
 9839TIP3   OH251007   1.373   0.840  15.818  0.4672 -0.5113  0.5505
 9839TIP3    H151008   1.366   0.889  15.900 -0.1714  0.2691  0.0615
 9839TIP3    H251009   1.396   0.906  15.753 -1.4122 -0.6220 -0.3148
 9840TIP3   OH251010   0.628   1.591   1.915  0.3884  0.0111  0.5741
 9840TIP3    H151011   0.659   1.510   1.954  1.2218 -1.0344 -2.0372
 9840TIP3    H251012   0.690   1.657   1.943  2.6827 -1.2568 -1.1681
 9841TIP3   OH251013   6.143   6.771   5.748  0.5003  0.6234 -0.4170
 9841TIP3    H151014   6.212   6.725   5.796  0.3341 -1.0736 -1.6923
 9841TIP3    H251015   6.169   6.863   5.750  2.1069  0.1815  0.2399
 9842TIP3   OH251016   4.144   1.923   6.346  0.1590  0.7459 -0.4150
 9842TIP3    H151017   4.234   1.955   6.344  0.6098 -0.4986 -1.9633
 9842TIP3    H251018   4.152   1.830   6.367 -0.7637  0.6180 -0.5861
 9843TIP3   OH251019   0.873   2.006  14.832  0.1904  0.3531  0.4804
 9843TIP3    H151020   0.786   1.970  14.848 -0.6813  2.2885  0.4042
 9843TIP3    H251021   0.933   1.932  14.845 -1.3852 -0.8268  1.3460
 9844TIP3   OH251022   5.132   1.744   2.371 -1.0564 -0.2329 -0.1629
 9844TIP3    H151023   5.126   1.834   2.403  0.0603  0.2013 -1.1155
 9844TIP3    H251024   5.133   1.752   2.275 -1.6177 -1.3099 -0.2807
 9845TIP3   OH251025   0.769   3.661   4.543 -0.0897 -0.5118  0.2201
 9845TIP3    H151026   0.800   3.684   4.630  0.6979  0.2553 -0.2539
 9845TIP3    H251027   0.679   3.631   4.557  0.1954 -0.8898  1.3528
 9846TIP3   OH251028   6.336   1.560  11.047  0.4674  0.2325 -0.0864
 9846TIP3    H151029   6.355   1.602  11.131  2.6313  1.8018 -1.2571
 9846TIP3    H251030   6.420   1.559  11.002 -0.8320  0.4235 -2.6757
 9847TIP3   OH251031   6.732   0.752   4.262  0.5030 -0.0308 -0.0873
 9847TIP3    H151032   6.826   0.743   4.244  0.4764  1.7815 -1.4196
 9847TIP3    H251033   6.728   0.825   4.325  0.0398 -0.8733  0.8799
 9848TIP3   OH251034   4.002   6.417   3.111 -0.1209 -0.4461 -0.2569
 9848TIP3    H151035   4.064   6.489   3.112 -2.2085  1.4580 -0.6954
 9848TIP3    H251036   4.009   6.380   3.023 -0.4720  0.5824 -0.7350
 9849TIP3   OH251037   1.724   4.871  15.754 -0.0139  0.2630  0.2483
 9849TIP3    H151038   1.681   4.834  15.831 -0.2873 -1.2727 -0.5946
 9849TIP3    H251039   1.702   4.964  15.756 -1.8473 -0.1409  0.8327
 9850TIP3   OH251040   1.926   4.682   2.887 -0.1924  0.0347 -0.5721
 9850TIP3    H151041   1.969   4.608   2.845 -0.1172 -1.2759  1.6821
 9850TIP3    H251042   1.877   4.725   2.816 -0.1849 -2.1134 -1.9548
 9851TIP3   OH251043   4.249   5.106   0.726 -0.5196  0.0664 -0.0085
 9851TIP3    H151044   4.341   5.108   0.699  0.3862 -1.2544  2.5837
 9851TIP3    H251045   4.232   5.195   0.758 -0.4866  0.5789 -1.3269
 9852TIP3   OH251046   6.733   0.446  14.558 -0.9531 -0.1281  0.0693
 9852TIP3    H151047   6.744   0.357  14.589 -2.3493  0.0234  1.0940
 9852TIP3    H251048   6.785   0.500  14.617 -2.2940 -0.0144  1.2065
 9853TIP3   OH251049   2.280   2.069   0.749  0.0572 -0.3770  0.0080
 9853TIP3    H151050   2.354   2.114   0.790 -0.8394  0.0602  1.1948
 9853TIP3    H251051   2.260   2.122   0.672  0.7542 -0.2977 -0.1219
 9854TIP3   OH251052   5.957   4.630  13.661 -0.2514 -0.1623 -0.3159
 9854TIP3    H151053   6.031   4.583  13.622  1.3552  1.0711  1.0804
 9854TIP3    H251054   5.986   4.721  13.666 -1.4631  0.1886  1.1858
 9855TIP3   OH251055   6.237   6.296   4.176  0.1778 -0.1223  0.3544
 9855TIP3    H151056   6.283   6.374   4.207  1.8355 -1.1779  0.6926
 9855TIP3    H251057   6.207   6.253   4.256 -1.5010  0.5648  0.1360
 9856TIP3   OH251058   0.911   5.353   3.710  0.4654 -0.4902 -0.0725
 9856TIP3    H151059   0.979   5.296   3.746  0.7264  0.9167  1.8213
 9856TIP3    H251060   0.850   5.293   3.667  0.9671 -2.1590  1.4140
 9857TIP3   OH251061   3.884   2.609  13.469 -0.6498 -0.1070 -0.2192
 9857TIP3    H151062   3.943   2.647  13.404  1.2661 -1.4379  0.6685
 9857TIP3    H251063   3.854   2.684  13.520  0.0108  0.6284 -0.8832
 9858TIP3   OH251064   3.625   5.579  12.829  0.5866 -0.1859 -0.1304
 9858TIP3    H151065   3.713   5.611  12.849  0.4904  0.4981 -0.7773
 9858TIP3    H251066   3.567   5.630  12.884  0.5287 -0.0728 -0.2955
 9859TIP3   OH251067   2.782   5.054  12.768 -0.3744  0.0610  0.0734
 9859TIP3    H151068   2.691   5.056  12.739 -0.7382 -0.2630  1.1678
 9859TIP3    H251069   2.800   4.961  12.785  0.8824 -0.2141 -2.2842
 9860TIP3   OH251070   0.116   4.581  16.467 -0.1276  0.5506  0.0171
 9860TIP3    H151071   0.051   4.513  16.450 -0.9378  1.2966  0.0595
 9860TIP3    H251072   0.125   4.627  16.384 -2.1179  2.5178  0.8027
 9861TIP3   OH251073   2.278   3.740  13.227 -0.4923 -0.2918 -0.8373
 9861TIP3    H151074   2.208   3.709  13.285 -1.2879 -0.0375 -1.6382
 9861TIP3    H251075   2.358   3.729  13.278 -1.1922  0.1215  0.3841
 9862TIP3   OH251076   5.418   6.684  12.649  0.7144 -0.9658  0.4417
 9862TIP3    H151077   5.457   6.689  12.736 -0.1472 -2.8573  0.9762
 9862TIP3    H251078   5.423   6.592  12.625  1.3136 -0.4365 -1.7303
 9863TIP3   OH251079   6.795   0.796   0.871 -0.0427  0.3977 -0.1300
 9863TIP3    H151080   6.712   0.828   0.907  0.2907  1.7007 -0.4741
 9863TIP3    H251081   6.807   0.710   0.912 -0.9750  0.6963  0.8212
 9864TIP3   OH251082   5.004   2.682  11.018  0.1172 -0.4704 -0.0765
 9864TIP3    H151083   5.029   2.774  11.027  1.7719 -0.7790 -1.0532
 9864TIP3    H251084   4.909   2.682  11.028  0.2603  1.0407  2.0662
 9865TIP3   OH251085   6.257   5.117   5.783 -0.0078 -0.1046  0.6786
 9865TIP3    H151086   6.210   5.160   5.712 -0.0560  1.1568  1.4407
 9865TIP3    H251087   6.349   5.129   5.762  0.0100 -1.5413 -0.2037
 9866TIP3   OH251088   0.766   3.786  12.322 -0.0655 -0.3698  0.1014
 9866TIP3    H151089   0.781   3.694  12.341  0.9058  0.0013  1.2679
 9866TIP3    H251090   0.724   3.820  12.402 -0.3218  0.2211 -0.2762
 9867TIP3   OH251091   2.066   3.673  10.833  0.3825 -0.0177 -0.3638
 9867TIP3    H151092   2.028   3.633  10.755 -3.3965  0.8716  0.8232
 9867TIP3    H251093   2.009   3.644  10.905  2.8165  0.4075  1.8746
 9868TIP3   OH251094   6.448   5.550  13.327  0.6717 -0.3770  0.0810
 9868TIP3    H151095   6.373   5.572  13.271  1.0595 -0.3090 -0.4152
 9868TIP3    H251096   6.412   5.552  13.416  0.0743 -0.3789 -0.1526
 9869TIP3   OH251097   3.386   5.866   4.289  0.1324 -0.0568  0.5443
 9869TIP3    H151098   3.326   5.843   4.360 -0.5653 -1.1743 -0.3751
 9869TIP3    H251099   3.345   5.830   4.210  1.9465 -0.7721 -0.1371
 9870TIP3   OH251100   3.689   4.798  11.890 -0.2448  1.0176  0.7024
 9870TIP3    H151101   3.617   4.784  11.953  0.3523 -2.8098  0.8080
 9870TIP3    H251102   3.648   4.786  11.805 -0.0822  0.8225  0.6525
 9871TIP3   OH251103   2.401   0.237   1.494  0.1534  0.0822  0.0541
 9871TIP3    H151104   2.444   0.162   1.535  1.7262  1.1878  0.5399
 9871TIP3    H251105   2.372   0.291   1.567  0.8852  0.9301 -0.2619
 9872TIP3   OH251106   5.766   6.785  12.810  0.5789  0.1868 -0.1354
 9872TIP3    H151107   5.781   6.826  12.725  1.5826  1.8533  0.7879
 9872TIP3    H251108   5.676   6.809  12.832  1.4257  2.8926  0.8049
 9873TIP3   OH251109   1.435   4.539   1.015  0.1035 -0.2229  0.1454
 9873TIP3    H151110   1.396   4.486   1.084  0.7660 -0.5581  0.2643
 9873TIP3    H251111   1.506   4.586   1.057  0.9442 -0.9349 -0.4413
 9874TIP3   OH251112   4.553   3.895  11.810  0.2098  0.0393 -0.0009
 9874TIP3    H151113   4.598   3.811  11.815  0.2275 -0.0799 -1.7664
 9874TIP3    H251114   4.465   3.876  11.842 -0.1172 -0.9239 -1.3940
 9875TIP3   OH251115   4.366   5.727   4.774 -0.5162  0.9830 -0.3914
 9875TIP3    H151116   4.306   5.655   4.793 -0.1318  0.3228 -1.5993
 9875TIP3    H251117   4.388   5.763   4.860  1.9210 -2.5038  0.6569
 9876TIP3   OH251118   6.628   6.166   4.634 -0.6609 -0.0675 -0.0986
 9876TIP3    H151119   6.545   6.191   4.594 -1.2648  1.2696  1.8323
 9876TIP3    H251120   6.689   6.159   4.561 -1.7944  1.7548 -1.2952
 9877TIP3   OH251121   2.445   2.138   2.210  0.2227 -0.2321 -0.3084
 9877TIP3    H151122   2.505   2.207   2.238 -0.4443  0.0838  0.4068
 9877TIP3    H251123   2.412   2.102   2.293 -2.6012  1.4024 -0.6075
 9878TIP3   OH251124   0.574   6.142  12.618  0.2856  0.6312 -0.4693
 9878TIP3    H151125   0.483   6.139  12.647  0.1523  0.4873 -0.8868
 9878TIP3    H251126   0.611   6.218  12.663 -0.3060  1.2636 -1.0134
 9879TIP3   OH251127   3.555   5.480  11.217  0.0810  0.3116 -0.0011
 9879TIP3    H151128   3.619   5.518  11.157  0.0143  1.2266  0.4828
 9879TIP3    H251129   3.541   5.548  11.284 -0.8810 -0.1334  0.2796
 9880TIP3   OH251130   2.245   6.545  13.974 -0.5267 -0.4575  0.0393
 9880TIP3    H151131   2.308   6.483  13.936 -0.6507 -0.3365 -0.3713
 9880TIP3    H251132   2.181   6.489  14.019 -0.6025 -0.6312 -0.2760
 9881TIP3   OH251133   6.564   4.521  14.362 -0.3590  0.5917 -0.2552
 9881TIP3    H151134   6.524   4.606  14.383 -1.9328  0.1249 -1.1867
 9881TIP3    H251135   6.653   4.528  14.395 -0.6373  2.3852  0.2420
 9882TIP3   OH251136   1.092   5.935  14.272  0.4068  0.2235  0.7485
 9882TIP3    H151137   1.002   5.903  14.278 -0.2203  1.6567 -0.3010
 9882TIP3    H251138   1.082   6.026  14.244  2.2320 -0.1234 -1.2871
 9883TIP3   OH251139   6.411   6.579   6.092  0.8230  0.1109  0.4960
 9883TIP3    H151140   6.352   6.558   6.165 -0.2969 -0.7063 -0.6010
 9883TIP3    H251141   6.497   6.584   6.133  0.2596 -0.5152  1.8577
 9884TIP3   OH251142   6.414   6.047  11.931 -0.1186  0.4351  0.6416
 9884TIP3    H151143   6.337   5.991  11.920 -0.7833  1.2276  1.1605
 9884TIP3    H251144   6.419   6.097  11.849 -0.1117  0.3293  0.5772
 9885TIP3   OH251145   3.537   0.862   3.637  0.5261 -0.1322 -0.2547
 9885TIP3    H151146   3.618   0.841   3.590  0.9930 -0.4038  0.6434
 9885TIP3    H251147   3.474   0.883   3.568  1.5222  0.6860 -0.9573
 9886TIP3   OH251148   5.962   3.354  15.183 -0.2814 -0.6083 -0.4246
 9886TIP3    H151149   6.010   3.320  15.107 -0.4088  0.7106 -1.1244
 9886TIP3    H251150   5.891   3.292  15.196 -1.0753 -0.1510 -2.2751
 9887TIP3   OH251151   3.768   3.422  11.459  0.5868 -0.0951 -0.3805
 9887TIP3    H151152   3.713   3.437  11.535 -2.1960 -2.5702 -1.6659
 9887TIP3    H251153   3.788   3.509  11.425 -2.5894  1.0030  0.2562
 9888TIP3   OH251154   0.247   0.387   1.872  0.2424 -0.7957  0.7879
 9888TIP3    H151155   0.187   0.321   1.908  0.6138 -1.6838 -0.1524
 9888TIP3    H251156   0.325   0.380   1.926 -0.6268  0.6976  2.3223
 9889TIP3   OH251157   4.356   2.921  12.391 -0.0019 -0.1802  0.1091
 9889TIP3    H151158   4.278   2.917  12.448 -0.9779 -0.1207 -1.1754
 9889TIP3    H251159   4.322   2.901  12.304  1.3469  0.4162 -0.5664
 9890TIP3   OH251160   4.888   2.984   6.180 -0.0913  0.6314  0.2483
 9890TIP3    H151161   4.893   3.079   6.195  1.2175  1.0240 -2.1475
 9890TIP3    H251162   4.825   2.974   6.109  0.2388 -0.2278  0.0620
 9891TIP3   OH251163   4.738   4.038   5.908 -0.3970 -0.0004 -0.0243
 9891TIP3    H151164   4.734   3.953   5.865  3.5003 -0.3316 -0.1143
 9891TIP3    H251165   4.718   4.019   6.000 -0.5913 -0.8089 -0.2239
 9892TIP3   OH251166   6.381   4.494  15.003  0.0439 -0.2813  0.1748
 9892TIP3    H151167   6.346   4.424  14.947  1.6279  0.3503 -1.7389
 9892TIP3    H251168   6.470   4.465  15.024  0.3580  0.6841  0.2122
 9893TIP3   OH251169   6.052   1.634   0.667  0.2761  0.0039 -0.0342
 9893TIP3    H151170   6.122   1.625   0.731  1.3071  1.2332 -0.9431
 9893TIP3    H251171   6.072   1.568   0.600  0.7390  0.5364 -0.4297
 9894TIP3   OH251172   4.327   0.224   1.631 -0.2174  0.3537  0.2131
 9894TIP3    H151173   4.290   0.303   1.592 -0.5239 -0.7453 -1.9297
 9894TIP3    H251174   4.352   0.249   1.719 -0.3510  2.8193 -0.3831
 9895TIP3   OH251175   5.644   2.241   6.098 -0.3097 -0.5152  0.5201
 9895TIP3    H151176   5.706   2.264   6.168  0.4780 -0.4775 -0.1751
 9895TIP3    H251177   5.693   2.183   6.041 -0.6776  0.0970 -0.4379
 9896TIP3   OH251178   3.738   2.917  14.119  0.2679 -0.2462  0.3884
 9896TIP3    H151179   3.788   2.997  14.103  0.1940 -0.3840 -0.6095
 9896TIP3    H251180   3.792   2.868  14.181  0.0613  0.7941  1.4268
 9897TIP3   OH251181   1.740   6.481  12.244 -0.1246  0.1588 -0.2567
 9897TIP3    H151182   1.832   6.457  12.258 -0.0389  0.1543 -0.8002
 9897TIP3    H251183   1.695   6.454  12.324  0.1073 -1.0859 -0.5221
 9898TIP3   OH251184   0.167   5.748   4.532 -0.0276  0.3613  0.2421
 9898TIP3    H151185   0.100   5.745   4.601 -1.4360 -0.4393 -1.1074
 9898TIP3    H251186   0.157   5.665   4.485  0.2337  1.2779 -1.5236
 9899TIP3   OH251187   2.238   1.905   1.861 -0.1391 -0.3439 -0.8209
 9899TIP3    H151188   2.244   1.909   1.765 -0.5218  0.3342 -0.8239
 9899TIP3    H251189   2.264   1.993   1.890 -0.2832 -0.4654 -0.3199
 9900TIP3   OH251190   0.801   6.611   5.492  0.5832 -0.1581 -0.1675
 9900TIP3    H151191   0.803   6.702   5.462 -0.5360 -0.1289 -0.1858
 9900TIP3    H251192   0.716   6.577   5.463  1.1050 -1.3090 -0.4265
 9901TIP3   OH251193   0.239   6.051   5.489 -0.8814  0.3393 -0.2145
 9901TIP3    H151194   0.306   5.991   5.522 -1.6543  0.2669  1.2856
 9901TIP3    H251195   0.266   6.137   5.522 -2.1931  0.1259  1.5963
 9902TIP3   OH251196   0.804   0.129  11.930  0.1025 -0.5211  0.3542
 9902TIP3    H151197   0.758   0.047  11.951  0.3763 -0.5070  1.0272
 9902TIP3    H251198   0.893   0.102  11.910 -0.1617 -0.5397 -0.8846
 9903TIP3   OH251199   6.069   2.095   4.439 -0.1135 -0.0674  0.1504
 9903TIP3    H151200   6.055   2.019   4.495 -0.0251 -1.0652 -1.1223
 9903TIP3    H251201   6.161   2.087   4.411  0.6652  1.8646  1.8880
 9904TIP3   OH251202   2.684   4.992   6.245 -0.0028  0.7373  0.5272
 9904TIP3    H151203   2.673   4.904   6.281 -1.3243  0.6184 -0.1332
 9904TIP3    H251204   2.654   5.050   6.315  1.1583  0.7132  1.0829
 9905TIP3   OH251205   0.215   2.945   3.872  0.2788  0.1777 -0.2712
 9905TIP3    H151206   0.225   2.906   3.786 -0.0287 -1.4341  0.3870
 9905TIP3    H251207   0.122   2.936   3.892  0.4249  0.1200  0.4055
 9906TIP3   OH251208   4.486   0.130   4.463 -0.1785  0.5500  0.2822
 9906TIP3    H151209   4.415   0.122   4.527  1.3966  0.6272  2.1283
 9906TIP3    H251210   4.551   0.066   4.491 -0.8198 -1.9580 -3.3171
 9907TIP3   OH251211   0.808   3.952  13.149  0.8660  0.5914  0.1007
 9907TIP3    H151212   0.747   3.970  13.078  0.3087 -1.5816 -0.0362
 9907TIP3    H251213   0.892   3.934  13.105  0.2826 -1.7990 -0.1811
 9908TIP3   OH251214   0.013   5.469  13.518  0.3326  0.4563 -0.0872
 9908TIP3    H151215  -0.070   5.422  13.518 -0.7599  2.1967 -1.6184
 9908TIP3    H251216   0.077   5.407  13.551 -1.5170 -1.0531  0.8393
 9909TIP3   OH251217   3.513   5.576   3.985 -0.0024  0.3428  0.0217
 9909TIP3    H151218   3.582   5.577   4.052 -0.1989  2.9803  0.3088
 9909TIP3    H251219   3.558   5.557   3.903  0.7783  0.3051  0.4536
 9910TIP3   OH251220   1.369   0.456   3.721 -0.4262 -0.1428  0.1802
 9910TIP3    H151221   1.364   0.529   3.659 -1.6170 -1.8168 -1.8350
 9910TIP3    H251222   1.459   0.424   3.713 -0.5713 -0.3510 -0.7332
 9911TIP3   OH251223   1.115   6.133  14.790  0.0463 -0.0023 -0.5244
 9911TIP3    H151224   1.048   6.082  14.835 -0.6411  1.7949  0.5705
 9911TIP3    H251225   1.069   6.208  14.753  1.2385  0.5576 -0.9396
 9912TIP3   OH251226   1.325   0.935   6.302 -0.4771  0.6011 -0.2989
 9912TIP3    H151227   1.407   0.932   6.353  0.1411 -0.9361 -1.3248
 9912TIP3    H251228   1.272   1.001   6.347  0.9557  0.9742  0.9430
 9913TIP3   OH251229   4.950   4.733  12.146 -0.1164  0.7307 -0.0121
 9913TIP3    H151230   5.027   4.789  12.148  0.7897 -0.4743  1.7498
 9913TIP3    H251231   4.895   4.766  12.218  0.8528 -1.0899  1.6662
 9914TIP3   OH251232   2.062   3.115   3.091 -0.6272 -0.0704  0.4631
 9914TIP3    H151233   2.007   3.192   3.104 -1.0480 -0.4143  0.7972
 9914TIP3    H251234   2.120   3.114   3.167 -0.3639  0.1259  0.2650
 9915TIP3   OH251235   4.703   5.164   1.063 -0.3281  0.0471 -0.2730
 9915TIP3    H151236   4.626   5.219   1.075 -1.2546 -1.1568 -0.4656
 9915TIP3    H251237   4.721   5.168   0.970 -2.0914 -2.0667 -0.7945
 9916TIP3   OH251238   5.008   0.866   3.597  0.3283 -0.1444  0.2017
 9916TIP3    H151239   4.976   0.950   3.563 -0.8935 -1.3185 -1.6999
 9916TIP3    H251240   5.078   0.841   3.537 -0.0207 -0.9703  0.1275
 9917TIP3   OH251241   0.564   0.892   2.049 -0.0206 -0.0650 -0.9174
 9917TIP3    H151242   0.552   0.810   2.002  1.3358  0.0947 -1.6306
 9917TIP3    H251243   0.527   0.877   2.135  1.3477 -1.8971 -0.5761
 9918TIP3   OH251244   1.163   3.707   5.035 -0.5109  0.0296  0.4473
 9918TIP3    H151245   1.221   3.661   4.974  0.2768  1.0215  0.4264
 9918TIP3    H251246   1.132   3.638   5.094  0.0705 -0.6535 -0.0206
 9919TIP3   OH251247   5.241   3.215  12.027 -0.0120 -0.2111  0.4135
 9919TIP3    H151248   5.284   3.298  12.048 -0.1755 -0.0471  0.1007
 9919TIP3    H251249   5.180   3.201  12.100 -0.9102  0.5927 -0.1632
 9920TIP3   OH251250   6.664   4.751  10.955 -0.9164 -0.0389  0.3365
 9920TIP3    H151251   6.666   4.686  10.885  0.3372  0.1936  0.1272
 9920TIP3    H251252   6.748   4.795  10.948 -0.9268  0.2427  1.7576
 9921TIP3   OH251253   5.365   3.940  13.934 -0.0940  0.5244  0.1118
 9921TIP3    H151254   5.405   4.024  13.953 -1.6507  0.9287  2.0337
 9921TIP3    H251255   5.435   3.876  13.947  0.4125  1.3229  1.5634
 9922TIP3   OH251256   6.208   3.085  13.572 -0.4508  0.4881  0.8315
 9922TIP3    H151257   6.154   3.030  13.629 -0.2703  1.4701  1.9703
 9922TIP3    H251258   6.195   3.048  13.484 -2.9022  0.6313  1.0715
 9923TIP3   OH251259   3.226   0.140   0.678  0.2592  0.3750 -0.2373
 9923TIP3    H151260   3.234   0.189   0.760  1.3557 -0.0057 -0.0893
 9923TIP3    H251261   3.275   0.192   0.614  1.9959 -0.7897  0.0715
 9924TIP3   OH251262   3.246   4.700   4.707  0.1129  0.2389  0.4745
 9924TIP3    H151263   3.234   4.709   4.802 -0.7040 -0.9948  0.5085
 9924TIP3    H251264   3.289   4.782   4.681  4.5551 -1.1400  2.5357
 9925TIP3   OH251265   0.458   0.792  13.986 -0.0255  0.0433 -0.1524
 9925TIP3    H151266   0.553   0.807  13.983 -0.1472  0.9212  0.1718
 9925TIP3    H251267   0.445   0.739  14.064 -0.0778  2.2995  1.4699
 9926TIP3   OH251268   1.266   0.332  12.839  0.7068  0.4916  0.5110
 9926TIP3    H151269   1.282   0.259  12.898  0.6677  0.0028 -0.0749
 9926TIP3    H251270   1.196   0.382  12.881  1.6506  0.9565  1.5775
 9927TIP3   OH251271   3.126   5.865   2.413  0.4999 -0.7013  0.3061
 9927TIP3    H151272   3.040   5.879   2.372 -0.2111 -1.5819  1.4384
 9927TIP3    H251273   3.107   5.817   2.493  2.1812 -2.0289 -0.0449
 9928TIP3   OH251274   3.871   1.258  17.073  0.4892  0.2316  0.4893
 9928TIP3    H151275   3.795   1.213  17.035  1.4581  1.3984 -3.2382
 9928TIP3    H251276   3.835   1.336  17.115 -0.6014 -0.8444  1.6355
 9929TIP3   OH251277   2.852   3.200   5.387  0.3919 -0.5125 -0.0404
 9929TIP3    H151278   2.919   3.266   5.404 -1.7951  1.9335 -0.3289
 9929TIP3    H251279   2.865   3.176   5.295  0.2909  0.6863 -0.3833
 9930TIP3   OH251280   2.747   2.066   3.331  0.4728 -0.2186  0.3308
 9930TIP3    H151281   2.677   2.130   3.338  0.2512 -0.1344 -1.8264
 9930TIP3    H251282   2.827   2.116   3.344  0.1850 -0.2424  2.4019
 9931TIP3   OH251283   6.117   3.182   4.163  0.1070 -0.0201  1.1226
 9931TIP3    H151284   6.138   3.275   4.167  1.2863 -0.1080 -1.4946
 9931TIP3    H251285   6.161   3.144   4.240  1.4614  1.2475  1.0134
 9932TIP3   OH251286   3.259   3.630   2.429  0.5092 -0.2163 -0.2620
 9932TIP3    H151287   3.240   3.692   2.499  1.0527 -0.9642  0.5590
 9932TIP3    H251288   3.186   3.569   2.430  0.7328 -0.4802 -0.0625
 9933TIP3   OH251289   1.993   1.241   1.656 -0.5416 -0.1090 -0.4499
 9933TIP3    H151290   2.010   1.283   1.741  0.9082  3.5241 -2.2833
 9933TIP3    H251291   1.898   1.236   1.650 -0.6790 -0.9433  1.5209
 9934TIP3   OH251292   5.108   6.007  12.422 -0.6647  0.2058  0.0592
 9934TIP3    H151293   5.072   6.095  12.410  1.2995  0.8916 -1.2315
 9934TIP3    H251294   5.070   5.956  12.350 -1.8185 -0.0378  0.8191
 9935TIP3   OH251295   4.534   4.299  15.952  0.1669  0.2190 -0.7095
 9935TIP3    H151296   4.465   4.251  15.906 -0.8930  1.3456 -0.3484
 9935TIP3    H251297   4.537   4.258  16.039  0.6058 -0.4303 -1.0217
 9936TIP3   OH251298   0.978   2.761   2.396 -0.0268  0.0879  0.3590
 9936TIP3    H151299   1.066   2.762   2.358 -0.7010  0.2693 -1.2855
 9936TIP3    H251300   0.965   2.850   2.430  0.3504  0.1237  0.4087
 9937TIP3   OH251301   1.152   3.721   2.495  0.4844  0.8861  0.3845
 9937TIP3    H151302   1.232   3.769   2.516  1.1327  0.4393 -0.9321
 9937TIP3    H251303   1.134   3.669   2.573  1.4194  1.0779  0.7463
 9938TIP3   OH251304   1.015   5.789   6.124 -0.6361  0.2225 -0.3558
 9938TIP3    H151305   1.090   5.834   6.164  0.2056  2.3769 -3.9051
 9938TIP3    H251306   0.942   5.849   6.136 -1.0027 -0.3008  0.0997
 9939TIP3   OH251307   0.763   4.265  16.031 -0.6093 -0.4653  0.2206
 9939TIP3    H151308   0.670   4.258  16.054 -0.4090  0.1971  1.3247
 9939TIP3    H251309   0.797   4.332  16.090 -0.2915  2.4124 -2.8932
 9940TIP3   OH251310   1.093   1.009  13.460 -0.1792  0.1665 -0.3033
 9940TIP3    H151311   1.088   1.099  13.493  0.9800  0.6544 -1.4023
 9940TIP3    H251312   1.135   1.016  13.375  0.5173 -1.4872 -0.1447
 9941TIP3   OH251313   1.805   6.371   3.128  0.1849  0.7620 -0.2252
 9941TIP3    H151314   1.804   6.457   3.087 -0.2280  1.0145  0.3180
 9941TIP3    H251315   1.824   6.387   3.220 -2.1745  0.4894  0.3681
 9942TIP3   OH251316   4.686   6.190   2.531 -0.2201 -0.0829  0.0182
 9942TIP3    H151317   4.717   6.103   2.507 -0.5891 -0.2505  0.1401
 9942TIP3    H251318   4.592   6.179   2.548 -0.4675  0.5209 -0.8673
 9943TIP3   OH251319   1.937   4.289  16.963 -0.1543 -0.4965  0.4976
 9943TIP3    H151320   1.972   4.287  17.052  0.3834  0.5977  0.3342
 9943TIP3    H251321   2.010   4.264  16.907 -0.1988 -0.1734  0.2921
 9944TIP3   OH251322   2.121   2.569  15.836 -0.7340  0.7748 -0.0494
 9944TIP3    H151323   2.185   2.539  15.900 -0.5595  0.4622 -0.3676
 9944TIP3    H251324   2.157   2.650  15.801  0.1617 -0.0813 -1.2004
 9945TIP3   OH251325   4.444   3.222  15.736  0.1993 -0.0477  0.1158
 9945TIP3    H151326   4.482   3.138  15.761 -1.3250 -1.4804 -2.0033
 9945TIP3    H251327   4.349   3.208  15.741 -0.0913  1.5245 -0.3491
 9946TIP3   OH251328   4.972   4.962   3.788  0.3805 -0.0796  0.0232
 9946TIP3    H151329   4.993   5.046   3.830 -2.0368 -0.5042  2.3431
 9946TIP3    H251330   4.976   4.898   3.859  1.1659 -1.7954 -1.5033
 9947TIP3   OH251331   6.293   6.170   0.718  0.5116  0.7089  0.3258
 9947TIP3    H151332   6.363   6.132   0.770 -1.7412 -1.7872  1.7867
 9947TIP3    H251333   6.302   6.129   0.632 -0.4358 -1.4555  1.1913
 9948TIP3   OH251334   3.637   1.414   4.705  0.2248 -0.4398 -0.2337
 9948TIP3    H151335   3.624   1.488   4.765  0.4010 -0.3602 -0.2940
 9948TIP3    H251336   3.705   1.444   4.645  0.1317 -0.5656 -0.4003
 9949TIP3   OH251337   5.185   4.203  15.314 -0.2258 -0.2681  0.2096
 9949TIP3    H151338   5.214   4.287  15.350 -1.2574 -0.0831  0.6573
 9949TIP3    H251339   5.108   4.226  15.260  0.5043 -0.7146 -1.0712
 9950TIP3   OH251340   0.957   1.567   0.806 -0.2207  0.0847  0.0979
 9950TIP3    H151341   1.050   1.576   0.787 -0.2480  0.3288  0.0793
 9950TIP3    H251342   0.947   1.601   0.895 -0.3933  0.6273 -0.1287
 9951TIP3   OH251343   2.179   3.405  16.874 -0.3364 -0.6740 -0.1317
 9951TIP3    H151344   2.264   3.388  16.833  1.3527  0.1685  2.6750
 9951TIP3    H251345   2.166   3.499  16.864 -1.1328 -0.8497 -0.8308
 9952TIP3   OH251346   6.306   5.625  12.901 -0.7755 -0.5027  0.3235
 9952TIP3    H151347   6.352   5.544  12.922 -0.1837  0.1425  1.5989
 9952TIP3    H251348   6.326   5.640  12.809  0.9616 -0.6347  0.6588
 9953TIP3   OH251349   0.919   6.053   2.552  0.5778 -0.8416  0.2709
 9953TIP3    H151350   1.002   6.040   2.504  0.1174 -0.7449 -0.5702
 9953TIP3    H251351   0.904   5.970   2.596  1.4887 -0.6250  1.0235
 9954TIP3   OH251352   0.651   2.245  11.436  0.4979 -0.7049 -0.0429
 9954TIP3    H151353   0.682   2.335  11.433 -0.8385 -0.2551 -1.8458
 9954TIP3    H251354   0.728   2.193  11.460  2.0607  0.5930 -2.0023
 9955TIP3   OH251355   1.639   0.519  11.300 -0.4491 -0.0608 -0.4126
 9955TIP3    H151356   1.655   0.556  11.213  1.0243 -2.7042 -1.3895
 9955TIP3    H251357   1.705   0.561  11.356  0.9121 -0.7943 -1.3915
 9956TIP3   OH251358   0.957   6.330  11.763  0.1908  0.2855  0.4295
 9956TIP3    H151359   0.933   6.239  11.777 -1.3014  0.7063  0.7991
 9956TIP3    H251360   1.049   6.336  11.789  0.1681 -1.0089  0.8299
 9957TIP3   OH251361   5.542   2.065  12.455 -0.4527  0.0905  0.8736
 9957TIP3    H151362   5.585   1.984  12.429 -0.6216  0.1707  0.3251
 9957TIP3    H251363   5.529   2.057  12.549 -0.4352 -0.5020  0.8269
 9958TIP3   OH251364   6.544   4.411  13.027 -0.3208  0.0567  0.5555
 9958TIP3    H151365   6.636   4.421  13.001 -0.7365 -0.3456 -1.2347
 9958TIP3    H251366   6.502   4.370  12.951 -1.4853 -2.1848  2.3009
 9959TIP3   OH251367   5.457   2.951  14.043  0.2870  0.7187 -0.3793
 9959TIP3    H151368   5.457   2.913  13.955  0.3131  0.6197 -0.3361
 9959TIP3    H251369   5.386   3.016  14.041 -0.0936  0.3116 -0.2999
 9960TIP3   OH251370   5.844   0.505   3.412  0.2947 -0.6601  0.0088
 9960TIP3    H151371   5.817   0.475   3.325 -0.5792  0.4798 -0.1381
 9960TIP3    H251372   5.784   0.461   3.472 -1.8578  1.6173 -0.2942
 9961TIP3   OH251373   3.376   5.945  12.564  0.2329  0.1571 -0.4729
 9961TIP3    H151374   3.408   5.884  12.498  0.1340 -0.5628  0.1297
 9961TIP3    H251375   3.447   5.952  12.628  0.1908  0.5673 -0.4685
 9962TIP3   OH251376   6.260   4.972  13.420  0.1325  0.3742  0.4195
 9962TIP3    H151377   6.242   4.897  13.363  1.0592 -0.7591  1.5617
 9962TIP3    H251378   6.292   4.934  13.501  3.1404  2.0100  0.1737
 9963TIP3   OH251379   4.280   6.360  15.413  0.0310  0.2051  0.6410
 9963TIP3    H151380   4.337   6.423  15.370 -0.1674 -0.5879 -0.8494
 9963TIP3    H251381   4.299   6.370  15.506  2.4984  0.0586  0.2174
 9964TIP3   OH251382   2.680   0.475  12.099  0.3834  0.1585  0.5339
 9964TIP3    H151383   2.710   0.476  12.008 -1.3148  0.1610 -0.0642
 9964TIP3    H251384   2.678   0.382  12.122 -1.4070 -0.0442 -0.2594
 9965TIP3   OH251385   5.970   3.426  15.659  0.2790  0.2732 -0.3089
 9965TIP3    H151386   6.045   3.381  15.699 -0.3406 -0.0380  0.5312
 9965TIP3    H251387   5.926   3.469  15.732 -0.9895 -0.4635 -0.6119
 9966TIP3   OH251388   0.774   5.807  11.895  0.4637 -1.0428 -0.2917
 9966TIP3    H151389   0.730   5.741  11.948 -0.2510 -1.0793 -0.9157
 9966TIP3    H251390   0.752   5.784  11.805  0.0496  0.1390 -0.5132
 9967TIP3   OH251391   2.722   1.483  12.356  0.4410  0.1365  0.3345
 9967TIP3    H151392   2.725   1.576  12.333  0.3851  0.2090  0.6150
 9967TIP3    H251393   2.779   1.475  12.433 -1.1867  0.3408  1.6313
 9968TIP3   OH251394   2.620   3.258   4.403  0.4340  0.0913  0.3015
 9968TIP3    H151395   2.590   3.236   4.315  1.1452 -0.9645  0.3045
 9968TIP3    H251396   2.556   3.322   4.435 -0.2343 -0.0472 -0.7112
 9969TIP3   OH251397   5.836   5.616  16.208 -0.3732  0.2290  0.2128
 9969TIP3    H151398   5.799   5.682  16.150 -0.6369 -0.1741 -0.0783
 9969TIP3    H251399   5.785   5.537  16.191 -1.4736  0.4815  2.0526
 9970TIP3   OH251400   4.355   5.552   0.335  0.2476  0.1952  0.2846
 9970TIP3    H151401   4.340   5.595   0.251 -1.5683  1.2283  1.0616
 9970TIP3    H251402   4.436   5.590   0.368  1.3289 -0.6894 -1.2359
 9971TIP3   OH251403   3.905   2.528  12.576 -0.3762  0.1014 -0.0746
 9971TIP3    H151404   3.962   2.548  12.502 -1.3944  2.3372 -0.3339
 9971TIP3    H251405   3.965   2.502  12.646  0.9262  1.5918 -0.5770
 9972TIP3   OH251406   4.236   3.957   1.774  0.1816 -0.4465  0.3648
 9972TIP3    H151407   4.194   3.986   1.855 -0.5283 -0.8301  0.1473
 9972TIP3    H251408   4.322   3.925   1.802  0.5530  0.8507  0.7401
 9973TIP3   OH251409   0.858   2.826  10.834  0.2397 -0.3671 -0.3626
 9973TIP3    H151410   0.924   2.831  10.765 -0.2096  0.1450 -0.7622
 9973TIP3    H251411   0.791   2.889  10.808  0.5570  0.6081  1.0746
 9974TIP3   OH251412   0.369   6.645   4.319 -0.1672 -0.2266  0.8620
 9974TIP3    H151413   0.451   6.690   4.294 -1.9379  2.9507  0.1919
 9974TIP3    H251414   0.300   6.703   4.288 -2.7100 -1.3428  3.8939
 9975TIP3   OH251415   6.814   2.288  13.500 -0.1956  0.8119 -0.4513
 9975TIP3    H151416   6.785   2.371  13.538 -1.0147  0.9535 -1.3544
 9975TIP3    H251417   6.734   2.238  13.488  0.2979 -0.1710  0.1744
 9976TIP3   OH251418   0.091   1.170  11.121  0.3899  0.7258 -0.5598
 9976TIP3    H151419   0.027   1.182  11.191  1.8971  0.1265  1.0138
 9976TIP3    H251420   0.159   1.235  11.139  1.6440 -0.5624 -0.4013
 9977TIP3   OH251421   6.723   2.265  15.487  0.6534  0.7185 -0.3809
 9977TIP3    H151422   6.683   2.223  15.564 -0.2418  1.8198 -0.2125
 9977TIP3    H251423   6.801   2.308  15.521  0.6356  0.6284 -0.2257
 9978TIP3   OH251424   4.519   6.228  15.661 -0.5658 -0.6293  0.0665
 9978TIP3    H151425   4.515   6.320  15.632 -0.8120 -0.6635 -0.0052
 9978TIP3    H251426   4.613   6.210  15.667 -0.3691  0.6701  3.3598
 9979TIP3   OH251427   5.886   2.510   5.633 -0.6485 -0.3329 -0.5306
 9979TIP3    H151428   5.951   2.554   5.689  1.3915 -1.1401 -2.1708
 9979TIP3    H251429   5.873   2.425   5.674 -0.7725 -0.1422 -0.1604
 9980TIP3   OH251430   4.965   0.794  16.032 -0.0064  0.0974 -0.2552
 9980TIP3    H151431   4.962   0.736  16.108  1.5381  0.5927  0.2025
 9980TIP3    H251432   4.973   0.735  15.957  0.7622 -0.3139  0.1489
 9981TIP3   OH251433   6.170   2.800  12.665 -0.5566 -0.5378 -0.1125
 9981TIP3    H151434   6.168   2.803  12.570 -1.5992  0.1359 -0.0798
 9981TIP3    H251435   6.260   2.774  12.686 -0.2090 -0.3189 -1.2664
 9982TIP3   OH251436   5.006   5.125  14.824 -0.2220  0.2241 -0.6517
 9982TIP3    H151437   5.047   5.094  14.743  0.6607  3.5438 -1.6217
 9982TIP3    H251438   4.952   5.198  14.797  0.3207  1.6257  1.7746
 9983TIP3   OH251439   0.638   0.257   0.193 -0.1849  0.0783 -0.1847
 9983TIP3    H151440   0.699   0.309   0.141 -0.0926  0.3308  0.1758
 9983TIP3    H251441   0.686   0.177   0.213  0.2991  0.5923  0.7296
 9984TIP3   OH251442   0.488   5.745  13.479 -0.0557 -0.2723 -0.0288
 9984TIP3    H151443   0.430   5.689  13.428  0.8282 -3.6027  2.3093
 9984TIP3    H251444   0.430   5.813  13.515 -2.0242 -1.9265  0.0782
 9985TIP3   OH251445   4.943   5.051   2.332  0.3370  0.2753  0.1886
 9985TIP3    H151446   4.972   5.097   2.253 -0.4587  0.1782 -0.1765
 9985TIP3    H251447   4.997   4.972   2.335  3.1466  2.1147  1.9302
 9986TIP3   OH251448   5.248   3.922  12.253 -0.2672  0.3868  0.2818
 9986TIP3    H151449   5.335   3.963  12.248 -0.4384  0.8762  1.1137
 9986TIP3    H251450   5.235   3.883  12.166  0.4315  1.0324 -0.1298
 9987TIP3   OH251451   5.359   5.767  15.684  0.7994  0.1975 -0.1622
 9987TIP3    H151452   5.385   5.804  15.769  0.7205  0.3581 -0.2087
 9987TIP3    H251453   5.267   5.790  15.675  1.0261  0.9579 -0.6976
 9988TIP3   OH251454   2.812   0.419  12.576  0.1945  0.6017 -0.1753
 9988TIP3    H151455   2.796   0.334  12.536  1.5095  0.0754  0.3706
 9988TIP3    H251456   2.752   0.423  12.651 -1.4410  1.1086 -1.4410
 9989TIP3   OH251457   0.599   3.379  16.847 -0.2234 -0.2373  0.1803
 9989TIP3    H151458   0.519   3.377  16.899 -0.7009  0.8787 -0.4625
 9989TIP3    H251459   0.614   3.288  16.822 -0.2124 -0.7349  1.8745
 9990TIP3   OH251460   1.424   2.980   1.273 -0.7306 -0.0810  0.1018
 9990TIP3    H151461   1.412   3.065   1.315  1.9807  0.6762 -0.5184
 9990TIP3    H251462   1.428   2.918   1.346 -0.0104  0.6914  0.7300
 9991TIP3   OH251463   3.194   4.448   2.158  0.4612 -0.5206 -0.3322
 9991TIP3    H151464   3.141   4.432   2.079  1.2636 -0.0898 -0.9711
 9991TIP3    H251465   3.158   4.388   2.223 -0.1566 -0.9564 -1.0554
 9992TIP3   OH251466   2.725   1.181  13.340 -0.2435  0.3282  0.2580
 9992TIP3    H151467   2.672   1.191  13.419  1.0362  0.1285  1.1665
 9992TIP3    H251468   2.714   1.263  13.293  0.1670  1.0623  1.3995
 9993TIP3   OH251469   5.618   5.381   2.935 -0.5898  0.2018 -0.3899
 9993TIP3    H151470   5.592   5.468   2.905 -0.7112  0.3845  0.2229
 9993TIP3    H251471   5.709   5.371   2.908 -0.6152  0.4716 -0.5687
 9994TIP3   OH251472   2.288   0.155   0.681 -0.4455 -0.6063 -0.8296
 9994TIP3    H151473   2.379   0.149   0.708 -0.7809 -0.0920  0.5231
 9994TIP3    H251474   2.282   0.103   0.601  1.4968  1.1862 -2.2216
 9995TIP3   OH251475   4.756   2.195   0.261 -0.3718  0.4864  0.0995
 9995TIP3    H151476   4.852   2.201   0.266 -0.3383 -0.3128  0.7913
 9995TIP3    H251477   4.732   2.141   0.337 -1.3664  0.6120 -0.1117
 9996TIP3   OH251478   5.663   0.962  14.808  0.2616  0.1045  0.0883
 9996TIP3    H151479   5.711   0.880  14.794 -0.8149 -0.6827  0.8777
 9996TIP3    H251480   5.574   0.943  14.779  0.2821  1.4188 -0.9514
 9997TIP3   OH251481   0.940   6.035   1.352  0.0706 -0.4273 -0.2128
 9997TIP3    H151482   1.015   6.030   1.410  1.2692 -1.3103 -1.7559
 9997TIP3    H251483   0.879   5.969   1.386  0.9708 -1.2882 -0.2177
 9998TIP3   OH251484   0.912   4.770  15.849 -0.3060 -0.1762 -0.0584
 9998TIP3    H151485   0.980   4.748  15.912  1.6327  0.2064 -1.8896
 9998TIP3    H251486   0.876   4.685  15.822 -0.9477 -0.3566  1.2669
 9999TIP3   OH251487   5.851   5.726  16.756  0.2558 -0.1894  0.6045
 9999TIP3    H151488   5.882   5.668  16.686 -1.6590 -2.8378  1.7499
 9999TIP3    H251489   5.924   5.731  16.817  2.3600  3.0113 -1.8336
10000TIP3   OH251490   1.152   1.096  14.265  0.6305 -0.2321  0.1692
10000TIP3    H151491   1.190   1.080  14.179 -1.4407  0.7061 -0.9953
10000TIP3    H251492   1.130   1.009  14.298 -0.5889 -0.5259 -1.2738
10001TIP3   OH251493   5.402   6.048   1.651 -0.6225  0.1756 -0.8971
10001TIP3    H151494   5.357   6.122   1.691  1.7499  0.9832  0.4494
10001TIP3    H251495   5.495   6.072   1.652  0.3297 -2.9554  0.0796
10002TIP3   OH251496   3.231   2.492   6.218  0.6108  0.1371 -0.0518
10002TIP3    H151497   3.218   2.524   6.307  0.3812 -0.5931  0.1901
10002TIP3    H251498   3.143   2.472   6.186  0.7598 -0.5379 -0.0713
10003TIP3   OH251499   5.191   1.111  11.550  0.4186 -0.1546 -0.5039
10003TIP3    H151500   5.120   1.173  11.530 -0.3962 -0.5838  0.9610
10003TIP3    H251501   5.176   1.085  11.640  0.7600 -2.4892 -1.0594
10004TIP3   OH251502   6.741   0.154  15.513  0.8658 -0.1842 -0.2644
10004TIP3    H151503   6.823   0.120  15.477 -0.9696 -4.2548 -1.1545
10004TIP3    H251504   6.694   0.189  15.438  0.6534 -0.4819 -0.2730
10005TIP3   OH251505   4.030   3.605  11.797 -0.0483  0.0017 -0.7670
10005TIP3    H151506   3.954   3.653  11.766 -0.4023  0.6319  0.9784
10005TIP3    H251507   4.014   3.514  11.771 -1.4005  0.1314 -0.4528
10006TIP3   OH251508   3.206   4.111  11.206 -0.1626 -0.2308 -0.4323
10006TIP3    H151509   3.269   4.040  11.207  0.2955  0.1673  0.3893
10006TIP3    H251510   3.121   4.069  11.219 -0.1080 -0.7950 -1.8051
10007TIP3   OH251511   5.385   1.625  17.274  0.0498  0.1966  0.5476
10007TIP3    H151512   5.432   1.556  17.322 -0.1354 -0.1361  0.2524
10007TIP3    H251513   5.293   1.598  17.276  0.0678  0.0669 -0.1851
10008TIP3   OH251514   0.629   1.826  15.967 -0.1788 -0.7795 -0.3687
10008TIP3    H151515   0.625   1.747  16.020  1.5211 -0.6327  0.0361
10008TIP3    H251516   0.639   1.897  16.031  1.3864 -0.5520 -0.8373
10009TIP3   OH251517   3.959   1.264  13.410 -0.5382  0.0101 -0.3192
10009TIP3    H151518   3.965   1.281  13.504 -1.9162  0.9045 -0.3572
10009TIP3    H251519   3.986   1.346  13.369 -1.2883  0.0969 -0.6583
10010TIP3   OH251520   1.550   1.182   3.995  0.7116  0.2989  0.1598
10010TIP3    H151521   1.529   1.246   3.927  0.0999  0.5976  0.6218
10010TIP3    H251522   1.645   1.173   3.991  0.9682  2.1875  0.9038
10011TIP3   OH251523   0.144   2.935  13.619 -0.3237 -0.3628 -0.0051
10011TIP3    H151524   0.150   2.978  13.704  1.4340  1.3317 -0.9266
10011TIP3    H251525   0.068   2.877  13.627 -0.0700 -0.4397  2.7781
10012TIP3   OH251526   2.755   5.439  16.691 -0.0492  0.6374  0.8433
10012TIP3    H151527   2.836   5.445  16.639 -0.1797  0.9087  0.6705
10012TIP3    H251528   2.690   5.486  16.639 -0.9697 -1.6998 -0.2892
10013TIP3   OH251529   0.669   2.396   1.761 -0.0730 -0.0645 -0.6542
10013TIP3    H151530   0.721   2.433   1.832 -0.2571 -0.5303 -0.2719
10013TIP3    H251531   0.590   2.451   1.759 -0.1832 -0.2072 -0.3292
10014TIP3   OH251532   5.460   2.943  15.964  0.6954 -0.4850  0.1870
10014TIP3    H151533   5.367   2.961  15.978  0.3027 -3.0347  1.3685
10014TIP3    H251534   5.462   2.889  15.885  1.1875 -0.3767  0.1226
10015TIP3   OH251535   0.759   4.485  11.178  0.2834  0.4504  0.1159
10015TIP3    H151536   0.840   4.437  11.195 -0.2031 -0.1963  0.6290
10015TIP3    H251537   0.697   4.419  11.148 -0.4405  0.7173  0.9869
10016TIP3   OH251538   6.430   0.838   1.532 -0.8206 -0.9391 -0.0265
10016TIP3    H151539   6.438   0.908   1.597 -0.1202 -0.7484 -0.3110
10016TIP3    H251540   6.483   0.867   1.459 -3.0796 -0.2618 -1.5051
10017TIP3   OH251541   3.551   5.480   1.711  0.3160  0.5376  0.1031
10017TIP3    H151542   3.555   5.468   1.806  1.2678  3.5009  0.5386
10017TIP3    H251543   3.573   5.572   1.697 -1.6619  0.7143 -2.8730
10018TIP3   OH251544   4.715   6.462  14.836  0.1838 -0.1151  0.1608
10018TIP3    H151545   4.748   6.462  14.746 -1.7791 -1.3843 -0.6176
10018TIP3    H251546   4.744   6.378  14.872 -0.4010 -0.3148  0.1685
10019TIP3   OH251547   6.407   4.393   3.116 -0.0741  0.4366 -0.8060
10019TIP3    H151548   6.316   4.368   3.134  0.2145  0.1635  0.3269
10019TIP3    H251549   6.415   4.481   3.152  1.1544 -0.9705  2.8379
10020TIP3   OH251550   1.007   0.979   0.908 -0.4199 -0.1429 -0.1388
10020TIP3    H151551   1.010   0.927   0.827 -0.0624 -0.7428  0.2501
10020TIP3    H251552   1.063   0.931   0.969  0.5288  1.0995  0.0082
10021TIP3   OH251553   1.426   2.057   3.871 -0.2172  0.5618  0.7499
10021TIP3    H151554   1.510   2.095   3.895  0.0276  0.7067 -0.2718
10021TIP3    H251555   1.376   2.130   3.835  0.6439 -0.1879 -2.2280
10022TIP3   OH251556   2.972   6.557  13.420 -0.1566  0.4628  0.0077
10022TIP3    H151557   2.971   6.640  13.372  1.2217  0.7859  0.4899
10022TIP3    H251558   2.879   6.532  13.427 -0.5890  1.8913 -0.2674
10023TIP3   OH251559   2.142   4.690   2.704  0.2729  0.4195  0.6188
10023TIP3    H151560   2.173   4.645   2.625  0.7695  1.5833  0.1120
10023TIP3    H251561   2.099   4.769   2.670 -1.8943 -0.3651  1.4025
10024TIP3   OH251562   0.780   4.180  15.675  0.3831 -0.3405  0.0707
10024TIP3    H151563   0.869   4.178  15.641 -0.0538 -0.3320 -1.0981
10024TIP3    H251564   0.790   4.205  15.767  1.6126 -0.7998  0.0717
10025TIP3   OH251565   5.039   3.906   6.098 -0.0180 -0.3074  0.0625
10025TIP3    H151566   5.054   3.886   6.190 -0.5910  0.7503  0.4043
10025TIP3    H251567   4.995   3.991   6.099  1.9318  0.7911 -1.2790
10026TIP3   OH251568   1.035   6.792  14.581 -0.1109  0.0444 -0.2024
10026TIP3    H151569   1.073   6.791  14.493  0.7648 -1.5877  0.1574
10026TIP3    H251570   0.941   6.781  14.567  0.2050 -2.2217 -0.9033
10027TIP3   OH251571   4.574   2.182   5.337  0.0630 -0.1240 -0.5462
10027TIP3    H151572   4.636   2.248   5.367  0.4839  0.7877 -3.2103
10027TIP3    H251573   4.621   2.099   5.347  0.4911  0.2194  0.4287
10028TIP3   OH251574   1.520   2.687   3.149  0.5461 -0.6852 -0.4091
10028TIP3    H151575   1.512   2.723   3.237  0.2652 -0.9329 -0.3331
10028TIP3    H251576   1.545   2.762   3.094  1.1710 -0.6195 -0.0447
10029TIP3   OH251577   0.810   4.204  13.618 -0.4115 -0.3572  0.0939
10029TIP3    H151578   0.772   4.184  13.533 -2.7241 -1.3581  1.2714
10029TIP3    H251579   0.877   4.137  13.631 -0.9019 -0.9611 -0.4367
10030TIP3   OH251580   4.625   3.206   4.277  0.1251 -0.2527 -0.1772
10030TIP3    H151581   4.541   3.251   4.273 -0.2670 -0.9500 -0.0772
10030TIP3    H251582   4.613   3.129   4.221  0.3214 -0.9456  0.7200
10031TIP3   OH251583   3.421   3.826  16.135  0.0998  0.2206  0.0888
10031TIP3    H151584   3.484   3.847  16.204  1.1835  0.7606 -1.0203
10031TIP3    H251585   3.435   3.733  16.117  0.4993  0.3119 -0.0740
10032TIP3   OH251586   6.198   6.485   3.473 -0.2109  0.1901 -0.0647
10032TIP3    H151587   6.277   6.532   3.502 -0.2519 -0.9010  1.9513
10032TIP3    H251588   6.201   6.492   3.377  2.1885  0.4097 -0.0499
10033TIP3   OH251589   4.278   2.331  16.995 -0.5363 -0.3559 -0.0978
10033TIP3    H151590   4.363   2.288  17.004 -0.3621 -0.2732 -1.1760
10033TIP3    H251591   4.283   2.407  17.052 -1.1882 -2.2058  2.5899
10034TIP3   OH251592   0.275   5.321  11.335  0.3283  0.6612  0.1294
10034TIP3    H151593   0.349   5.363  11.379  0.2193  1.0027 -0.0104
10034TIP3    H251594   0.296   5.328  11.241 -0.2296  1.4321  0.0483
10035TIP3   OH251595   0.132   4.759   5.040  0.1856 -0.3829 -0.4122
10035TIP3    H151596   0.099   4.788   4.956 -2.7065 -1.5679  0.2066
10035TIP3    H251597   0.082   4.679   5.060  1.0291 -0.3672  2.2335
10036TIP3   OH251598   0.917   4.412  14.811  0.2406 -0.7124 -0.0956
10036TIP3    H151599   0.858   4.481  14.781  0.9788 -0.4930 -1.1192
10036TIP3    H251600   0.960   4.449  14.888  0.0426 -0.3473 -0.1575
10037TIP3   OH251601   5.140   6.290  16.383 -0.1388  0.3790  0.2825
10037TIP3    H151602   5.123   6.382  16.365  0.6015  0.4000 -0.3435
10037TIP3    H251603   5.166   6.288  16.476  2.8395  1.2667 -0.4168
10038TIP3   OH251604   6.648   4.503  14.752 -0.4687  0.1826 -0.4650
10038TIP3    H151605   6.574   4.563  14.740 -1.2434 -0.7050 -0.2030
10038TIP3    H251606   6.633   4.434  14.688  0.6338  0.4525 -1.0379
10039TIP3   OH251607   5.008   2.837  15.398  0.0444 -0.2090  0.2726
10039TIP3    H151608   5.085   2.789  15.368  0.6044  0.1433  1.0832
10039TIP3    H251609   5.028   2.857  15.490 -0.9501  0.0251  0.4436
10040TIP3   OH251610   6.206   5.352  15.736 -0.3089  0.2003  0.8150
10040TIP3    H151611   6.136   5.361  15.800  0.1568  0.6999  1.2622
10040TIP3    H251612   6.212   5.438  15.694 -1.3391 -0.4173 -0.6835
10041TIP3   OH251613   3.221   6.783  11.589 -0.1730  0.0847 -0.8388
10041TIP3    H151614   3.306   6.824  11.576 -0.9360  1.4784 -1.6936
10041TIP3    H251615   3.195   6.810  11.678  0.6333 -1.0723 -0.2298
10042TIP3   OH251616   2.701   0.124   5.267  0.3202 -0.0038  0.1053
10042TIP3    H151617   2.729   0.173   5.189 -1.0046  1.2634  0.3872
10042TIP3    H251618   2.770   0.060   5.280  3.1700  2.9159  0.7851
10043TIP3   OH251619   5.221   2.103   3.254  0.2207  0.2195  0.6910
10043TIP3    H151620   5.211   2.095   3.160 -0.6260  1.1127  0.6858
10043TIP3    H251621   5.263   2.188   3.267  1.2499 -0.3299  1.0851
10044TIP3   OH251622   2.532   1.234   2.828 -0.3143 -0.0673 -0.4446
10044TIP3    H151623   2.577   1.180   2.762 -0.3888 -0.1281 -0.4458
10044TIP3    H251624   2.488   1.302   2.777 -1.4913 -0.9027 -0.5820
10045TIP3   OH251625   1.143   2.012   2.725 -0.0874 -0.0506 -0.1052
10045TIP3    H151626   1.093   1.933   2.709  1.6082 -1.1164 -0.3761
10045TIP3    H251627   1.090   2.062   2.787 -1.1175 -1.4474  0.1904
10046TIP3   OH251628   2.735   4.977  14.216  0.3840  0.1728 -0.4482
10046TIP3    H151629   2.735   4.882  14.224 -2.0315  0.0826 -0.6618
10046TIP3    H251630   2.795   5.008  14.284 -0.8166 -1.4321  1.4550
10047TIP3   OH251631   5.530   2.812   3.633 -0.2309 -0.3058  0.0139
10047TIP3    H151632   5.452   2.808   3.578  0.5565  0.3335 -1.1999
10047TIP3    H251633   5.594   2.759   3.587 -0.3068 -1.9105  1.6762
10048TIP3   OH251634   1.933   5.203   2.495 -0.3456 -0.3227 -0.4371
10048TIP3    H151635   1.842   5.231   2.503  0.1701  1.5040 -0.4766
10048TIP3    H251636   1.967   5.207   2.584  0.0213  0.2206 -0.5981
10049TIP3   OH251637   0.441   4.716   3.440  0.2456 -0.0571  0.0292
10049TIP3    H151638   0.382   4.785   3.410  0.9027  0.2117 -0.6896
10049TIP3    H251639   0.489   4.757   3.512  1.7712  0.8348 -1.4162
10050TIP3   OH251640   3.903   6.316   3.698  0.1702  0.1471  0.3752
10050TIP3    H151641   3.940   6.287   3.781 -1.6387  0.1699  1.2520
10050TIP3    H251642   3.855   6.240   3.665  1.1816  0.0212 -0.8650
10051TIP3   OH251643   0.701   0.070  11.468  0.1421 -0.4548  0.4526
10051TIP3    H151644   0.627   0.128  11.488 -1.3602 -2.3817  0.8247
10051TIP3    H251645   0.753   0.070  11.548 -0.7725 -0.9148  1.0635
10052TIP3   OH251646   4.496   4.719  14.172 -1.1251 -0.3666  0.2080
10052TIP3    H151647   4.586   4.703  14.145 -0.7060  1.4709  0.3921
10052TIP3    H251648   4.487   4.675  14.256  0.1068  0.7082  0.9355
10053TIP3   OH251649   2.811   4.430   3.017 -0.1383 -0.6547  0.1530
10053TIP3    H151650   2.903   4.422   3.040  0.6417  1.5286 -1.8636
10053TIP3    H251651   2.794   4.355   2.960  0.1947 -1.4040  1.0166
10054TIP3   OH251652   1.285   4.603   2.637 -0.2410 -0.0058 -0.1289
10054TIP3    H151653   1.316   4.655   2.563 -1.8212 -0.3866 -1.0836
10054TIP3    H251654   1.226   4.539   2.599  0.2956 -1.3894  1.2521
10055TIP3   OH251655   5.530   5.604   5.560 -0.0396  0.0503  0.6000
10055TIP3    H151656   5.517   5.514   5.530 -0.4236 -0.3948  2.0202
10055TIP3    H251657   5.608   5.634   5.513 -0.7168 -0.5030 -0.9741
10056TIP3   OH251658   2.268   5.177  12.661  0.3665  0.5938  0.2532
10056TIP3    H151659   2.324   5.221  12.726 -1.1023  0.0736  1.9564
10056TIP3    H251660   2.202   5.133  12.713 -1.9699  1.5953 -1.6977
10057TIP3   OH251661   6.444   2.172   2.166  0.6257  0.3009  0.2413
10057TIP3    H151662   6.476   2.236   2.229 -0.4391  0.2050  0.8879
10057TIP3    H251663   6.429   2.093   2.217  0.0161  0.1399 -0.1791
10058TIP3   OH251664   4.507   6.733  15.567 -0.1933  0.0396  0.4480
10058TIP3    H151665   4.437   6.762  15.625 -1.5828 -0.1273 -1.0771
10058TIP3    H251666   4.480   6.761  15.480  2.2423  1.0277 -0.0801
10059TIP3   OH251667   0.029   5.805   4.200 -0.0264  0.7290 -0.0074
10059TIP3    H151668  -0.028   5.790   4.275 -0.0473  2.3502  0.3383
10059TIP3    H251669  -0.022   5.861   4.142  0.8401  1.4284 -0.1288
10060TIP3   OH251670   3.077   6.417   1.316  0.4809 -0.0149  0.2695
10060TIP3    H151671   3.160   6.446   1.353 -0.1316  1.5093  0.5435
10060TIP3    H251672   3.041   6.495   1.273 -1.2036 -0.3954  0.9003
10061TIP3   OH251673   6.575   3.909   3.356  0.0305  0.4261 -0.1545
10061TIP3    H151674   6.561   3.877   3.267  0.8710 -0.3935 -0.0078
10061TIP3    H251675   6.500   3.965   3.373 -0.5149  0.0194 -1.1194
10062TIP3   OH251676   2.012   5.825   2.918 -0.0657  0.2000 -0.0776
10062TIP3    H151677   1.976   5.751   2.869 -0.9508  0.5574  0.0179
10062TIP3    H251678   1.993   5.804   3.010 -1.9300  1.3410 -0.1423
10063TIP3   OH251679   4.173   2.696  15.092  0.1282  0.2457  0.4821
10063TIP3    H151680   4.134   2.690  15.180  0.9435  1.4729  0.9585
10063TIP3    H251681   4.161   2.788  15.068  2.2324  0.5577  0.4338
10064TIP3   OH251682   0.225   1.658  11.477 -0.3743  0.1374 -0.3670
10064TIP3    H151683   0.209   1.709  11.397  0.6336  0.7452 -0.2108
10064TIP3    H251684   0.189   1.572  11.459  1.0492 -0.1660 -2.0312
10065TIP3   OH251685   2.122   5.939   4.694  0.3285  0.1835 -0.1714
10065TIP3    H151686   2.111   5.853   4.735 -1.5408 -0.1695 -1.2973
10065TIP3    H251687   2.072   5.999   4.749  0.4181  0.2771 -0.1915
10066TIP3   OH251688   1.409   0.343  10.464 -0.3545  0.4282  0.2923
10066TIP3    H151689   1.481   0.390  10.420  0.3661  0.2048  1.2007
10066TIP3    H251690   1.377   0.405  10.529  0.3170 -0.1619  1.2065
10067TIP3   OH251691   1.930   0.082   2.067  0.4046 -0.2674  0.0689
10067TIP3    H151692   1.988   0.032   2.010 -1.4558 -1.8547 -0.5246
10067TIP3    H251693   1.965   0.069   2.155  0.6439 -1.6499 -0.2161
10068TIP3   OH251694   2.034   2.454  15.108  0.3332  0.1932 -0.3633
10068TIP3    H151695   2.045   2.512  15.033 -0.2230  0.3718 -0.3124
10068TIP3    H251696   2.114   2.468  15.160  0.4081  0.5807 -0.5738
10069TIP3   OH251697   3.821   1.526  13.827 -0.0513  0.2060 -0.7728
10069TIP3    H151698   3.845   1.505  13.917 -0.8637  0.3100 -0.5190
10069TIP3    H251699   3.742   1.580  13.836  0.7692  1.5827 -1.4828
10070TIP3   OH251700   4.556   3.445   2.159  0.3427  0.0459  0.6109
10070TIP3    H151701   4.469   3.447   2.199  0.2719  0.0773  0.4577
10070TIP3    H251702   4.612   3.406   2.225  0.3458  0.6372  0.9655
10071TIP3   OH251703   6.782   0.407   6.025  0.0847  0.1567  0.9149
10071TIP3    H151704   6.757   0.497   6.003 -1.0418  0.3146  2.6985
10071TIP3    H251705   6.844   0.416   6.098  0.5452 -0.5039  0.6235
10072TIP3   OH251706   6.509   1.224  12.857 -0.4035  0.1345  0.1395
10072TIP3    H151707   6.552   1.307  12.835 -0.7977  1.0310  2.4560
10072TIP3    H251708   6.429   1.224  12.803  2.0674 -1.4202 -3.9904
10073TIP3   OH251709   1.439   3.559   4.276 -0.1009 -0.8045 -0.0607
10073TIP3    H151710   1.370   3.603   4.326 -0.6366 -0.7739 -0.8060
10073TIP3    H251711   1.512   3.621   4.276 -0.1437 -0.7536  0.5661
10074TIP3   OH251712   0.064   6.061   5.770  0.2066 -0.6306 -0.0659
10074TIP3    H151713   0.040   6.129   5.833 -3.5415 -1.8160  0.0632
10074TIP3    H251714   0.098   6.109   5.694  0.6375  1.1223  1.1674
10075TIP3   OH251715   4.691   0.204   5.933 -0.1842 -0.0490  0.2069
10075TIP3    H151716   4.649   0.136   5.986  1.7908 -0.2797  1.5914
10075TIP3    H251717   4.685   0.283   5.986 -1.0620  0.5364 -0.7101
10076TIP3   OH251718   2.886   0.689   0.568 -0.0496  0.0198  0.2830
10076TIP3    H151719   2.879   0.689   0.664  1.0356  0.8133  0.3799
10076TIP3    H251720   2.800   0.658   0.538 -1.3545  2.2034  1.4624
10077TIP3   OH251721   6.773   4.223  13.218  0.0082 -0.6747 -0.0426
10077TIP3    H151722   6.798   4.157  13.153  2.7241 -0.0198  0.2021
10077TIP3    H251723   6.783   4.306  13.172 -0.9277 -0.3189  0.3804
10078TIP3   OH251724   4.140   0.552  15.568  0.5916  0.2316  0.3245
10078TIP3    H151725   4.156   0.547  15.662 -2.5339 -3.7445  0.9519
10078TIP3    H251726   4.212   0.504  15.528 -0.3381 -2.1895  1.3186
10079TIP3   OH251727   4.840   0.248  16.067 -0.0784  0.0830 -0.1533
10079TIP3    H151728   4.829   0.180  16.133  0.8716  0.8654  0.8412
10079TIP3    H251729   4.781   0.318  16.093 -0.9723 -0.2748 -1.1179
10080TIP3   OH251730   4.317   2.660  14.685  0.3615  0.2727  0.2855
10080TIP3    H151731   4.356   2.731  14.635  0.2317 -0.9546 -1.6594
10080TIP3    H251732   4.364   2.581  14.656 -1.4515 -0.8233  0.1662
10081TIP3   OH251733   4.272   3.984   5.766  0.3858  0.1377  0.1567
10081TIP3    H151734   4.228   3.946   5.842  0.9077  0.1723  0.4836
10081TIP3    H251735   4.226   4.066   5.749 -2.1971 -1.5754 -1.9019
10082TIP3   OH251736   4.258   6.536  10.867  0.4225 -0.1504 -0.2971
10082TIP3    H151737   4.220   6.572  10.786 -1.5134 -0.5344  0.3983
10082TIP3    H251738   4.222   6.448  10.874 -0.6468  0.3984  1.7303
10083TIP3   OH251739   1.758   4.517   5.729 -0.0210 -0.0031 -0.1274
10083TIP3    H151740   1.847   4.492   5.756 -0.4658 -2.1124 -0.4223
10083TIP3    H251741   1.725   4.571   5.801  0.7931 -0.8840  0.9357
10084TIP3   OH251742   0.372   2.605  16.509  1.0554 -0.2289  0.0385
10084TIP3    H151743   0.380   2.600  16.604  1.6956  0.0291  0.0004
10084TIP3    H251744   0.281   2.631  16.494  1.3469  1.2060  0.6357
10085TIP3   OH251745   2.354   2.568  16.850 -0.0661  0.2607  0.1733
10085TIP3    H151746   2.396   2.482  16.849 -0.3428  0.1151  0.5461
10085TIP3    H251747   2.292   2.563  16.923  0.9932  1.2948  1.1827
10086TIP3   OH251748   6.136   0.264  14.930  0.3219 -0.2071 -0.0093
10086TIP3    H151749   6.134   0.211  15.010 -0.7272 -1.2278 -0.6854
10086TIP3    H251750   6.182   0.210  14.866 -0.7601 -0.3286 -0.7028
10087TIP3   OH251751   2.717   4.597   0.403 -0.4640  0.4180 -0.1483
10087TIP3    H151752   2.696   4.504   0.388 -0.0155  0.4308 -0.8898
10087TIP3    H251753   2.643   4.630   0.454 -2.0277  0.3259 -2.2339
10088TIP3   OH251754   3.751   2.152   4.264  0.2967 -0.0207 -0.1000
10088TIP3    H151755   3.776   2.188   4.349  0.3122  0.4857 -0.3141
10088TIP3    H251756   3.677   2.094   4.283  0.7916 -0.5204  0.3620
10089TIP3   OH251757   6.502   0.721   4.146  0.4013  0.4190  0.1427
10089TIP3    H151758   6.576   0.710   4.206 -0.4334  0.5385  1.2248
10089TIP3    H251759   6.505   0.642   4.092 -0.5459 -1.2109  2.3027
10090TIP3   OH251760   6.314   6.580   0.926 -0.3500 -0.2244  0.5675
10090TIP3    H151761   6.252   6.536   0.868 -0.2101 -0.6685  0.7480
10090TIP3    H251762   6.276   6.571   1.013 -1.1828  1.5162  0.4222
10091TIP3   OH251763   6.540   0.644  12.139  0.0484 -0.6138 -0.0014
10091TIP3    H151764   6.554   0.550  12.132  0.0805 -0.5575 -0.7459
10091TIP3    H251765   6.624   0.683  12.113  0.0519 -0.3808  0.3494
10092TIP3   OH251766   5.350   2.885  17.123  0.4316 -0.3453  0.0947
10092TIP3    H151767   5.400   2.906  17.202 -1.6554  0.8466  1.2070
10092TIP3    H251768   5.350   2.790  17.119  2.0319 -0.3893  0.5219
10093TIP3   OH251769   3.162   5.632   4.375  0.3220 -0.1991  0.4249
10093TIP3    H151770   3.203   5.634   4.288  0.9558  0.9178  0.7240
10093TIP3    H251771   3.133   5.722   4.390 -2.8625 -1.0581 -0.0126
10094TIP3   OH251772   1.871   1.634  15.512  0.7501  0.1622 -0.0297
10094TIP3    H151773   1.803   1.684  15.466  0.8194 -0.5084 -0.8968
10094TIP3    H251774   1.842   1.634  15.603  0.0711  0.6721 -0.2288
10095TIP3   OH251775   0.241   1.385   2.939  0.8308  0.0762 -0.0170
10095TIP3    H151776   0.287   1.302   2.948  1.9431  0.7277  0.6243
10095TIP3    H251777   0.236   1.420   3.028  1.4248  1.2154 -0.4024
10096TIP3   OH251778   0.420   6.537   3.179  0.3725 -0.1679  0.1042
10096TIP3    H151779   0.515   6.541   3.165  0.4985 -0.8210  0.7267
10096TIP3    H251780   0.401   6.444   3.185  0.1103 -0.0206  2.6756
10097TIP3   OH251781   2.463   2.532  10.629 -0.1145 -0.4380 -0.2747
10097TIP3    H151782   2.499   2.445  10.609 -0.4708 -0.5728 -0.3295
10097TIP3    H251783   2.540   2.586  10.646  0.1844 -0.4673 -1.4251
10098TIP3   OH251784   4.668   5.101   2.729 -0.0759 -0.4893 -0.3652
10098TIP3    H151785   4.741   5.053   2.768  0.3005  0.6425  0.3555
10098TIP3    H251786   4.590   5.054   2.758  0.2330 -0.0894  1.1870
10099TIP3   OH251787   5.917   3.032  13.908 -0.4555 -0.2453 -0.2275
10099TIP3    H151788   5.956   3.115  13.937  0.9778 -0.6678 -0.8844
10099TIP3    H251789   5.866   3.003  13.983 -0.9608  1.2035  0.0332
10100TIP3   OH251790   2.063   6.226  16.664  1.0123  0.4892 -0.0617
10100TIP3    H151791   2.006   6.274  16.725 -1.0573 -1.6748 -0.1699
10100TIP3    H251792   2.141   6.207  16.716  0.8933  1.9334  0.7006
10101TIP3   OH251793   3.418   5.857  10.651 -0.1822 -0.0463 -0.1181
10101TIP3    H151794   3.335   5.834  10.691  0.3011 -0.4846  0.6467
10101TIP3    H251795   3.416   5.953  10.644 -1.1178 -0.1115 -0.9488
10102TIP3   OH251796   4.277   2.274   3.089  0.0519  0.6687  0.3321
10102TIP3    H151797   4.183   2.258   3.089  0.0020  0.9249 -0.4780
10102TIP3    H251798   4.292   2.327   3.167 -0.4180  0.3395  0.6520
10103TIP3   OH251799   5.797   4.312   0.158 -0.0965  0.4014 -0.2749
10103TIP3    H151800   5.851   4.335   0.233 -1.3962 -0.2811  0.8986
10103TIP3    H251801   5.707   4.328   0.186 -0.6997 -1.1222 -1.2044
10104TIP3   OH251802   6.144   5.488  11.477  0.9422  0.0135  0.4933
10104TIP3    H151803   6.227   5.525  11.506  0.8943  0.3775  0.1757
10104TIP3    H251804   6.136   5.517  11.386 -0.1252  1.0226  0.8842
10105TIP3   OH251805   4.799   1.193   6.121  0.5380 -0.1959  0.1712
10105TIP3    H151806   4.859   1.260   6.088 -0.2399 -0.0362 -0.9464
10105TIP3    H251807   4.848   1.111   6.112  2.1476  0.2956  3.0619
10106TIP3   OH251808   3.957   5.236   5.150  0.3446  0.1104  0.2348
10106TIP3    H151809   4.046   5.270   5.162  1.0830 -1.6310  0.0829
10106TIP3    H251810   3.923   5.226   5.239  0.3973  0.5377  0.3048
10107TIP3   OH251811   4.762   4.661  15.356 -0.9539 -0.1130  0.0572
10107TIP3    H151812   4.789   4.648  15.265 -1.8554  1.8426 -0.5524
10107TIP3    H251813   4.844   4.672  15.404 -0.4936  0.2894 -0.7932
10108TIP3   OH251814   1.239   2.696  15.011  0.2301 -0.6562  0.3291
10108TIP3    H151815   1.327   2.725  15.035  1.1629 -1.1439 -2.1625
10108TIP3    H251816   1.254   2.621  14.954 -1.9337 -2.4055  1.9173
10109TIP3   OH251817   0.017   1.664  12.691 -0.2905  0.2130 -0.0935
10109TIP3    H151818   0.031   1.620  12.607  2.3361 -1.0178  0.8651
10109TIP3    H251819   0.069   1.744  12.685  1.0475 -0.5472  0.7754
10110TIP3   OH251820   1.572   2.726  16.599  0.6720  0.0386 -0.1342
10110TIP3    H151821   1.501   2.759  16.653  0.4571 -0.7582  0.0874
10110TIP3    H251822   1.554   2.759  16.511  0.0441 -0.1265 -0.0715
10111TIP3   OH251823   2.275   5.650   1.245 -0.1402  0.0390  0.2191
10111TIP3    H151824   2.338   5.722   1.241  0.6365 -0.5811  0.9041
10111TIP3    H251825   2.228   5.665   1.328 -0.3391  0.0490  0.1042
10112TIP3   OH251826   3.557   3.660  15.751 -0.5365  0.3581 -0.1397
10112TIP3    H151827   3.620   3.620  15.690 -0.9405 -0.7314  0.1403
10112TIP3    H251828   3.581   3.625  15.837 -1.8140 -0.4853 -0.0914
10113TIP3   OH251829   5.742   2.894  14.055  0.8607  0.6795 -0.3897
10113TIP3    H151830   5.651   2.922  14.061  1.2534  2.1502 -0.9643
10113TIP3    H251831   5.746   2.814  14.108 -0.4158  1.4632  0.9632
10114TIP3   OH251832   5.741   2.917  15.738  0.3553 -0.3979  0.4540
10114TIP3    H151833   5.723   3.005  15.704  2.2158 -1.1563 -2.9139
10114TIP3    H251834   5.829   2.923  15.776  0.1510 -0.6584  0.9880
10115TIP3   OH251835   1.146   5.773  13.596  0.4784  0.3281 -0.2797
10115TIP3    H151836   1.143   5.788  13.691  0.2042  0.3988 -0.2989
10115TIP3    H251837   1.237   5.789  13.572  0.5461  0.3249 -0.0304
10116TIP3   OH251838   6.021   3.325   3.064  0.6024  0.1475  0.6846
10116TIP3    H151839   5.933   3.354   3.089  0.1513  0.2046 -0.8206
10116TIP3    H251840   6.030   3.353   2.973  0.3297 -3.8527 -0.8007
10117TIP3   OH251841   6.340   2.543  11.218 -0.5930  1.0330 -0.0129
10117TIP3    H151842   6.432   2.522  11.234 -1.3204 -1.7304  1.1765
10117TIP3    H251843   6.331   2.540  11.123 -0.1723 -2.9260 -0.1003
10118TIP3   OH251844   0.046   3.363   1.129  0.6247  0.1001 -0.0273
10118TIP3    H151845   0.051   3.413   1.211 -1.3992  0.6246 -0.1684
10118TIP3    H251846   0.126   3.386   1.083  1.8769 -0.2959  1.8244
10119TIP3   OH251847   5.886   4.161   0.927 -0.0498  0.3375 -0.1964
10119TIP3    H151848   5.870   4.202   1.013 -2.1127  0.8129 -0.7537
10119TIP3    H251849   5.948   4.090   0.946  1.3200  1.8476  1.2851
10120TIP3   OH251850   5.818   4.432   5.169 -0.1812  0.0257 -0.3482
10120TIP3    H151851   5.851   4.520   5.152 -0.7575  0.4175  0.5108
10120TIP3    H251852   5.881   4.395   5.231  0.0986 -0.1932 -0.7620
10121TIP3   OH251853   3.641   6.730   5.917 -0.3588 -0.5527  0.2802
10121TIP3    H151854   3.604   6.641   5.913  0.2839 -0.7812 -1.1607
10121TIP3    H251855   3.635   6.762   5.828 -0.9592  1.0452  0.8667
10122TIP3   OH251856   1.057   2.545  10.962  0.5058 -0.8067  0.0653
10122TIP3    H151857   1.100   2.614  10.912 -0.8404 -0.1855 -0.2947
10122TIP3    H251858   1.048   2.472  10.901  0.4851 -0.7112 -0.0447
10123TIP3   OH251859   2.979   0.397   4.443 -0.0312  0.3563  0.6639
10123TIP3    H151860   2.890   0.420   4.470 -0.7805 -2.9170  1.4338
10123TIP3    H251861   2.967   0.330   4.376  1.9004  0.5934  0.0173
10124TIP3   OH251862   3.892   0.417   2.854  0.4124 -0.6632  0.5054
10124TIP3    H151863   3.976   0.388   2.817 -0.0674  1.6709 -2.8585
10124TIP3    H251864   3.914   0.499   2.899  0.1956 -1.0240  1.2834
10125TIP3   OH251865   4.599   6.072  15.368 -0.8217  0.1924  0.2293
10125TIP3    H151866   4.602   6.028  15.453  1.6899 -0.0872  0.0626
10125TIP3    H251867   4.603   6.000  15.304  0.1760  0.5023 -0.0735
10126TIP3   OH251868   0.802   3.881   6.379 -0.0454 -0.2556 -0.4012
10126TIP3    H151869   0.721   3.838   6.352  0.7759 -1.7675 -0.5976
10126TIP3    H251870   0.846   3.816   6.435  1.0297  0.5241 -0.3042
10127TIP3   OH251871   5.280   4.886  10.809  0.0439 -1.1399  0.2691
10127TIP3    H151872   5.234   4.945  10.750  3.4839  0.3180 -1.2060
10127TIP3    H251873   5.296   4.807  10.757  1.3512 -0.6372 -0.1175
10128TIP3   OH251874   4.134   5.070  14.203 -0.5073  0.0633 -0.2808
10128TIP3    H151875   4.131   5.081  14.107  0.5198 -0.7231 -0.4075
10128TIP3    H251876   4.064   5.007  14.221 -1.1147  0.6714 -0.4260
10129TIP3   OH251877   3.448   2.898   5.496 -0.6654  0.1346 -0.1382
10129TIP3    H151878   3.526   2.842   5.501 -0.2870  0.7451  1.4650
10129TIP3    H251879   3.375   2.837   5.484 -0.1514 -0.6380  0.5233
10130TIP3   OH251880   2.771   4.684   4.205  0.5817 -0.4956  0.1270
10130TIP3    H151881   2.714   4.647   4.138  1.6303  0.0948 -1.1604
10130TIP3    H251882   2.718   4.687   4.284 -1.0269 -0.3200 -0.9216
10131TIP3   OH251883   0.820   1.809  14.475  0.1497  0.0922  0.1301
10131TIP3    H151884   0.755   1.739  14.485 -1.4387  1.6691  1.5345
10131TIP3    H251885   0.886   1.789  14.542 -0.3804  0.0059  0.6417
10132TIP3   OH251886   1.097   5.385  12.982 -0.6415  0.0183 -0.4537
10132TIP3    H151887   1.187   5.365  13.009 -0.6772  1.2132  0.6560
10132TIP3    H251888   1.050   5.303  12.995  0.1161 -0.4104 -0.3142
10133TIP3   OH251889   5.861   3.926   6.212 -0.3123  0.4089  0.2478
10133TIP3    H151890   5.937   3.923   6.153 -0.0271  0.4909  0.6080
10133TIP3    H251891   5.856   3.838   6.248 -0.2192  0.4769  0.4312
10134TIP3   OH251892   6.193   4.987   1.928  0.1734  0.2258  0.0848
10134TIP3    H151893   6.107   5.023   1.951 -0.6132 -0.9029 -0.9725
10134TIP3    H251894   6.245   5.063   1.903 -0.0299  1.0980  2.0990
10135TIP3   OH251895   0.192   2.858   5.681  1.0312  0.1025 -0.2550
10135TIP3    H151896   0.109   2.866   5.633  0.3400  0.5674  0.9871
10135TIP3    H251897   0.166   2.846   5.772  2.3290 -0.7766  0.0262
10136TIP3   OH251898   3.732   1.258  13.228 -0.2242  0.5591  0.5072
10136TIP3    H151899   3.749   1.350  13.207  0.9328  0.6140  1.5873
10136TIP3    H251900   3.807   1.230  13.280 -1.8486 -0.1770  2.6431
10137TIP3   OH251901   0.680   6.521   3.159  0.5248  0.3634 -0.7849
10137TIP3    H151902   0.700   6.612   3.135  1.4758 -0.0955 -1.8620
10137TIP3    H251903   0.748   6.498   3.223 -0.3030  0.6971  0.2373
10138TIP3   OH251904   1.556   2.318  10.704 -0.6066  0.0319  0.0781
10138TIP3    H151905   1.479   2.264  10.686 -0.7187  0.1250  0.2738
10138TIP3    H251906   1.563   2.319  10.800 -1.0639  1.0115  0.1048
10139TIP3   OH251907   4.520   5.111   3.060 -0.0763 -0.1370 -0.0204
10139TIP3    H151908   4.472   5.044   3.109 -1.2961  1.8269  1.6514
10139TIP3    H251909   4.532   5.073   2.973 -2.2608 -1.8496  0.3301
10140TIP3   OH251910   5.243   5.382  12.491 -0.4548  0.1462 -0.2818
10140TIP3    H151911   5.300   5.358  12.418 -0.8096  0.7289 -0.7567
10140TIP3    H251912   5.295   5.361  12.569  0.4521  0.7368 -0.6969
10141TIP3   OH251913   3.621   4.499  12.417 -0.2939 -0.6772 -0.1152
10141TIP3    H151914   3.529   4.485  12.438 -0.4722 -0.4011 -0.6845
10141TIP3    H251915   3.661   4.526  12.500 -0.7220 -0.8160  0.1384
10142TIP3   OH251916   2.630   4.736   2.582 -0.6186 -0.1282 -0.2500
10142TIP3    H151917   2.589   4.808   2.630 -0.3000 -0.0382 -0.1009
10142TIP3    H251918   2.639   4.667   2.648  2.0041  0.8192  0.5470
10143TIP3   OH251919   3.969   5.840  11.780  0.1915  0.1079 -0.0034
10143TIP3    H151920   3.901   5.882  11.729 -0.7116 -0.9342  0.3095
10143TIP3    H251921   3.934   5.753  11.801  1.6293 -0.4739  0.1200
10144TIP3   OH251922   6.575   2.557  14.365 -0.0841  0.1060  0.0064
10144TIP3    H151923   6.651   2.512  14.329 -0.3123 -0.3962  0.1535
10144TIP3    H251924   6.587   2.552  14.460  0.1228  0.7591  0.0214
10145TIP3   OH251925   0.575   2.295   2.980  0.3390 -0.5638  0.2780
10145TIP3    H151926   0.548   2.386   2.997  0.4059 -0.5555  0.3397
10145TIP3    H251927   0.665   2.303   2.946  0.8654 -0.6969  1.5888
10146TIP3   OH251928   0.007   2.467  14.272  0.1927  0.6781 -0.1555
10146TIP3    H151929   0.087   2.517  14.284 -0.4605  2.0011 -1.0987
10146TIP3    H251930  -0.014   2.476  14.179  0.9728 -2.8584 -0.8333
10147TIP3   OH251931   6.343   0.493   5.297  0.4087  0.1314  0.0161
10147TIP3    H151932   6.383   0.574   5.264  1.6680 -0.9755 -1.3207
10147TIP3    H251933   6.327   0.441   5.219 -1.3175 -0.5395  0.7689
10148TIP3   OH251934   3.404   5.465  10.844 -0.0339  0.0963 -0.2134
10148TIP3    H151935   3.474   5.528  10.861 -0.9472  0.6346  1.9333
10148TIP3    H251936   3.400   5.458  10.749  1.3091  1.8724 -0.4549
10149TIP3   OH251937   5.524   5.859  15.431  0.1936 -0.1479 -0.0261
10149TIP3    H151938   5.612   5.831  15.456 -0.6405 -1.5749  1.5582
10149TIP3    H251939   5.481   5.780  15.399 -0.6297  0.4303 -0.3949
10150TIP3   OH251940   3.640   5.737  10.528  0.1645  0.2595  0.5292
10150TIP3    H151941   3.713   5.776  10.576  0.9895  0.1453 -0.5865
10150TIP3    H251942   3.562   5.766  10.575  0.9337 -0.0753  2.0894
10151TIP3   OH251943   1.808   3.280   3.791  0.0727 -0.5607 -0.2379
10151TIP3    H151944   1.848   3.242   3.870 -0.1811 -0.3479 -0.0060
10151TIP3    H251945   1.728   3.322   3.823 -0.6114 -1.4245 -0.7739
10152TIP3   OH251946   2.420   5.265  13.262 -0.1205 -0.4626 -0.0516
10152TIP3    H151947   2.352   5.277  13.196 -0.9173 -2.3547  0.3667
10152TIP3    H251948   2.448   5.174  13.252  0.3030 -0.5636  1.6938
10153TIP3   OH251949   1.352   3.817   5.388  0.4124 -0.3292 -0.3370
10153TIP3    H151950   1.327   3.726   5.405  0.9452 -0.2350  1.1285
10153TIP3    H251951   1.372   3.852   5.475  3.5892  0.1658 -1.1402
10154TIP3   OH251952   6.078   2.485   1.102  0.0140 -0.7154 -0.0497
10154TIP3    H151953   6.044   2.493   1.012 -0.0857  0.2355  0.0599
10154TIP3    H251954   6.001   2.497   1.157  0.7101  4.5892  0.3107
10155TIP3   OH251955   1.964   5.420  11.344 -0.1903  0.2421 -0.5848
10155TIP3    H151956   2.001   5.431  11.256 -2.0279 -1.0425 -1.5885
10155TIP3    H251957   1.898   5.351  11.333  0.4353 -0.9007  2.0940
10156TIP3   OH251958   1.495   3.046  14.261 -0.1271 -0.1512 -0.1729
10156TIP3    H151959   1.439   3.019  14.188 -0.8758 -3.7538  1.5189
10156TIP3    H251960   1.580   3.008  14.242  0.5921  1.5381 -0.5597
10157TIP3   OH251961   0.615   6.668   4.633  0.0465 -0.4249 -0.1849
10157TIP3    H151962   0.597   6.723   4.709 -1.3362 -1.5641  0.3726
10157TIP3    H251963   0.710   6.671   4.622  0.0680  1.4921  0.2231
10158TIP3   OH251964   0.138   5.768   0.298 -0.6265  0.2037 -0.5559
10158TIP3    H151965   0.209   5.809   0.347 -1.2373 -0.2362  0.7550
10158TIP3    H251966   0.175   5.685   0.267 -0.4609  0.1186 -0.1439
10159TIP3   OH251967   3.299   1.514  13.467 -0.1830  0.5329 -0.8239
10159TIP3    H151968   3.230   1.509  13.400 -1.2070  0.0480  0.2325
10159TIP3    H251969   3.297   1.428  13.509  0.5489  0.7854 -0.2661
10160TIP3   OH251970   4.283   3.275  12.563  0.2669 -0.2569 -0.2126
10160TIP3    H151971   4.218   3.339  12.533  0.5035  0.1584  0.1613
10160TIP3    H251972   4.332   3.252  12.484 -0.6830 -0.9918 -0.6197
10161TIP3   OH251973   5.453   1.123  13.361  0.1345 -0.2117 -0.3942
10161TIP3    H151974   5.398   1.144  13.436  1.1142  0.3927  0.1823
10161TIP3    H251975   5.439   1.196  13.300 -3.8565 -2.5942 -2.7953
10162TIP3   OH251976   3.861   3.777   4.994  0.2299 -0.5150 -0.0119
10162TIP3    H151977   3.866   3.766   5.089 -0.7257  0.5373  0.1719
10162TIP3    H251978   3.928   3.843   4.974  1.3451 -1.6825 -0.2621
10163TIP3   OH251979   1.567   1.174  16.478 -0.3948  0.4663  0.0787
10163TIP3    H151980   1.499   1.167  16.545  0.3619 -2.8681  0.7105
10163TIP3    H251981   1.538   1.114  16.409  1.3319 -0.2110 -0.1097
10164TIP3   OH251982   3.285   2.727   2.243 -0.2822  0.4937 -0.0083
10164TIP3    H151983   3.327   2.801   2.200  0.6029  0.0856  0.1392
10164TIP3    H251984   3.191   2.741   2.228 -0.0101  0.2755 -2.2168
10165TIP3   OH251985   6.085   2.945   5.000  0.5766 -0.0883 -0.1652
10165TIP3    H151986   6.038   2.863   5.012 -0.3788  0.3298 -0.8912
10165TIP3    H251987   6.123   2.964   5.085 -1.1030 -0.1450  0.6418
10166TIP3   OH251988   4.990   0.392   1.196  0.1594 -0.2838  0.1875
10166TIP3    H151989   4.900   0.400   1.225 -1.0336  0.5322 -3.2429
10166TIP3    H251990   5.016   0.481   1.173  0.1354 -0.9953 -3.0821
10167TIP3   OH251991   1.722   0.331   2.100  0.0080 -0.7935  0.0256
10167TIP3    H151992   1.727   0.423   2.075  0.4618 -0.9542 -0.4972
10167TIP3    H251993   1.629   0.309   2.093  0.0222 -0.6287 -0.7960
10168TIP3   OH251994   5.150   0.223   5.086 -0.2108  0.0491 -0.3624
10168TIP3    H151995   5.056   0.208   5.097 -0.3389  2.3044  3.1723
10168TIP3    H251996   5.164   0.213   4.992 -3.3260 -3.3344 -0.7293
10169TIP3   OH251997   2.180   4.824   1.816  0.3016 -0.1354  0.6535
10169TIP3    H151998   2.175   4.773   1.897  0.7350 -1.0254  0.1319
10169TIP3    H251999   2.257   4.879   1.827  0.0088  0.1921  1.0932
10170TIP3   OH252000   1.701   1.820  16.350 -0.1411 -0.0832 -1.0507
10170TIP3    H152001   1.785   1.781  16.374 -0.3225  0.3167  0.3005
10170TIP3    H252002   1.638   1.782  16.412 -0.7135  0.6665 -1.1613
10171TIP3   OH252003   6.021   2.334   2.505 -0.6994  0.4763 -0.4660
10171TIP3    H152004   5.971   2.307   2.429 -1.4809  1.6735 -0.3837
10171TIP3    H252005   5.987   2.420   2.529 -1.7097 -0.5740  2.2833
10172TIP3   OH252006   1.736   2.849   5.537  0.1191  0.5727 -0.5148
10172TIP3    H152007   1.795   2.778   5.511  2.3287  1.8578  0.7915
10172TIP3    H252008   1.677   2.858   5.462  1.2926 -1.0295 -1.7210
10173TIP3   OH252009   0.670   2.768  16.867  0.2795 -0.5343  0.4033
10173TIP3    H152010   0.578   2.743  16.867  0.2198 -0.3211  0.7659
10173TIP3    H252011   0.695   2.766  16.959  1.2538 -2.8672  0.1605
10174TIP3   OH252012   2.195   0.206  15.647 -0.2717 -0.7000 -0.4449
10174TIP3    H152013   2.125   0.236  15.704 -0.6975  0.0370 -1.3196
10174TIP3    H252014   2.206   0.277  15.584  0.5447 -1.2610 -0.9490
10175TIP3   OH252015   1.117   4.603  15.929 -0.1155  0.5670 -0.4024
10175TIP3    H152016   1.080   4.550  15.999  2.9052  0.3212  1.1906
10175TIP3    H252017   1.153   4.540  15.866  2.1035  0.5907  0.7236
10176TIP3   OH252018   1.193   5.421  12.612 -0.7057  0.1469  0.0549
10176TIP3    H152019   1.199   5.440  12.519 -2.2554  0.8166  0.0685
10176TIP3    H252020   1.173   5.327  12.616 -2.9606  0.5442 -0.4261
10177TIP3   OH252021   1.684   0.547   0.295  0.4296  0.1428 -0.1356
10177TIP3    H152022   1.634   0.624   0.324 -0.2666  0.4526 -1.9888
10177TIP3    H252023   1.763   0.548   0.348 -0.8104  0.5337  1.8235
10178TIP3   OH252024   2.402   1.310  13.810  0.0576 -0.2618  1.0350
10178TIP3    H152025   2.463   1.345  13.875  0.9769 -1.3024  0.7639
10178TIP3    H252026   2.375   1.386  13.759  0.9098  0.2680  1.3455
10179TIP3   OH252027   4.591   6.477  15.535 -0.2099  0.1640 -0.2445
10179TIP3    H152028   4.597   6.571  15.556 -0.7371  0.4251 -1.2143
10179TIP3    H252029   4.554   6.475  15.447 -3.0989 -1.0537  0.9053
10180TIP3   OH252030   5.774   1.195   3.045 -0.4000  0.2025  0.4422
10180TIP3    H152031   5.847   1.238   3.089 -0.7321 -0.3529  1.5713
10180TIP3    H252032   5.764   1.243   2.963  1.0150  0.4881  0.4160
10181TIP3   OH252033   4.157   1.170   0.931 -0.4104 -0.2636 -0.0613
10181TIP3    H152034   4.114   1.136   0.852  0.6375  2.2741 -1.8638
10181TIP3    H252035   4.248   1.141   0.923 -0.2278  0.2813  0.0570
10182TIP3   OH252036   1.432   1.076  12.591  0.4544  0.2520 -0.2014
10182TIP3    H152037   1.527   1.078  12.574  0.0922  1.2542 -2.4442
10182TIP3    H252038   1.405   0.989  12.562  0.7958 -0.3926  1.3320
10183TIP3   OH252039   4.610   6.447   2.593  0.1012  0.0002  0.7929
10183TIP3    H152040   4.524   6.450   2.550  0.3463  1.2051  0.3681
10183TIP3    H252041   4.647   6.364   2.564 -1.5000 -1.2780  2.1693
10184TIP3   OH252042   0.752   5.418   3.253 -0.0282  0.0985  0.1777
10184TIP3    H152043   0.717   5.330   3.265 -1.2198  0.5198 -0.0711
10184TIP3    H252044   0.760   5.428   3.158  1.2268 -0.1544  0.2450
10185TIP3   OH252045   1.672   4.934  14.556 -0.2311 -0.0879  0.0796
10185TIP3    H152046   1.751   4.879  14.561  0.1784  0.5154  0.3534
10185TIP3    H252047   1.706   5.022  14.538 -0.7186  0.5175  1.9648
10186TIP3   OH252048   2.256   0.269  15.055 -0.1839 -0.1201  0.1846
10186TIP3    H152049   2.310   0.238  15.128 -0.3861  0.8327  0.7487
10186TIP3    H252050   2.308   0.336  15.012 -0.5106  0.0957  0.1190
10187TIP3   OH252051   1.282   4.064  14.125 -0.0936 -0.2741 -0.0013
10187TIP3    H152052   1.268   4.022  14.041  1.8467 -1.0641  0.0081
10187TIP3    H252053   1.289   3.992  14.187 -0.3952  0.2482  0.6574
10188TIP3   OH252054   4.169   6.505  16.199  0.4402 -0.3679 -0.6403
10188TIP3    H152055   4.183   6.591  16.159 -2.4255 -0.3541 -1.8231
10188TIP3    H252056   4.234   6.448  16.157  1.6939  0.9714 -0.5842
10189TIP3   OH252057   0.350   0.422  12.524  0.5181  0.0762 -0.1419
10189TIP3    H152058   0.292   0.472  12.581  0.1375 -1.1286  0.5811
10189TIP3    H252059   0.382   0.351  12.579 -0.0506 -1.2729 -1.4639
10190TIP3   OH252060   4.253   1.171   2.323  0.2419 -0.5291 -0.0903
10190TIP3    H152061   4.308   1.236   2.281 -1.5334  1.7710  0.9156
10190TIP3    H252062   4.274   1.179   2.417 -0.6138 -0.7741  0.1320
10191TIP3   OH252063   1.824   5.420  15.750  0.4251 -0.6621  0.2542
10191TIP3    H152064   1.743   5.467  15.729  0.4229 -1.2848 -1.2222
10191TIP3    H252065   1.856   5.389  15.666  1.8319 -1.0432  0.9086
10192TIP3   OH252066   4.240   3.711   3.326  0.7918  0.0823  0.0161
10192TIP3    H152067   4.332   3.712   3.298  1.1459  1.4711  1.0806
10192TIP3    H252068   4.243   3.738   3.417 -0.8198  2.0688 -0.4505
10193TIP3   OH252069   6.395   5.156  13.967  0.5492  0.1557 -0.0723
10193TIP3    H152070   6.342   5.101  14.025 -2.3716  1.6574 -1.1208
10193TIP3    H252071   6.450   5.095  13.919 -1.0764 -1.6494  0.2697
10194TIP3   OH252072   0.844   3.404   4.003 -0.1002 -0.0831 -0.6049
10194TIP3    H152073   0.930   3.382   4.037  0.1933  0.0899 -1.2282
10194TIP3    H252074   0.855   3.489   3.961 -0.8168  0.4345  0.2239
10195TIP3   OH252075   3.037   0.388  16.234  0.9375 -0.1108 -0.5173
10195TIP3    H152076   3.056   0.443  16.158  0.1576 -0.9474 -1.3427
10195TIP3    H252077   2.969   0.435  16.282  1.3621  0.3696 -0.3781
10196TIP3   OH252078   1.667   0.591   4.221  0.1571  0.2651 -0.1733
10196TIP3    H152079   1.610   0.546   4.159 -0.7558  1.9143 -0.6132
10196TIP3    H252080   1.656   0.542   4.303 -1.9187  0.4917 -0.2512
10197TIP3   OH252081   1.657   5.143  15.708 -0.1225  0.3100  0.8369
10197TIP3    H152082   1.749   5.162  15.726 -0.0154  1.0876 -0.4294
10197TIP3    H252083   1.635   5.198  15.633 -1.6359  0.1618  1.1294
10198TIP3   OH252084   1.039   1.731   0.520  0.1069  0.0955  0.4682
10198TIP3    H152085   1.080   1.785   0.588  0.3801  0.7288 -0.1804
10198TIP3    H252086   1.072   1.643   0.537 -0.4655  0.0789  1.6397
10199TIP3   OH252087   0.224   4.631   1.117  0.3889 -0.0296  0.3145
10199TIP3    H152088   0.272   4.677   1.048  0.4687 -0.1260  0.3048
10199TIP3    H252089   0.251   4.539   1.107 -0.6727 -0.2779 -0.4356
10200TIP3   OH252090   3.213   3.139   5.548 -0.1647  0.1060 -0.3545
10200TIP3    H152091   3.157   3.210   5.515 -0.0686 -0.1579 -1.0984
10200TIP3    H252092   3.196   3.137   5.642 -0.3243  0.9839 -0.3519
10201TIP3   OH252093   0.020   4.547   1.921 -0.1328 -0.0917 -0.3130
10201TIP3    H152094  -0.047   4.614   1.912  0.4462  0.5786  0.2243
10201TIP3    H252095  -0.011   4.493   1.995 -0.3933 -0.1740 -0.4799
10202TIP3   OH252096   5.538   3.775  11.202  0.5020 -0.3310 -0.3632
10202TIP3    H152097   5.525   3.701  11.143  1.0435 -1.2756  0.6654
10202TIP3    H252098   5.632   3.793  11.199  0.2630  0.9437 -1.3021
10203TIP3   OH252099   0.192   4.752  16.163  0.0704  0.6974 -0.1117
10203TIP3    H152100   0.259   4.808  16.202  2.1028 -0.4670 -1.7335
10203TIP3    H252101   0.111   4.801  16.175  0.7260  1.1379  4.0494
10204TIP3   OH252102   6.412   4.267   4.326  0.2922  0.6889 -0.1593
10204TIP3    H152103   6.436   4.200   4.391 -0.4451  1.6323  1.1434
10204TIP3    H252104   6.317   4.276   4.335 -0.0882 -0.2530 -2.5170
10205TIP3   OH252105   5.065   4.058  11.698 -0.0155 -0.0643  0.2964
10205TIP3    H152106   5.118   4.072  11.776  1.9627 -1.8307 -0.6446
10205TIP3    H252107   5.109   4.109  11.630 -1.5415  1.2083  0.2100
10206TIP3   OH252108   4.747   1.317  13.252  0.1435 -0.0661 -0.1427
10206TIP3    H152109   4.838   1.331  13.226  0.4079 -2.4704 -0.7303
10206TIP3    H252110   4.736   1.369  13.331  1.7156  1.0611 -0.6280
10207TIP3   OH252111   1.142   2.877   4.773  0.3072  0.0930  0.6501
10207TIP3    H152112   1.092   2.842   4.700  0.1334  0.3991  0.6191
10207TIP3    H252113   1.231   2.885   4.741  0.5275 -1.0860  0.9119
10208TIP3   OH252114   6.551   3.561   2.647  0.9453 -0.1160  0.0593
10208TIP3    H152115   6.579   3.587   2.560  0.9489  0.4348  0.2221
10208TIP3    H252116   6.583   3.630   2.705  2.0122 -1.0741  0.6715
10209TIP3   OH252117   0.598   0.517   3.391 -0.0076 -0.2397 -0.3478
10209TIP3    H152118   0.551   0.476   3.318  0.0138 -1.4100  0.2783
10209TIP3    H252119   0.580   0.460   3.465 -0.1535  1.0186  0.6056
10210TIP3   OH252120   0.753   3.937  13.774 -0.0245  0.4082  0.1429
10210TIP3    H152121   0.848   3.953  13.768 -0.0341  1.1754  1.5088
10210TIP3    H252122   0.714   4.024  13.759 -0.5959 -0.1031 -1.5326
10211TIP3   OH252123   1.795   5.070   1.022  0.4190 -0.0586  0.0623
10211TIP3    H152124   1.827   4.980   1.020 -2.3451 -1.2039  1.9115
10211TIP3    H252125   1.789   5.092   1.115  1.8110  2.4123 -0.3522
10212TIP3   OH252126   0.183   3.823  16.282 -0.0761  0.0480  0.1084
10212TIP3    H152127   0.244   3.751  16.265 -2.1528 -1.3851 -1.8454
10212TIP3    H252128   0.119   3.786  16.344 -0.7145  0.4489 -0.3001
10213TIP3   OH252129   2.468   0.217  15.222  0.4338 -0.3557 -0.8321
10213TIP3    H152130   2.478   0.298  15.272 -1.7837  0.6349 -1.8375
10213TIP3    H252131   2.449   0.150  15.288 -1.5394  0.7413 -0.1937
10214TIP3   OH252132   5.263   1.765  13.061  0.0174  0.5805  0.2661
10214TIP3    H152133   5.342   1.767  13.008 -0.0617  3.0328  0.1186
10214TIP3    H252134   5.295   1.774  13.151 -0.0660  2.1862  0.1643
10215TIP3   OH252135   5.919   1.878   6.270  0.6381 -0.1614 -0.2217
10215TIP3    H152136   5.852   1.809   6.271 -0.7588  1.0251 -2.7263
10215TIP3    H252137   5.972   1.859   6.192 -0.8229  2.3977 -1.9890
10216TIP3   OH252138   6.400   4.811   5.717  0.4315  0.3014 -0.3856
10216TIP3    H152139   6.443   4.728   5.697  0.2885  0.4117 -1.1756
10216TIP3    H252140   6.472   4.873   5.732  0.5748 -0.3845  2.1728
10217TIP3   OH252141   4.482   6.374   3.920 -0.3034 -0.0375  0.0275
10217TIP3    H152142   4.476   6.372   4.016 -2.1904 -2.0820 -0.0563
10217TIP3    H252143   4.402   6.419   3.892 -0.6324 -0.9729 -0.5921
10218TIP3   OH252144   3.200   4.088  13.756 -0.5413  0.5031 -0.0998
10218TIP3    H152145   3.252   4.077  13.676 -0.5081 -0.0301 -0.0078
10218TIP3    H252146   3.157   4.173  13.744 -0.2466  0.6014 -0.5166
10219TIP3   OH252147   5.044   1.062  16.908  0.2491 -0.0374 -0.5732
10219TIP3    H152148   4.962   1.103  16.882  0.8814  2.0546  0.5084
10219TIP3    H252149   5.051   1.080  17.002  0.0313 -3.7189  0.2952
10220TIP3   OH252150   4.484   4.937  12.913  0.0991  0.0019 -0.5175
10220TIP3    H152151   4.551   4.985  12.963 -1.9746  0.0782  2.4363
10220TIP3    H252152   4.510   4.845  12.920 -0.2425 -0.0049  0.9305
10221TIP3   OH252153   5.840   1.990   5.478  0.2701 -0.6837 -0.2247
10221TIP3    H152154   5.872   2.047   5.409 -0.6222 -0.3313 -0.3641
10221TIP3    H252155   5.816   1.909   5.434 -0.4598 -0.3982 -0.3666
10222TIP3   OH252156   1.828   2.607  16.162  0.0071 -0.1726 -0.6994
10222TIP3    H152157   1.879   2.685  16.186  0.4101 -0.2995 -1.1265
10222TIP3    H252158   1.887   2.556  16.107 -0.6994 -0.1596 -1.4879
10223TIP3   OH252159   4.905   4.900  11.130 -0.1844  0.0163  0.0610
10223TIP3    H152160   4.831   4.867  11.079  0.6816  0.5264 -1.6284
10223TIP3    H252161   4.882   4.883  11.221 -1.9128 -0.7471 -0.4816
10224TIP3   OH252162   2.531   0.330  12.619 -0.7328 -0.4498  0.0019
10224TIP3    H152163   2.533   0.324  12.524  2.4772 -0.3969 -0.0183
10224TIP3    H252164   2.539   0.239  12.649 -1.7098 -0.4657  0.2520
10225TIP3   OH252165   3.777   0.350   5.326  0.1526 -0.6248  0.8350
10225TIP3    H152166   3.833   0.375   5.400  0.5401 -2.8153  1.3620
10225TIP3    H252167   3.804   0.261   5.304 -1.6290 -0.9356 -0.3609
10226TIP3   OH252168   1.468   5.292  13.843  0.6601  0.0145 -0.1504
10226TIP3    H152169   1.473   5.197  13.852  0.3522  0.1413  1.9978
10226TIP3    H252170   1.434   5.322  13.928  2.1607  2.1441 -0.2120
10227TIP3   OH252171   6.427   5.247  15.858  0.2859  0.4382 -0.5055
10227TIP3    H152172   6.346   5.287  15.828 -0.4553 -0.7366 -0.1577
10227TIP3    H252173   6.491   5.267  15.790 -0.4822  0.7656 -1.1365
10228TIP3   OH252174   2.767   1.495  13.603  0.7166  0.1366  0.4895
10228TIP3    H152175   2.739   1.407  13.577  0.0936  0.5984 -0.4550
10228TIP3    H252176   2.697   1.528  13.659  1.9827 -0.7942  2.7570
10229TIP3   OH252177   0.294   6.170  10.766  0.1290 -0.4004  0.2977
10229TIP3    H152178   0.341   6.246  10.732 -0.4916 -0.3907 -0.5916
10229TIP3    H252179   0.347   6.095  10.740  0.0873 -0.3417  0.0368
10230TIP3   OH252180   6.301   0.853  11.321 -0.3790 -0.2895 -0.3637
10230TIP3    H152181   6.209   0.828  11.308 -0.5230  1.5046 -4.1232
10230TIP3    H252182   6.299   0.948  11.329  1.1096 -0.2384 -0.3246
10231TIP3   OH252183   1.553   4.548   3.304 -0.2352 -0.0707  0.1863
10231TIP3    H152184   1.535   4.454   3.306 -1.5261  0.1601  0.7837
10231TIP3    H252185   1.626   4.557   3.243  1.3518 -1.6681  1.7169
10232TIP3   OH252186   3.600   3.832   5.255 -0.4066 -0.2476  0.1834
10232TIP3    H152187   3.660   3.885   5.307 -0.8395 -0.2828  0.7236
10232TIP3    H252188   3.637   3.744   5.259  0.5098  0.0499 -1.0084
10233TIP3   OH252189   0.581   5.060  16.620 -0.3104  0.6578  0.0840
10233TIP3    H152190   0.526   5.120  16.669 -0.7710  0.2508  0.0792
10233TIP3    H252191   0.665   5.059  16.667 -0.5940  0.6207  0.5880
10234TIP3   OH252192   6.511   1.599  12.462  0.2134 -0.2235 -0.9962
10234TIP3    H152193   6.477   1.536  12.526  0.6353 -1.4707 -1.9779
10234TIP3    H252194   6.441   1.607  12.398 -0.1930  1.0007 -0.4372
10235TIP3   OH252195   2.749   6.317  15.783 -0.3084  0.2907  0.2294
10235TIP3    H152196   2.732   6.316  15.689 -0.3432  0.8835  0.2238
10235TIP3    H252197   2.741   6.226  15.810 -0.7248  0.1768 -0.2654
10236TIP3   OH252198   5.067   4.957   5.350 -0.0509  0.6874 -0.5543
10236TIP3    H152199   5.132   5.021   5.379 -0.9116  1.6575 -0.7166
10236TIP3    H252200   5.011   5.005   5.290 -2.0603  0.4171  0.9826
10237TIP3   OH252201   3.668   1.149   5.705 -0.2624  0.6042 -0.5736
10237TIP3    H152202   3.629   1.159   5.792 -1.4475  0.8280 -1.1017
10237TIP3    H252203   3.659   1.236   5.666  1.2578  0.7945 -0.5421
10238TIP3   OH252204   6.603   1.009  16.696 -0.1882  0.1112  0.1310
10238TIP3    H152205   6.698   1.005  16.683 -0.3213  2.7894 -2.5077
10238TIP3    H252206   6.591   1.069  16.769  0.1437  1.3625 -0.8204
10239TIP3   OH252207   1.970   1.954   5.779 -0.2081 -0.2310 -0.2588
10239TIP3    H152208   1.937   2.037   5.812  1.5721  0.5920 -0.4223
10239TIP3    H252209   2.047   1.936   5.833 -0.6336 -1.8531 -0.1400
10240TIP3   OH252210   1.018   0.817   0.677 -0.1966 -0.7079 -0.1927
10240TIP3    H152211   0.926   0.793   0.665 -0.0085 -1.1037 -0.9229
10240TIP3    H252212   1.066   0.736   0.660  0.2386 -0.7786  1.2448
10241TIP3   OH252213   5.039   1.497   4.220 -0.4175 -0.4699  0.1079
10241TIP3    H152214   4.986   1.433   4.267 -0.9751  0.6150  1.0015
10241TIP3    H252215   5.073   1.555   4.289  0.2846  0.0506 -0.6550
10242TIP3   OH252216   4.015   4.589  14.365  0.2531  0.0344 -0.0710
10242TIP3    H152217   4.007   4.574  14.271  0.5689  0.3259 -0.1474
10242TIP3    H252218   3.944   4.538  14.404 -0.0471  0.1313 -0.4882
10243TIP3   OH252219   0.005   4.931  15.834 -0.1443 -0.4500  0.4520
10243TIP3    H152220   0.088   4.890  15.809 -1.1309 -2.0159 -0.4739
10243TIP3    H252221   0.027   4.986  15.909  2.0272  0.4887 -0.7751
10244TIP3   OH252222   2.795   5.658  11.046 -0.1437 -0.6595  0.1646
10244TIP3    H152223   2.873   5.712  11.055 -1.7271  1.5574  1.6579
10244TIP3    H252224   2.775   5.658  10.953 -0.4592  1.9879  0.1736
10245TIP3   OH252225   2.069   0.931  10.445 -0.7600 -0.0876 -0.1958
10245TIP3    H152226   2.021   0.865  10.395 -1.4097 -0.7170  1.2028
10245TIP3    H252227   2.001   0.980  10.490 -0.1944  0.5079  0.0155
10246TIP3   OH252228   6.453   6.361   0.485  0.2924 -0.1296  0.1815
10246TIP3    H152229   6.512   6.405   0.423 -0.1733 -2.3738 -2.0146
10246TIP3    H252230   6.498   6.367   0.569  2.1996  0.8584 -0.8268
10247TIP3   OH252231   0.202   2.826  12.182  0.4730 -0.0051 -0.2513
10247TIP3    H152232   0.204   2.866  12.095  0.0361 -1.7253 -1.1086
10247TIP3    H252233   0.261   2.879  12.234 -0.2519  1.8591 -1.2340
10248TIP3   OH252234   3.924   6.090   4.166 -0.0134 -0.8198  0.0483
10248TIP3    H152235   3.979   6.132   4.100 -0.5155 -0.3717 -0.0891
10248TIP3    H252236   3.885   6.015   4.121 -0.0331 -0.7554 -0.0416
10249TIP3   OH252237   5.675   0.217   1.128  0.8029  0.2223  0.5153
10249TIP3    H152238   5.630   0.250   1.205  0.8823 -0.0675  0.6871
10249TIP3    H252239   5.755   0.176   1.163  1.4361  1.1229  0.1860
10250TIP3   OH252240   2.485   6.596   0.278  0.1823  0.0978  0.2029
10250TIP3    H152241   2.570   6.581   0.319 -0.1898  2.2114  1.8801
10250TIP3    H252242   2.445   6.509   0.275  1.4618 -0.5823  1.5152
10251TIP3   OH252243   4.222   5.209   4.052 -0.2825  0.5299  0.6463
10251TIP3    H152244   4.300   5.227   4.105  0.6261  2.9435 -1.2534
10251TIP3    H252245   4.253   5.151   3.983 -0.4674  0.5020  0.5862
10252TIP3   OH252246   5.437   6.740   5.583  0.0734 -0.3704 -0.1846
10252TIP3    H152247   5.473   6.745   5.494 -0.7654 -0.8158 -0.5703
10252TIP3    H252248   5.431   6.646   5.600 -0.4515 -0.2983  0.0451
10253TIP3   OH252249   2.363   5.150  15.360  0.1752  0.7168  0.5348
10253TIP3    H152250   2.450   5.141  15.399 -0.3471 -2.5299  1.2589
10253TIP3    H252251   2.328   5.061  15.358 -2.4628  1.6481 -1.3842
10254TIP3   OH252252   2.124   1.102   3.839 -0.1269 -0.2003  0.1408
10254TIP3    H152253   2.095   1.115   3.930  1.1408  3.6512  0.1637
10254TIP3    H252254   2.186   1.029   3.844  0.5932  0.4913  2.5852
10255TIP3   OH252255   1.028   4.369  16.216  0.9401  0.6941 -0.3778
10255TIP3    H152256   1.115   4.406  16.202  0.9134  1.0961  0.4626
10255TIP3    H252257   1.043   4.278  16.239  1.1023  0.6120 -0.8002
10256TIP3   OH252258   6.120   3.983   3.732 -0.4931  0.0720  0.1416
10256TIP3    H152259   6.052   4.043   3.703  0.3412  0.7061 -0.5650
10256TIP3    H252260   6.201   4.033   3.725  0.2163 -1.1000 -0.4085
10257TIP3   OH252261   5.885   0.733  14.090 -0.0127 -0.3898 -0.3428
10257TIP3    H152262   5.917   0.652  14.052  1.9820 -0.8687  2.0762
10257TIP3    H252263   5.959   0.794  14.082 -0.5910  0.3961  0.1201
10258TIP3   OH252264   2.870   1.159   2.956 -0.0695  0.7668 -0.4210
10258TIP3    H152265   2.833   1.176   2.870  1.2864  1.3709 -0.9089
10258TIP3    H252266   2.808   1.099   2.998 -1.0201  0.9059 -1.5989
10259TIP3   OH252267   5.581   3.311  12.168  0.1787  0.0717 -0.4332
10259TIP3    H152268   5.517   3.244  12.195  0.0206  0.7359  0.9523
10259TIP3    H252269   5.635   3.268  12.102  0.3120 -1.5598  0.6766
10260TIP3   OH252270   1.176   1.157  17.275 -0.1012  0.8692  0.3420
10260TIP3    H152271   1.219   1.200  17.201 -0.3916 -1.6952 -1.4435
10260TIP3    H252272   1.114   1.097  17.234  0.8742 -1.8547  2.5563
10261TIP3   OH252273   1.305   4.403  16.246  0.0809 -0.2979  0.1519
10261TIP3    H152274   1.352   4.337  16.195  1.3152  0.7641 -0.1464
10261TIP3    H252275   1.313   4.374  16.337  0.0928 -0.8717 -0.0298
10262TIP3   OH252276   4.069   2.333  15.515 -0.0465 -0.1617  1.1080
10262TIP3    H152277   4.044   2.397  15.449 -0.8195  0.9256  2.4130
10262TIP3    H252278   3.995   2.272  15.520 -2.1006  2.2890  4.0160
10263TIP3   OH252279   4.289   0.872   3.135  0.1784 -0.2122 -0.1619
10263TIP3    H152280   4.269   0.947   3.191  1.5513 -0.7917  1.1834
10263TIP3    H252281   4.250   0.798   3.181  0.7094 -0.6074 -0.3439
10264TIP3   OH252282   1.342   4.790   0.466  0.0357  0.2767  0.3494
10264TIP3    H152283   1.388   4.796   0.550  1.8558 -1.4403 -0.4188
10264TIP3    H252284   1.288   4.711   0.474  1.5285 -0.8949 -0.6084
10265TIP3   OH252285   5.966   4.199   2.224 -0.4332  0.2456 -0.1956
10265TIP3    H152286   6.011   4.117   2.204 -0.0130  0.3209  0.4091
10265TIP3    H252287   5.983   4.255   2.148 -0.3327 -0.0664 -0.4042
10266TIP3   OH252288   5.596   0.143  12.440 -0.2939 -0.5735  0.3735
10266TIP3    H152289   5.671   0.149  12.500  0.8596  0.8588 -1.1166
10266TIP3    H252290   5.612   0.063  12.390 -0.5651 -1.0616  1.0483
10267TIP3   OH252291   4.132   1.007   5.467  0.2634  0.2653 -0.1718
10267TIP3    H152292   4.053   1.020   5.519  0.3898  2.1768 -0.3657
10267TIP3    H252293   4.114   0.929   5.415 -0.3836 -0.9229  1.7340
10268TIP3   OH252294   0.799   4.061  16.339 -1.1716 -0.6445  0.6358
10268TIP3    H152295   0.859   4.135  16.342 -0.7247 -0.8176 -1.7943
10268TIP3    H252296   0.852   3.985  16.362 -0.1205 -0.9144 -2.2962
10269TIP3   OH252297   3.193   1.984  15.598 -0.3107 -0.1093  0.4473
10269TIP3    H152298   3.125   2.040  15.635  0.6662  1.0156  0.5908
10269TIP3    H252299   3.274   2.016  15.636  0.7351  0.9518 -2.4265
10270TIP3   OH252300   2.925   4.235   5.275  0.1596  0.5158  0.0552
10270TIP3    H152301   3.018   4.252   5.261  0.5643 -0.5634  1.1823
10270TIP3    H252302   2.908   4.266   5.364 -0.7386  1.3048 -0.3723
10271TIP3   OH252303   6.614   5.845   4.860 -0.2161  0.7691  0.2168
10271TIP3    H152304   6.571   5.823   4.777  0.6078  0.7126 -0.2036
10271TIP3    H252305   6.600   5.768   4.915 -0.9685  0.9008  0.2196
10272TIP3   OH252306   2.205   6.435  15.331 -0.3608  0.0356 -0.6980
10272TIP3    H152307   2.170   6.434  15.420 -0.3536 -1.2353 -0.6877
10272TIP3    H252308   2.292   6.473  15.340 -0.4241  0.0664 -0.1871
10273TIP3   OH252309   1.818   5.596   4.789  0.6596  0.0629  0.7131
10273TIP3    H152310   1.814   5.672   4.847  1.6374  0.6366  0.0428
10273TIP3    H252311   1.798   5.522   4.846 -0.3340  0.8040  1.3743
10274TIP3   OH252312   0.146   4.768  14.744 -0.5798 -0.0161 -0.1153
10274TIP3    H152313   0.062   4.813  14.757 -0.3784  0.1576  0.6224
10274TIP3    H252314   0.134   4.683  14.789 -0.6022 -0.2799 -0.6157
10275TIP3   OH252315   0.497   3.899  14.446  0.2312 -0.7718  0.5346
10275TIP3    H152316   0.474   3.990  14.463 -1.1300 -0.5702 -1.8989
10275TIP3    H252317   0.592   3.900  14.434  0.2221  0.3302  0.5132
10276TIP3   OH252318   1.134   5.139   2.662  0.6391 -0.1249 -0.1218
10276TIP3    H152319   1.077   5.157   2.588 -1.2358  0.4142  1.3663
10276TIP3    H252320   1.222   5.137   2.625 -0.3694 -1.8515 -2.6678
10277TIP3   OH252321   4.800   1.158   5.765 -0.2498  0.9753  0.5943
10277TIP3    H152322   4.799   1.082   5.823 -1.3074  0.3806 -0.1825
10277TIP3    H252323   4.879   1.147   5.712 -0.5151  0.2890  0.3294
10278TIP3   OH252324   6.809   5.397  15.190 -0.3245  0.7454 -0.0095
10278TIP3    H152325   6.863   5.450  15.132  2.2157 -0.7009  0.8786
10278TIP3    H252326   6.775   5.458  15.255  2.2702  1.4330  0.8246
10279TIP3   OH252327   6.616   0.249   4.126  0.0006 -0.4131 -0.6106
10279TIP3    H152328   6.605   0.214   4.214  2.0198 -0.8771 -0.4933
10279TIP3    H252329   6.537   0.302   4.111 -1.0245 -1.4220  0.9174
10280TIP3   OH252330   3.253   6.591  12.762  0.0709  0.1460  0.7452
10280TIP3    H152331   3.323   6.654  12.745 -0.8802  0.9510 -0.4127
10280TIP3    H252332   3.194   6.636  12.822 -0.7322  0.5087 -0.2655
10281TIP3   OH252333   5.293   2.279  10.844 -0.2059 -0.0535  0.0329
10281TIP3    H152334   5.214   2.332  10.838 -1.0614 -1.2437  0.4409
10281TIP3    H252335   5.358   2.326  10.791  0.0813  3.0698  2.8654
10282TIP3   OH252336   5.571   4.341  13.767  0.3480  0.1469  0.1084
10282TIP3    H152337   5.595   4.324  13.676  1.7659 -1.4515  0.7238
10282TIP3    H252338   5.653   4.370  13.808 -0.4589  1.7012  0.7110
10283TIP3   OH252339   3.878   6.572  14.737 -0.1597 -0.6945  0.2137
10283TIP3    H152340   3.816   6.629  14.783  0.0535 -2.2826  2.6961
10283TIP3    H252341   3.828   6.537  14.663 -0.9813  0.9372 -0.0545
10284TIP3   OH252342   6.421   3.758  12.699  0.1787 -0.4916  0.0713
10284TIP3    H152343   6.360   3.701  12.653  0.3649 -0.1086 -0.6741
10284TIP3    H252344   6.505   3.743  12.656  0.0377  1.0577 -0.8259
10285TIP3   OH252345   0.148   1.286   5.709  0.0792  0.2361  0.2584
10285TIP3    H152346   0.085   1.339   5.661 -0.4852 -0.4427  0.2460
10285TIP3    H252347   0.204   1.247   5.642  0.5338  0.8482  0.2704
10286TIP3   OH252348   5.358   3.651   3.719  0.2711 -0.1697 -0.1299
10286TIP3    H152349   5.419   3.578   3.710 -0.8571 -1.1468 -0.1452
10286TIP3    H252350   5.393   3.703   3.791 -0.4171 -2.3590  1.9239
10287TIP3   OH252351   3.919   1.324  12.295 -0.1708 -0.6829  0.0389
10287TIP3    H152352   3.898   1.320  12.202  0.2640 -1.6305 -0.0296
10287TIP3    H252353   4.012   1.343  12.299 -0.2571 -0.2885  0.2938
10288TIP3   OH252354   0.798   1.320   0.850  0.1264  0.2947  0.4665
10288TIP3    H152355   0.870   1.371   0.814 -0.7981  1.3098 -0.0040
10288TIP3    H252356   0.752   1.380   0.908 -1.3651  0.2387 -0.6023
10289TIP3   OH252357   4.842   2.357  11.859  0.5685  0.0370 -0.0606
10289TIP3    H152358   4.903   2.409  11.809  1.5798 -0.5088  0.5702
10289TIP3    H252359   4.873   2.362  11.949  0.3742 -1.1876  0.1029
10290TIP3   OH252360   3.417   6.793   3.529 -0.2002  0.4650  0.1108
10290TIP3    H152361   3.433   6.760   3.617  0.6108 -0.4027 -0.3369
10290TIP3    H252362   3.483   6.861   3.517 -0.1661  0.4299  0.0975
10291TIP3   OH252363   0.532   5.728  16.733 -0.2774 -0.1821  0.4294
10291TIP3    H152364   0.609   5.764  16.690  2.2509 -0.8831  3.9207
10291TIP3    H252365   0.491   5.802  16.776 -2.5319  0.4321 -2.4403
10292TIP3   OH252366   4.618   1.157  14.079 -0.5605  0.4506  0.2224
10292TIP3    H152367   4.539   1.185  14.033 -2.8568 -3.4978  1.2706
10292TIP3    H252368   4.596   1.162  14.172  0.7057 -0.0257  0.5740
10293TIP3   OH252369   3.096   3.024  10.751 -0.0401 -0.0312 -0.2231
10293TIP3    H152370   3.052   3.108  10.735  1.2597  0.6652 -0.2830
10293TIP3    H252371   3.042   2.981  10.817  0.0107  1.4706  0.8479
10294TIP3   OH252372   0.677   3.536  14.343  0.5559  0.3277 -0.6457
10294TIP3    H152373   0.693   3.625  14.312  0.8169  0.1395 -1.0578
10294TIP3    H252374   0.612   3.500  14.283  1.7123 -0.3363 -1.5382
10295TIP3   OH252375   2.780   2.985   2.142 -0.5174 -0.0468 -0.3023
10295TIP3    H152376   2.710   2.961   2.202  1.0740 -1.4597  1.0708
10295TIP3    H252377   2.736   3.036   2.074 -2.6526  0.2006  1.1597
10296TIP3   OH252378   6.060   0.462  12.840  0.1602 -0.1523 -0.7225
10296TIP3    H152379   5.997   0.435  12.774 -2.4259 -0.5176  1.7172
10296TIP3    H252380   6.052   0.558  12.843  0.5254 -0.1065 -1.1452
10297TIP3   OH252381   1.496   1.064  13.047 -0.5072  0.1122  0.3052
10297TIP3    H152382   1.559   1.029  12.983 -1.1040 -0.7910  0.1940
10297TIP3    H252383   1.551   1.104  13.114  0.1916 -0.5030  0.1235
10298TIP3   OH252384   2.463   5.999  13.139  0.4899 -0.2857 -0.0115
10298TIP3    H152385   2.538   5.963  13.187  0.6576  0.3284  0.1904
10298TIP3    H252386   2.416   6.052  13.203  0.9344  0.8695 -0.6222
10299TIP3   OH252387   3.065   1.771   4.253 -0.2107 -0.5169  0.4777
10299TIP3    H152388   3.031   1.783   4.164  1.2740  0.6009  0.0209
10299TIP3    H252389   3.030   1.846   4.302  0.8477  0.1564  0.2248
10300TIP3   OH252390   5.219   0.756   0.831  0.1275 -0.4605 -0.3508
10300TIP3    H152391   5.197   0.833   0.882  1.0975 -0.9398  0.8307
10300TIP3    H252392   5.238   0.688   0.896 -0.3661 -1.6011 -1.3574
10301TIP3   OH252393   2.080   4.488   1.275  0.4579  0.4684 -0.3695
10301TIP3    H152394   2.156   4.544   1.261  0.5113  0.8768  1.3795
10301TIP3    H252395   2.008   4.548   1.293 -0.1910  0.0651 -1.4770
10302TIP3   OH252396   0.728   3.577   1.845  0.4636  0.0012 -0.5312
10302TIP3    H152397   0.745   3.563   1.938  1.2078 -0.8114 -0.7789
10302TIP3    H252398   0.792   3.644   1.820  1.1210 -0.7071 -0.7429
10303TIP3   OH252399   4.687   3.942  15.099  0.1875 -0.2435 -0.2670
10303TIP3    H152400   4.681   3.897  15.015 -0.5163 -0.4237 -0.1279
10303TIP3    H252401   4.643   4.026  15.085  1.4987  0.4350 -0.5257
10304TIP3   OH252402   5.257   5.211   3.423 -0.4640  0.0960  0.3607
10304TIP3    H152403   5.246   5.204   3.518 -0.2164  0.9428  0.4604
10304TIP3    H252404   5.229   5.300   3.402  0.5828  0.3129 -0.1935
10305TIP3   OH252405   6.789   6.413  13.047  0.5021 -0.5048 -0.0365
10305TIP3    H152406   6.775   6.448  13.134  0.9288  0.0270 -0.1826
10305TIP3    H252407   6.791   6.318  13.060 -0.6424 -0.4865  0.3530
10306TIP3   OH252408   6.659   1.027  11.914 -0.7289  0.4310  0.5131
10306TIP3    H152409   6.674   1.108  11.865 -1.7030  0.5540  0.3958
10306TIP3    H252410   6.635   0.963  11.847  2.5182 -0.7077  0.2521
10307TIP3   OH252411   0.884   4.136   3.392  0.0166 -0.2309  0.3921
10307TIP3    H152412   0.960   4.191   3.412  0.3351 -1.4520  3.0590
10307TIP3    H252413   0.852   4.169   3.309  0.9531  3.1249  1.1900
10308TIP3   OH252414   4.493   2.002  14.870 -0.6294 -0.8446  0.5255
10308TIP3    H152415   4.577   1.979  14.830 -0.7595 -1.0235  0.3521
10308TIP3    H252416   4.482   2.095  14.852  0.0630 -0.5501  1.5253
10309TIP3   OH252417   5.344   2.241   1.180 -0.3109  0.0463  0.2483
10309TIP3    H152418   5.328   2.298   1.255 -0.5561 -1.3553  1.3043
10309TIP3    H252419   5.433   2.209   1.193 -0.5643 -0.6740  0.3040
10310TIP3   OH252420   5.972   0.610   4.390 -0.0495 -0.3247  0.0997
10310TIP3    H152421   5.883   0.582   4.366 -0.4298  1.1709 -0.3395
10310TIP3    H252422   6.013   0.531   4.425 -0.9612 -1.4874 -1.3169
10311TIP3   OH252423   2.579   0.260  16.096 -0.2922  0.3651  0.0846
10311TIP3    H152424   2.530   0.218  16.167 -2.1471  1.5852 -0.3996
10311TIP3    H252425   2.671   0.242  16.115 -0.7249  0.7751  2.8516
10312TIP3   OH252426   0.719   4.508  16.653  0.1011 -0.4513 -0.3757
10312TIP3    H152427   0.814   4.499  16.649  0.1807 -1.2602  1.8458
10312TIP3    H252428   0.704   4.597  16.684  0.2908 -1.1207  1.8025
10313TIP3   OH252429   4.971   5.515  11.420  0.3206 -0.0589 -0.6219
10313TIP3    H152430   5.006   5.604  11.410  0.0548  0.5203  2.6731
10313TIP3    H252431   4.876   5.525  11.414  0.2040  0.1746  1.1234
10314TIP3   OH252432   2.695   1.400  11.525 -0.4913 -0.6824 -0.2951
10314TIP3    H152433   2.701   1.470  11.591 -2.3869 -0.2065 -0.5459
10314TIP3    H252434   2.707   1.319  11.575  1.2844 -0.2249  0.0797
10315TIP3   OH252435   6.270   3.946  11.417  0.5855 -0.1379  0.4549
10315TIP3    H152436   6.283   3.895  11.497  0.0366  1.2837  1.4766
10315TIP3    H252437   6.177   3.933  11.396  0.5494  0.0946  0.4749
10316TIP3   OH252438   5.737   3.905  12.789 -0.4165 -0.0021 -0.1785
10316TIP3    H152439   5.672   3.928  12.855  0.1801  3.7555 -0.6891
10316TIP3    H252440   5.747   3.984  12.736  1.0249 -2.0171 -3.2043
10317TIP3   OH252441   1.419   5.578  14.683 -0.2391  0.5835 -0.3490
10317TIP3    H152442   1.389   5.655  14.731  2.0002  0.4232  1.4744
10317TIP3    H252443   1.432   5.609  14.594  1.0333  2.4996  0.4336
10318TIP3   OH252444   4.067   1.758  12.256 -0.5372 -0.3510 -0.5460
10318TIP3    H152445   4.146   1.805  12.281  0.1146 -2.1400  0.9769
10318TIP3    H252446   4.041   1.798  12.172  0.5264  1.9405  0.1281
10319TIP3   OH252447   4.246   6.059  14.309  0.0068 -0.5940 -0.2701
10319TIP3    H152448   4.164   6.027  14.346  0.0086 -0.8181 -0.4563
10319TIP3    H252449   4.306   6.063  14.383 -0.8382  1.9231  0.3675
10320TIP3   OH252450   2.798   2.591   6.159  0.2614  0.2505 -0.6071
10320TIP3    H152451   2.844   2.674   6.173  0.4128  0.1779 -0.6749
10320TIP3    H252452   2.707   2.616   6.141 -0.1640  0.3249  1.4132
10321TIP3   OH252453   0.990   4.429  15.607  0.0779  0.0729  0.2292
10321TIP3    H152454   1.052   4.501  15.618 -1.5154  1.3968  0.7669
10321TIP3    H252455   0.967   4.403  15.696 -1.4659  0.8032  0.0742
10322TIP3   OH252456   2.886   5.842  13.982 -0.0008 -0.7880  0.3075
10322TIP3    H152457   2.790   5.852  13.979 -0.2424 -2.6734  0.1701
10322TIP3    H252458   2.918   5.887  13.905 -0.8722 -0.8239 -0.0834
10323TIP3   OH252459   4.897   2.856   6.430  0.5961 -0.3132  0.1933
10323TIP3    H152460   4.813   2.894   6.456 -0.0022 -2.1800  1.1889
10323TIP3    H252461   4.908   2.881   6.339 -0.7565  0.4617  0.2166
10324TIP3   OH252462   0.361   4.853  14.960 -0.8718  0.6410 -0.1930
10324TIP3    H152463   0.388   4.804  14.882  1.2389  1.9875 -0.4247
10324TIP3    H252464   0.297   4.916  14.927  1.1217  2.2488 -1.2986
10325TIP3   OH252465   5.358   3.673  14.129 -0.2446 -0.0146  0.4505
10325TIP3    H152466   5.276   3.657  14.083  0.5789  3.4178 -2.7473
10325TIP3    H252467   5.418   3.607  14.097 -0.9564 -0.6574  0.4279
10326TIP3   OH252468   4.356   6.223   2.222 -0.5765  0.6332  0.3091
10326TIP3    H152469   4.386   6.244   2.133 -0.5654  0.0110  0.1600
10326TIP3    H252470   4.298   6.148   2.211 -0.1451  0.2075  0.8866
10327TIP3   OH252471   6.565   6.333  14.412 -0.2326  0.1708 -0.0339
10327TIP3    H152472   6.652   6.316  14.448 -0.0106  0.8151 -0.2469
10327TIP3    H252473   6.530   6.246  14.391  0.4466 -0.0811 -0.1514
10328TIP3   OH252474   0.419   1.779  13.242  0.1207 -0.1894 -0.0859
10328TIP3    H152475   0.428   1.787  13.147  1.3636 -0.9640 -0.0601
10328TIP3    H252476   0.325   1.768  13.256 -0.3944  2.4186 -0.9934
10329TIP3   OH252477   6.015   6.242  16.288 -0.2108 -0.1660 -0.1743
10329TIP3    H152478   6.109   6.243  16.269  0.2960  0.7293  1.9574
10329TIP3    H252479   5.978   6.310  16.232  0.9197  1.3817  0.8738
10330TIP3   OH252480   4.525   2.213  15.883 -0.1652 -0.1741 -0.1502
10330TIP3    H152481   4.605   2.184  15.838 -0.6996 -0.0288 -1.2059
10330TIP3    H252482   4.554   2.233  15.972  0.7296 -1.4086 -0.1320
10331TIP3   OH252483   5.827   6.038   4.189 -0.2837 -0.0289  0.3188
10331TIP3    H152484   5.802   5.981   4.116  1.1372  0.3053 -0.4668
10331TIP3    H252485   5.914   6.008   4.215 -0.2394  0.6754  1.0479
10332TIP3   OH252486   0.387   4.899  15.442 -0.2976 -0.4173 -0.0776
10332TIP3    H152487   0.387   4.889  15.347  0.2501 -0.2048 -0.1013
10332TIP3    H252488   0.375   4.993  15.456 -1.9436 -0.6345  0.0934
10333TIP3   OH252489   0.066   2.072  13.305 -0.3228 -0.1423  0.9812
10333TIP3    H152490   0.047   2.161  13.276 -0.0938  0.4117  2.4453
10333TIP3    H252491   0.130   2.039  13.241  0.5448  1.2106  1.1122
10334TIP3   OH252492   2.799   3.716   5.363 -0.5022 -0.2158 -0.9585
10334TIP3    H152493   2.782   3.785   5.298  0.7262  0.4422 -0.6279
10334TIP3    H252494   2.845   3.762   5.434 -0.4617 -1.2204 -0.3213
10335TIP3   OH252495   4.845   0.223   1.663 -0.0874  0.4873 -0.2456
10335TIP3    H152496   4.905   0.164   1.617 -0.2482  0.6435 -0.6630
10335TIP3    H252497   4.898   0.263   1.732 -0.0103 -0.2451  0.1335
10336TIP3   OH252498   0.941   3.408   2.323  0.0108  0.6553 -0.5489
10336TIP3    H152499   0.883   3.403   2.400 -1.9314 -1.3279 -1.9916
10336TIP3    H252500   0.993   3.328   2.328  2.9744  2.4911  0.8170
10337TIP3   OH252501   0.671   0.602   2.357  0.2549  0.1244 -0.4727
10337TIP3    H152502   0.712   0.547   2.290 -0.0088  0.5690 -1.0165
10337TIP3    H252503   0.724   0.589   2.435  1.1639  0.3405 -1.0395
10338TIP3   OH252504   0.480   3.992   1.946 -0.6495 -0.1915  0.0560
10338TIP3    H152505   0.477   3.906   1.904 -1.6138 -0.2278  0.1574
10338TIP3    H252506   0.554   3.988   2.006 -0.4625 -0.8270 -0.2144
10339TIP3   OH252507   6.399   2.117  10.736 -0.0375 -0.2469 -0.2135
10339TIP3    H152508   6.362   2.123  10.648 -0.9302  0.9103  0.2081
10339TIP3    H252509   6.361   2.037  10.773  0.5853 -0.9042 -0.9669
10340TIP3   OH252510   1.073   4.558   5.591 -0.1841  0.4895 -0.1971
10340TIP3    H152511   1.121   4.492   5.541  0.3346 -1.1733  2.2677
10340TIP3    H252512   1.140   4.606   5.639 -0.7335  0.7794  0.3013
10341TIP3   OH252513   3.234   5.210   6.536  0.0383  0.0126 -0.3316
10341TIP3    H152514   3.192   5.285   6.579  0.2568 -1.1503  2.0605
10341TIP3    H252515   3.161   5.160   6.500 -0.3074  0.1106  0.2203
10342TIP3   OH252516   1.864   2.440  15.408 -1.0434  0.1266 -0.4425
10342TIP3    H152517   1.860   2.518  15.463 -1.4195  0.5219 -1.0185
10342TIP3    H252518   1.801   2.380  15.447 -1.4757  0.4950 -0.5630
10343TIP3   OH252519   2.300   2.162   1.969 -0.2263 -0.1668  0.5994
10343TIP3    H152520   2.334   2.243   1.933  1.3758 -1.3568 -0.7335
10343TIP3    H252521   2.327   2.163   2.061 -0.6119  0.9832  0.7092
10344TIP3   OH252522   5.224   2.361   4.967 -0.3530 -0.1109  0.4360
10344TIP3    H152523   5.194   2.286   5.017  0.6599  0.3194  1.7471
10344TIP3    H252524   5.152   2.424   4.973 -1.3351 -1.0551 -0.9300
10345TIP3   OH252525   0.037   4.324   2.758  0.0026 -0.2659  0.2119
10345TIP3    H152526   0.120   4.304   2.715  0.9901  1.5162  1.2058
10345TIP3    H252527  -0.011   4.377   2.694  1.0471  1.5153  0.8334
10346TIP3   OH252528   5.007   6.624  15.796  0.0688 -0.9803 -0.1610
10346TIP3    H152529   4.932   6.615  15.854  0.7273 -0.6251  0.7648
10346TIP3    H252530   5.019   6.536  15.759 -0.4148 -1.1859  0.1639
10347TIP3   OH252531   1.436   1.736  15.317  0.0548 -0.3655 -0.6365
10347TIP3    H152532   1.462   1.810  15.263  1.3636 -0.9139 -0.7898
10347TIP3    H252533   1.501   1.734  15.388  1.2386 -2.4954 -1.6845
10348TIP3   OH252534   6.646   0.602  16.758 -0.0072  0.2221 -0.1835
10348TIP3    H152535   6.584   0.594  16.830  0.0272 -0.5497 -0.2350
10348TIP3    H252536   6.732   0.590  16.798  0.0158 -0.1501 -0.3424
10349TIP3   OH252537   2.523   0.037   4.557 -0.2537  0.4995  0.0191
10349TIP3    H152538   2.477   0.035   4.641  0.7290  3.4263  0.7482
10349TIP3    H252539   2.553  -0.053   4.544 -1.7709 -0.3779  1.9961
10350TIP3   OH252540   5.661   6.080  15.616  0.1781  0.0712 -0.4431
10350TIP3    H152541   5.602   6.014  15.579  0.6264  0.3272 -1.6339
10350TIP3    H252542   5.624   6.097  15.703 -0.5708 -0.9485 -0.5302
10351TIP3   OH252543   0.633   3.651   3.651  0.1409  0.1551  0.0762
10351TIP3    H152544   0.549   3.661   3.605  0.4617 -1.8659 -1.0559
10351TIP3    H252545   0.610   3.658   3.744 -1.0927  0.7516 -0.2534
10352TIP3   OH252546   4.404   5.525  16.496 -0.1583 -0.0817  0.2482
10352TIP3    H152547   4.392   5.548  16.404  1.1368 -0.2681  0.0104
10352TIP3    H252548   4.495   5.495  16.502  0.0882  0.8313  1.7798
10353TIP3   OH252549   1.047   4.063  14.934 -0.3088  0.3991  0.0006
10353TIP3    H152550   1.060   4.034  15.024 -2.7962 -0.9990 -0.0331
10353TIP3    H252551   1.109   4.011  14.883 -0.6074 -0.6023  0.6382
10354TIP3   OH252552   2.015   2.999   3.813 -0.4124 -0.1810  0.1318
10354TIP3    H152553   2.084   3.065   3.808 -0.1714 -0.4964 -1.0830
10354TIP3    H252554   1.990   2.996   3.905  0.2406  0.9173  0.3510
10355TIP3   OH252555   4.524   3.015   4.103 -0.3771 -0.1725  0.2582
10355TIP3    H152556   4.484   2.987   4.021 -0.7898 -2.6446  1.2166
10355TIP3    H252557   4.486   2.957   4.169  2.3810 -0.4653  1.7145
10356TIP3   OH252558   0.086   2.741  16.023  0.5591 -0.4825  0.5864
10356TIP3    H152559   0.099   2.691  15.942  1.2729 -0.4557  0.6822
10356TIP3    H252560   0.030   2.685  16.077  0.8539 -0.9145  0.4488
10357TIP3   OH252561   5.366   4.900  12.664  0.0905 -0.3308  0.4682
10357TIP3    H152562   5.295   4.920  12.724 -0.0897 -0.1380  0.1953
10357TIP3    H252563   5.326   4.845  12.596  0.0502  0.2954 -0.0240
10358TIP3   OH252564   5.121   2.844  12.077  0.4825  0.2373  0.0562
10358TIP3    H152565   5.082   2.762  12.047 -2.3828  0.9669  1.3952
10358TIP3    H252566   5.155   2.822  12.164  1.5893  0.0019 -0.4284
10359TIP3   OH252567   0.142   4.443   4.968 -0.6448 -0.1786 -0.2313
10359TIP3    H152568   0.223   4.483   4.936 -0.7175 -0.0269 -0.2216
10359TIP3    H252569   0.172   4.365   5.015 -0.5980 -0.9312 -1.4696
10360TIP3   OH252570   0.442   1.783   1.269  0.1460  0.2823 -0.1836
10360TIP3    H152571   0.358   1.739   1.278  0.5582 -0.6527 -0.7602
10360TIP3    H252572   0.457   1.787   1.175  0.1379  1.6452 -0.1428
10361TIP3   OH252573   6.334   1.656  16.230  0.4294  0.1228  0.0642
10361TIP3    H152574   6.309   1.682  16.319 -0.0026  1.2312 -0.3651
10361TIP3    H252575   6.384   1.575  16.242  0.9514  0.6128  1.3754
10362TIP3   OH252576   6.161   2.347  15.160 -0.7663  0.1547 -0.0133
10362TIP3    H152577   6.204   2.308  15.084 -0.7506 -0.2778  0.2146
10362TIP3    H252578   6.143   2.273  15.219  1.8769  0.7827  1.7478
10363TIP3   OH252579   2.966   6.664   5.647 -0.2774  0.2619 -0.3839
10363TIP3    H152580   2.970   6.568   5.648 -1.0856  0.2019 -1.3933
10363TIP3    H252581   3.010   6.690   5.728 -0.7935 -0.9868  0.3316
10364TIP3   OH252582   4.287   2.899   0.977  0.3855  0.5145 -0.2881
10364TIP3    H152583   4.376   2.888   0.945 -0.2297  0.0876 -1.9512
10364TIP3    H252584   4.268   2.817   1.022 -0.3966 -1.0579 -3.1917
10365TIP3   OH252585   4.015   5.722   2.920  0.0656  0.1984  1.3379
10365TIP3    H152586   4.060   5.661   2.979  0.9354 -1.1603 -0.6177
10365TIP3    H252587   4.080   5.788   2.899  1.7080 -2.1935 -2.1179
10366TIP3   OH252588   4.677   2.884  11.773 -0.4320 -0.4475  0.5681
10366TIP3    H152589   4.732   2.825  11.824 -2.5611 -1.2657  2.0916
10366TIP3    H252590   4.697   2.971  11.807  1.4379 -0.4412 -0.4418
10367TIP3   OH252591   4.232   3.611  13.096 -0.4429  0.3348 -0.0144
10367TIP3    H152592   4.278   3.690  13.068  0.4296 -0.2391 -0.2794
10367TIP3    H252593   4.232   3.616  13.192 -0.0099  0.4505 -0.0177
10368TIP3   OH252594   0.316   1.371   2.429 -0.2455  0.6135  1.0704
10368TIP3    H152595   0.295   1.280   2.449 -2.0575  1.0374  1.3135
10368TIP3    H252596   0.333   1.411   2.515  1.4950  0.3273  0.8926
10369TIP3   OH252597   2.456   5.165   6.313 -0.7122 -0.1758  0.2841
10369TIP3    H152598   2.489   5.131   6.397 -0.9707  0.1012  0.5007
10369TIP3    H252599   2.376   5.115   6.297 -0.4786 -0.4731  0.0244
10370TIP3   OH252600   3.690   4.729   5.222 -0.2903  0.6423 -0.5434
10370TIP3    H152601   3.714   4.719   5.130 -1.1213 -0.2196 -0.6847
10370TIP3    H252602   3.685   4.823   5.236  0.6379  0.7875 -1.1647
10371TIP3   OH252603   1.349   5.401  14.056  0.4147 -0.1671  0.0113
10371TIP3    H152604   1.317   5.489  14.037  0.0430 -0.0618  1.0756
10371TIP3    H252605   1.289   5.367  14.122  0.2179 -1.4459 -0.8030
10372TIP3   OH252606   5.361   6.299  15.573 -0.9780 -0.5782 -0.5730
10372TIP3    H152607   5.345   6.216  15.528 -0.3990 -0.7980 -0.3776
10372TIP3    H252608   5.456   6.311  15.570 -0.9966 -0.2349 -0.0524
10373TIP3   OH252609   4.744   0.441   5.142  0.2518 -0.3771 -0.0558
10373TIP3    H152610   4.784   0.355   5.132  2.4543  0.6344 -0.5256
10373TIP3    H252611   4.807   0.502   5.103 -1.0987  1.4936  0.5147
10374TIP3   OH252612   3.866   0.798   1.055 -0.1811 -0.0958  0.3265
10374TIP3    H152613   3.827   0.814   1.140  0.5996 -1.8354  1.0554
10374TIP3    H252614   3.960   0.806   1.070  0.0218 -1.3960 -0.1138
10375TIP3   OH252615   1.717   0.403   3.361  0.1446 -0.3387 -0.0328
10375TIP3    H152616   1.743   0.486   3.320  1.2128  0.5226  2.1918
10375TIP3    H252617   1.634   0.381   3.320  2.2410 -1.0182 -4.5024
10376TIP3   OH252618   1.313   3.204  12.500  0.3216 -0.1054  0.5167
10376TIP3    H152619   1.392   3.150  12.505 -0.5224 -1.3840  0.2799
10376TIP3    H252620   1.334   3.269  12.433  0.5289 -1.5869 -0.9190
10377TIP3   OH252621   0.555   5.879  12.284  0.0074  0.0175  0.3436
10377TIP3    H152622   0.539   5.911  12.195 -0.1074 -0.0248  0.3490
10377TIP3    H252623   0.579   5.787  12.273 -0.6212 -0.1556  0.4080
10378TIP3   OH252624   5.995   5.576   1.506 -0.3202  0.3162  0.0496
10378TIP3    H152625   5.961   5.625   1.580 -0.5320 -1.0328  0.8852
10378TIP3    H252626   6.036   5.642   1.449 -1.3463  1.5279  0.6883
10379TIP3   OH252627   5.985   4.634  14.202 -0.3550 -0.1580 -0.0735
10379TIP3    H152628   5.928   4.711  14.199  1.6218  1.4763  1.0885
10379TIP3    H252629   5.960   4.589  14.283 -0.5537  0.0660 -0.0079
10380TIP3   OH252630   1.814   6.789  14.549  0.4789  0.1729  0.4086
10380TIP3    H152631   1.792   6.881  14.536 -0.8602 -0.1552  0.1700
10380TIP3    H252632   1.893   6.775  14.497  0.1711  0.9670 -0.2910
10381TIP3   OH252633   1.033   1.734  14.656  0.1446 -0.0043 -0.4869
10381TIP3    H152634   0.987   1.731  14.740  0.5205  1.7396 -0.1763
10381TIP3    H252635   1.088   1.656  14.656  0.0764 -0.0826  0.8699
10382TIP3   OH252636   4.673   5.656   3.683  0.2490  0.0706 -0.2081
10382TIP3    H152637   4.695   5.729   3.740  1.2939  0.5938 -1.2455
10382TIP3    H252638   4.670   5.693   3.595 -1.1160 -0.7652 -0.5522
10383TIP3   OH252639   5.389   4.028   2.623 -0.8914 -0.1725  0.4799
10383TIP3    H152640   5.376   4.120   2.605  0.5145  0.0601  0.5321
10383TIP3    H252641   5.476   4.008   2.588 -0.2872 -0.9554  2.2923
10384TIP3   OH252642   2.505   4.610  11.928 -0.0521 -0.3230  0.1486
10384TIP3    H152643   2.414   4.579  11.934  0.1593 -0.9587  0.1279
10384TIP3    H252644   2.542   4.591  12.014 -0.8061  2.8462  1.3398
10385TIP3   OH252645   4.990   4.675  16.235  0.5873 -0.1005 -0.0196
10385TIP3    H152646   5.070   4.718  16.205  2.0110 -2.7273 -0.2536
10385TIP3    H252647   5.020   4.612  16.301 -1.4999 -0.1302  0.9885
10386TIP3   OH252648   4.899   4.184   4.961  0.2145 -0.2164 -0.0717
10386TIP3    H152649   4.933   4.272   4.943  1.2826 -0.4230  0.8393
10386TIP3    H252650   4.873   4.151   4.875  2.4366 -0.0560 -0.8841
10387TIP3   OH252651   5.641   5.010   1.261  0.1145 -0.1278  0.3582
10387TIP3    H152652   5.634   4.919   1.229  1.9330 -0.1996  0.0972
10387TIP3    H252653   5.667   5.001   1.353  1.3544  0.1085  0.0482
10388TIP3   OH252654   5.443   6.561   3.525  0.2893  0.6898  0.2854
10388TIP3    H152655   5.451   6.655   3.504  1.2331  0.8942  1.4565
10388TIP3    H252656   5.531   6.526   3.509 -0.4551 -0.3896 -1.8010
10389TIP3   OH252657   1.414   0.033   2.522 -0.3663 -0.8121  0.5771
10389TIP3    H152658   1.330   0.063   2.487 -2.2012 -4.0343  1.7975
10389TIP3    H252659   1.419   0.074   2.608 -0.2648  0.0276  0.1817
10390TIP3   OH252660   2.850   3.495   0.678 -0.1251  0.4935  0.0254
10390TIP3    H152661   2.796   3.572   0.697  0.3578  0.8559 -0.0506
10390TIP3    H252662   2.937   3.531   0.662 -0.0204 -0.0171 -0.5834
10391TIP3   OH252663   6.255   5.550   3.170  0.0637 -0.2273 -0.3279
10391TIP3    H152664   6.339   5.589   3.144  0.3060  0.0687  0.8136
10391TIP3    H252665   6.193   5.578   3.103  1.4269 -2.9252 -2.9037
10392TIP3   OH252666   5.536   0.580  13.524  0.5363 -0.0690 -0.3848
10392TIP3    H152667   5.471   0.553  13.589  0.8457 -1.1702 -0.5036
10392TIP3    H252668   5.578   0.498  13.498  1.0414  0.4725 -1.3030
10393TIP3   OH252669   6.550   6.254  13.664  0.7109 -0.1729 -0.4674
10393TIP3    H152670   6.639   6.243  13.697  0.9937  1.6878 -0.4684
10393TIP3    H252671   6.507   6.170  13.681  1.8035 -0.3787  1.6499
10394TIP3   OH252672   4.107   5.868  14.832  0.2178  0.0526 -0.2988
10394TIP3    H152673   4.154   5.785  14.835 -0.2172 -0.2945 -2.1589
10394TIP3    H252674   4.148   5.921  14.902  0.4790 -1.6891  0.9282
10395TIP3   OH252675   4.146   6.670  10.667 -0.2498 -0.1841  0.0841
10395TIP3    H152676   4.210   6.730  10.628 -1.9235  1.7520  0.1743
10395TIP3    H252677   4.090   6.644  10.594 -0.6682 -0.1359  0.3872
10396TIP3   OH252678   3.474   4.057  15.617 -0.1280  0.1500 -0.4815
10396TIP3    H152679   3.392   4.040  15.664  0.0182 -2.1589 -0.9374
10396TIP3    H252680   3.529   4.103  15.680 -0.4708 -1.5549  1.1354
10397TIP3   OH252681   4.041   5.700   6.220  0.2400 -0.2484 -0.0381
10397TIP3    H152682   4.059   5.638   6.149 -0.8464 -0.5054 -0.1108
10397TIP3    H252683   4.122   5.703   6.271  0.7403 -0.7279 -0.7863
10398TIP3   OH252684   2.699   2.178  16.635  0.6400 -0.2356 -0.2379
10398TIP3    H152685   2.701   2.097  16.685 -0.4144 -0.3929 -0.4364
10398TIP3    H252686   2.726   2.245  16.697  1.2839 -0.6923 -0.0087
10399TIP3   OH252687   6.649   3.778  14.410 -0.3001  0.3096 -0.1673
10399TIP3    H152688   6.632   3.865  14.373 -1.1228 -0.2773 -1.2143
10399TIP3    H252689   6.606   3.781  14.496 -1.2925  0.5803 -0.6556
10400TIP3   OH252690   3.991   2.996  17.148 -0.9237 -0.5257  0.1637
10400TIP3    H152691   3.943   3.056  17.205  1.3220 -0.4060  2.0944
10400TIP3    H252692   3.960   2.909  17.172 -1.6443 -0.3485 -0.1110
10401TIP3   OH252693   0.275   2.052  11.036  0.2391  0.2545  0.2364
10401TIP3    H152694   0.335   1.980  11.015 -2.4750 -2.2405  0.3885
10401TIP3    H252695   0.272   2.104  10.956  0.8724 -0.9051 -0.5809
10402TIP3   OH252696   4.286   1.122  16.301  0.1758 -0.0865 -0.0056
10402TIP3    H152697   4.226   1.049  16.282 -0.2561 -0.0446  1.1544
10402TIP3    H252698   4.363   1.079  16.338  0.5603 -0.0715 -0.7672
10403TIP3   OH252699   5.859   5.323  12.495  0.0180 -0.2413 -0.6943
10403TIP3    H152700   5.937   5.363  12.535  0.8170 -1.6707 -0.7293
10403TIP3    H252701   5.791   5.331  12.562  0.3119  0.6493 -0.4920
10404TIP3   OH252702   3.283   1.580  12.645 -0.7123  0.4716  0.3057
10404TIP3    H152703   3.317   1.534  12.568 -1.2642  1.4670 -0.5489
10404TIP3    H252704   3.264   1.668  12.614 -0.7216  0.9592  1.6511
10405TIP3   OH252705   2.587   2.471  16.575  0.1555  0.9725 -0.1147
10405TIP3    H152706   2.682   2.477  16.589 -0.0754  2.0088  1.2417
10405TIP3    H252707   2.567   2.379  16.586  1.0362  0.6923 -0.7034
10406TIP3   OH252708   5.536   6.502  14.072 -0.0729 -0.3360 -0.2685
10406TIP3    H152709   5.475   6.533  14.005  0.7564  1.1495 -0.3750
10406TIP3    H252710   5.554   6.579  14.126  2.8861 -0.2589 -1.1661
10407TIP3   OH252711   3.553   5.099   0.736 -0.4984 -0.0231  0.4417
10407TIP3    H152712   3.627   5.051   0.775 -1.5029 -0.1150  2.3818
10407TIP3    H252713   3.570   5.097   0.642  1.4416 -0.9126  0.7549
10408TIP3   OH252714   0.489   5.673  11.986  0.4283  0.0337 -0.0129
10408TIP3    H152715   0.415   5.707  12.036 -2.0029 -1.0055 -2.5989
10408TIP3    H252716   0.531   5.610  12.044 -2.3575 -1.2999  0.7332
10409TIP3   OH252717   1.784   4.008   2.928  0.0780  1.0149  0.1185
10409TIP3    H152718   1.841   3.933   2.910  0.6487  1.6564 -0.8734
10409TIP3    H252719   1.749   3.992   3.016  0.8361  0.0050  0.2506
10410TIP3   OH252720   5.033   0.523   3.707 -0.0649  0.5016 -0.1049
10410TIP3    H152721   5.085   0.589   3.753  2.4607 -0.0646 -1.9335
10410TIP3    H252722   5.047   0.543   3.614 -0.0818 -1.9351 -0.6890
10411TIP3   OH252723   2.919   6.363  14.769 -0.3149  0.0494  0.1007
10411TIP3    H152724   2.891   6.285  14.817  1.1830 -1.4848 -1.3729
10411TIP3    H252725   2.918   6.336  14.677 -1.0895  2.2401 -0.5937
10412TIP3   OH252726   5.214   6.685   4.477 -0.1006 -0.3365  0.6486
10412TIP3    H152727   5.174   6.659   4.394 -0.3015 -1.1893  1.0054
10412TIP3    H252728   5.159   6.756   4.509  0.1308  0.1816 -0.0696
10413TIP3   OH252729   2.590   5.236   3.265  0.4267 -0.4247 -0.6605
10413TIP3    H152730   2.605   5.230   3.360 -0.1467  3.6859 -0.1210
10413TIP3    H252731   2.667   5.196   3.226  0.4612 -2.6731  1.4438
10414TIP3   OH252732   5.525   5.067   4.565 -0.2509 -0.0788  0.6530
10414TIP3    H152733   5.480   4.998   4.517  0.4299 -1.6368  2.1245
10414TIP3    H252734   5.455   5.115   4.610 -0.6639 -0.5902  0.5643
10415TIP3   OH252735   4.325   2.615  11.255  0.2749  0.7865  0.1255
10415TIP3    H152736   4.372   2.683  11.304  0.8946  0.5717 -0.1661
10415TIP3    H252737   4.390   2.578  11.196  0.1317 -0.5527  0.7666
10416TIP3   OH252738   3.544   5.391  14.645  0.1944  0.0903 -0.3142
10416TIP3    H152739   3.586   5.382  14.559  1.6151  1.3798  0.2003
10416TIP3    H252740   3.503   5.478  14.643  1.3439  0.6907  0.7298
10417TIP3   OH252741   1.406   4.915  15.635  0.3768 -0.1093  0.0911
10417TIP3    H152742   1.486   4.965  15.620  1.1217 -0.5997  2.1551
10417TIP3    H252743   1.424   4.829  15.596  1.0688 -0.3729  0.9579
10418TIP3   OH252744   3.516   5.891  11.377  0.2603 -0.9181  0.4968
10418TIP3    H152745   3.496   5.967  11.323  2.0252 -0.0535  0.9933
10418TIP3    H252746   3.449   5.892  11.446 -0.7604 -0.8464 -0.4735
10419TIP3   OH252747   5.936   3.606   6.777 -0.3334  0.2703 -0.7129
10419TIP3    H152748   5.973   3.520   6.756 -0.3292  0.5167 -1.8100
10419TIP3    H252749   6.009   3.657   6.810 -0.6146 -0.5544  1.3411
10420TIP3   OH252750   3.139   5.671   2.631 -0.3829  0.3656 -0.6415
10420TIP3    H152751   3.127   5.593   2.577 -1.0426 -0.4030  0.5870
10420TIP3    H252752   3.065   5.670   2.692  0.9355  0.5962  1.0160
10421TIP3   OH252753   6.666   0.404  11.953 -0.0480  0.1706 -0.1060
10421TIP3    H152754   6.649   0.470  11.885  0.3850 -0.3391 -0.7317
10421TIP3    H252755   6.580   0.365  11.970 -0.2606  0.7085  0.0712
10422TIP3   OH252756   5.821   1.833  16.231  0.0669 -0.2259  0.5096
10422TIP3    H152757   5.813   1.738  16.219 -0.3769  0.0015 -1.5095
10422TIP3    H252758   5.913   1.847  16.250  0.7266 -0.9279 -1.7539
10423TIP3   OH252759   4.367   2.443   2.862  0.2912  0.5767 -0.4043
10423TIP3    H152760   4.412   2.514   2.908  1.6260  0.6689 -1.7591
10423TIP3    H252761   4.345   2.379   2.930  0.4614  1.5729  0.6042
10424TIP3   OH252762   6.082   3.359  16.145 -0.3795 -0.2947 -0.6448
10424TIP3    H152763   6.143   3.421  16.107 -1.1904  0.3499 -0.9213
10424TIP3    H252764   5.995   3.397  16.129 -0.8644 -1.2531 -0.3892
10425TIP3   OH252765   0.014   1.342   1.512  0.0452  0.7893  0.0854
10425TIP3    H152766  -0.055   1.350   1.446 -1.2750  2.4645  1.5645
10425TIP3    H252767  -0.004   1.412   1.574  2.1783  0.2779  1.3989
10426TIP3   OH252768   0.659   1.143   5.194  0.1845  0.4709  0.4272
10426TIP3    H152769   0.722   1.073   5.181  1.4447  1.9785 -2.7414
10426TIP3    H252770   0.711   1.216   5.227 -0.1190  1.2871 -0.8121
10427TIP3   OH252771   5.125   3.809   0.031 -0.0721 -0.1019 -0.7332
10427TIP3    H152772   5.151   3.833   0.120 -0.4895 -0.3081 -0.5550
10427TIP3    H252773   5.161   3.722   0.019 -1.8850 -1.0059  0.0447
10428TIP3   OH252774   5.543   1.452   5.909 -0.0754  0.3126 -0.5363
10428TIP3    H152775   5.471   1.472   5.849 -0.1660 -0.8374 -0.8340
10428TIP3    H252776   5.591   1.535   5.916 -1.2720  1.0305 -0.5184
10429TIP3   OH252777   6.451   4.766  14.430  0.0886 -0.0394 -0.3770
10429TIP3    H152778   6.358   4.759  14.407 -0.4283 -0.5126  1.6557
10429TIP3    H252779   6.464   4.859  14.448 -0.3130 -0.1452  0.4996
10430TIP3   OH252780   2.378   4.635  11.067 -0.3141 -0.1992  0.0606
10430TIP3    H152781   2.416   4.703  11.012 -1.2262  0.7041  0.5149
10430TIP3    H252782   2.396   4.554  11.020 -1.2387  0.5529 -1.7046
10431TIP3   OH252783   4.061   1.351   6.107 -0.1758  0.6951  0.2238
10431TIP3    H152784   3.984   1.294   6.108  1.1185 -1.1544  2.0130
10431TIP3    H252785   4.129   1.298   6.065  0.9878  0.9902  1.6740
10432TIP3   OH252786   3.868   5.955  12.139  0.1812  0.0838  0.0163
10432TIP3    H152787   3.827   6.011  12.072 -0.5718  0.7460  0.9938
10432TIP3    H252788   3.962   5.973  12.131 -0.0181  1.2453  0.0630
10433TIP3   OH252789   5.209   2.617  14.215  1.3098  0.0523 -0.5988
10433TIP3    H152790   5.240   2.707  14.229 -0.9152  1.0859 -1.7076
10433TIP3    H252791   5.209   2.606  14.120 -1.6863  0.2107 -0.7027
10434TIP3   OH252792   3.390   5.299   5.305  0.1492 -0.6188  0.5193
10434TIP3    H152793   3.371   5.392   5.300  2.0880 -0.0191  2.3672
10434TIP3    H252794   3.468   5.287   5.250 -2.6893 -2.2015 -3.6209
10435TIP3   OH252795   2.934   4.738   1.386  0.0686 -0.3638  0.0800
10435TIP3    H152796   2.864   4.802   1.396  0.2374  0.0361 -1.1195
10435TIP3    H252797   2.896   4.670   1.330  0.3454 -0.6138  0.1935
10436TIP3   OH252798   3.334   5.220   4.437  0.8118 -0.3511 -0.5126
10436TIP3    H152799   3.285   5.256   4.364  0.7994 -0.5229 -0.5910
10436TIP3    H252800   3.416   5.190   4.398  1.2221  0.4548 -0.2831
10437TIP3   OH252801   3.688   5.996  13.401  0.6098 -0.5058 -0.0407
10437TIP3    H152802   3.672   5.910  13.440 -0.2694  0.6037  2.2071
10437TIP3    H252803   3.777   6.019  13.427  1.0854 -0.9699 -1.1876
10438TIP3   OH252804   4.015   5.385  11.659  0.3861  0.3440  0.1010
10438TIP3    H152805   4.107   5.378  11.685  0.3528  1.3067  0.4910
10438TIP3    H252806   4.008   5.329  11.581  1.6304  1.3765 -0.7838
10439TIP3   OH252807   1.590   5.583   5.035  0.5347 -0.2807 -0.3824
10439TIP3    H152808   1.637   5.567   5.116 -3.8818 -0.2277  2.5150
10439TIP3    H252809   1.574   5.677   5.034 -2.4000 -0.6695  0.7112
10440TIP3   OH252810   1.429   0.733   6.066  0.4227  0.0375  0.2009
10440TIP3    H152811   1.337   0.712   6.076  0.5055 -1.1257 -1.1184
10440TIP3    H252812   1.458   0.757   6.154 -0.9565 -0.2771  0.7687
10441TIP3   OH252813   0.498   3.237   0.788  0.6744  0.5787 -0.4444
10441TIP3    H152814   0.552   3.245   0.709 -0.4730  0.7503 -1.2315
10441TIP3    H252815   0.408   3.247   0.757  0.2875  3.0664  1.2019
10442TIP3   OH252816   6.578   5.505   1.705  0.4077  0.0401  0.4904
10442TIP3    H152817   6.551   5.418   1.676  1.6681 -0.4001  0.5346
10442TIP3    H252818   6.503   5.540   1.751 -0.7281 -0.3246 -1.0045
10443TIP3   OH252819   1.994   5.640   3.899  0.1833 -0.7415 -0.2284
10443TIP3    H152820   2.034   5.699   3.835 -0.1236 -0.1258  0.1364
10443TIP3    H252821   1.905   5.628   3.867  0.9699 -3.1443 -1.7510
10444TIP3   OH252822   2.505   5.001  12.710 -0.3810  0.4657 -0.5629
10444TIP3    H152823   2.472   5.024  12.797  0.5386  0.4771 -0.2038
10444TIP3    H252824   2.495   4.906  12.705 -1.5411  0.5947 -0.9251
10445TIP3   OH252825   6.018   4.666  17.227  0.1654  0.0897  0.1667
10445TIP3    H152826   5.930   4.667  17.190 -0.0455  1.1382  0.6433
10445TIP3    H252827   6.012   4.607  17.302  0.1673 -0.7330 -0.4796
10446TIP3   OH252828   2.667   5.927   4.877 -0.1016  0.5983 -0.1823
10446TIP3    H152829   2.720   5.998   4.842  3.0654 -1.7425 -0.5983
10446TIP3    H252830   2.646   5.873   4.801 -2.0752  0.7696  0.1871
10447TIP3   OH252831   3.358   3.042   4.297  0.2288 -0.7148 -0.5005
10447TIP3    H152832   3.300   3.042   4.373 -0.3264 -0.0256 -0.9092
10447TIP3    H252833   3.425   3.108   4.318 -1.5077  1.6021 -1.7306
10448TIP3   OH252834   5.189   0.369   4.840  0.0519 -0.0935  0.0463
10448TIP3    H152835   5.285   0.375   4.845  0.1762 -1.2209 -0.5035
10448TIP3    H252836   5.160   0.458   4.820  0.9556  0.3448  0.6313
10449TIP3   OH252837   4.636   0.041   1.705 -0.0294 -0.6160 -0.3242
10449TIP3    H152838   4.576   0.058   1.632 -0.7066  0.9562  0.5490
10449TIP3    H252839   4.711   0.099   1.689 -0.3181 -0.0381  0.3598
10450TIP3   OH252840   1.269   6.714  13.783  0.9417  1.0209 -0.4037
10450TIP3    H152841   1.333   6.738  13.850 -1.0481  0.6441  1.8033
10450TIP3    H252842   1.243   6.624  13.807  2.0696 -0.2097 -3.3510
10451TIP3   OH252843   1.383   3.944  15.468 -0.4767 -0.3462  0.1407
10451TIP3    H152844   1.365   3.936  15.562 -0.3273 -0.6248  0.1467
10451TIP3    H252845   1.369   3.856  15.433 -3.4307  0.3051 -0.6146
10452TIP3   OH252846   3.015   4.950  15.233 -0.2263  0.1899  0.0940
10452TIP3    H152847   3.100   4.907  15.224  0.3517  0.8535  1.8929
10452TIP3    H252848   3.022   5.028  15.177 -0.1557 -0.4408 -0.7926
10453TIP3   OH252849   0.398   6.303   4.982 -0.5053 -0.1521  0.1225
10453TIP3    H152850   0.436   6.308   4.894 -1.8625 -4.3540 -0.9681
10453TIP3    H252851   0.303   6.309   4.967 -0.6867  1.6506  1.6932
10454TIP3   OH252852   2.319   0.293   4.927 -0.0620  0.7834 -0.0448
10454TIP3    H152853   2.243   0.301   4.984  0.1082  0.1898  0.2742
10454TIP3    H252854   2.370   0.372   4.943  0.2227  0.4000  0.9846
10455TIP3   OH252855   4.775   3.025  15.447  0.2144  0.6054 -0.3290
10455TIP3    H152856   4.803   3.087  15.515  0.2379 -0.7469  0.9353
10455TIP3    H252857   4.856   2.983  15.419 -0.1244 -1.5689  1.6040
10456TIP3   OH252858   0.867   5.150   5.830  0.3111  0.1074 -0.1115
10456TIP3    H152859   0.825   5.207   5.895  1.0915  0.2124  0.3099
10456TIP3    H252860   0.875   5.065   5.874  0.9873  0.2209 -0.0017
10457TIP3   OH252861   1.705   4.288   4.307  0.0398 -0.5131  0.2231
10457TIP3    H152862   1.732   4.337   4.229 -2.3213  1.4176  0.4968
10457TIP3    H252863   1.626   4.241   4.280 -0.1169 -0.8033  1.1332
10458TIP3   OH252864   2.025   0.101  11.057  0.4410 -0.0454  0.4409
10458TIP3    H152865   2.118   0.113  11.036  0.0184 -0.7475 -2.0361
10458TIP3    H252866   2.024   0.092  11.153  2.7374  1.3581  0.6845
10459TIP3   OH252867   2.511   3.355  15.703 -0.5030 -0.2269 -0.1033
10459TIP3    H152868   2.603   3.366  15.727 -0.3835 -2.6815  0.8425
10459TIP3    H252869   2.500   3.411  15.626  1.7539  0.2100 -0.1841
10460TIP3   OH252870   6.562   3.495   0.722  0.1473  0.4439  0.0991
10460TIP3    H152871   6.616   3.551   0.667  3.0279 -1.4913  0.6978
10460TIP3    H252872   6.565   3.536   0.809  1.7596 -0.2367  0.4029
10461TIP3   OH252873   6.241   0.143   4.917 -0.5811 -0.5123 -0.7663
10461TIP3    H152874   6.241   0.106   5.005 -0.9886 -0.3551 -0.6976
10461TIP3    H252875   6.197   0.077   4.863  1.3367 -1.4826 -1.2440
10462TIP3   OH252876   6.761   4.112   3.305  0.0172  0.1422  0.4263
10462TIP3    H152877   6.715   4.152   3.232  2.0282  0.1477 -0.9278
10462TIP3    H252878   6.708   4.035   3.328 -0.5959  0.0757 -1.1262
10463TIP3   OH252879   5.997   1.930  13.685 -0.0896  0.0270 -0.0492
10463TIP3    H152880   5.932   1.980  13.735 -1.6699 -0.3424 -1.6352
10463TIP3    H252881   5.992   1.966  13.596  2.5210  0.5544 -0.0646
10464TIP3   OH252882   1.911   5.997  14.757 -0.1922 -0.2044 -0.0781
10464TIP3    H152883   1.920   5.917  14.705 -1.3224 -0.0787 -0.4962
10464TIP3    H252884   1.821   6.025  14.742 -0.8270 -0.5464  2.4984
10465TIP3   OH252885   3.874   5.827   4.034 -0.1246  0.5289 -0.2106
10465TIP3    H152886   3.796   5.832   4.089 -0.0727  2.5114 -0.2188
10465TIP3    H252887   3.902   5.736   4.039 -3.1463 -0.5879 -1.2212
10466TIP3   OH252888   3.294   4.063  13.438  0.3342 -0.0104  0.6638
10466TIP3    H152889   3.270   4.037  13.349 -0.1582 -0.0023  0.7911
10466TIP3    H252890   3.370   4.010  13.459  1.3454  1.0099 -0.2916
10467TIP3   OH252891   0.994   1.310  16.059  0.8100 -0.3167 -0.1152
10467TIP3    H152892   0.953   1.354  16.133 -0.1458 -0.0146 -0.8026
10467TIP3    H252893   0.927   1.311  15.990  0.8033 -2.6642 -0.2444
10468TIP3   OH252894   6.647   6.015   5.090  0.3948  0.1753 -0.0756
10468TIP3    H152895   6.678   6.007   5.180  0.1462  0.2176  0.0154
10468TIP3    H252896   6.600   5.933   5.074  0.3817  0.1963 -0.1438
10469TIP3   OH252897   5.086   6.285  12.442  0.3765  0.3594  0.0293
10469TIP3    H152898   5.140   6.288  12.363  1.3040 -3.0930  0.3620
10469TIP3    H252899   5.138   6.332  12.508  2.0634 -1.0275 -0.2180
10470TIP3   OH252900   4.753   2.041   4.306 -0.1958 -0.9568 -0.2011
10470TIP3    H152901   4.703   2.102   4.361  1.7745 -0.3539  1.0402
10470TIP3    H252902   4.718   2.054   4.218 -0.9231  0.8252  0.2964
10471TIP3   OH252903   5.188   5.221   4.880  0.3548 -0.0752  0.8443
10471TIP3    H152904   5.226   5.245   4.965  1.1986  1.4468  0.0898
10471TIP3    H252905   5.259   5.177   4.833 -0.2119 -1.2178  1.0209
10472TIP3   OH252906   0.181   5.393   3.948  0.2449  0.1367  0.7179
10472TIP3    H152907   0.114   5.329   3.969  0.2138 -0.3542 -0.8151
10472TIP3    H252908   0.187   5.447   4.027 -1.5544 -0.1376  1.0873
10473TIP3   OH252909   0.457   6.738   1.112 -0.3208 -0.6474 -0.1576
10473TIP3    H152910   0.522   6.699   1.053 -0.4873 -2.5805  0.8346
10473TIP3    H252911   0.496   6.730   1.199 -2.1769 -2.7897  0.6013
10474TIP3   OH252912   4.411   3.610   0.684  0.4451 -0.4464 -0.0914
10474TIP3    H152913   4.367   3.686   0.646  0.2363 -0.6576 -0.2799
10474TIP3    H252914   4.433   3.555   0.608 -0.6414 -1.2273  0.1316
10475TIP3   OH252915   6.518   3.281  14.206  0.1897  0.1201  0.0212
10475TIP3    H152916   6.436   3.242  14.175 -0.1132  0.6280  0.1735
10475TIP3    H252917   6.585   3.216  14.184 -0.1046  0.1703 -1.0820
10476TIP3   OH252918   1.948   0.842   0.475  0.4180 -0.2190  0.3657
10476TIP3    H152919   1.949   0.763   0.530  1.2523 -0.6920 -0.3071
10476TIP3    H252920   1.979   0.812   0.390  0.0929  0.7105 -0.0847
10477TIP3   OH252921   0.474   5.393   2.566  0.2456  0.4646  0.5954
10477TIP3    H152922   0.387   5.372   2.532  0.4414  1.8291 -0.9022
10477TIP3    H252923   0.507   5.460   2.505  1.5009  1.5053  2.3447
10478TIP3   OH252924   1.383   3.650  15.447 -0.2004 -0.1629 -0.0267
10478TIP3    H152925   1.405   3.612  15.532 -0.3741  0.3701  0.2665
10478TIP3    H252926   1.428   3.595  15.383 -0.6102 -0.9696  0.3655
10479TIP3   OH252927   3.688   5.319   0.726  0.1036  0.3680  0.3521
10479TIP3    H152928   3.643   5.403   0.723  0.9319  0.9654  2.4549
10479TIP3    H252929   3.618   5.255   0.741 -0.5660  0.6076 -1.5509
10480TIP3   OH252930   1.788   5.513   2.951 -0.2147 -0.1074 -0.5324
10480TIP3    H152931   1.802   5.512   3.046  0.7753 -0.8634 -0.6649
10480TIP3    H252932   1.713   5.455   2.938  0.8282 -1.5649 -0.3433
10481TIP3   OH252933   2.646   3.074   2.917  0.3538 -0.0567  0.8212
10481TIP3    H152934   2.724   3.024   2.896 -0.5660 -1.2505  0.1292
10481TIP3    H252935   2.667   3.119   2.999  0.6232 -2.9911  2.4841
10482TIP3   OH252936   5.134   1.412  17.013 -0.3140  0.0076 -0.6276
10482TIP3    H152937   5.057   1.365  17.044 -0.0185 -0.0111  0.1123
10482TIP3    H252938   5.181   1.435  17.093  0.6273 -0.2866 -1.0841
10483TIP3   OH252939   1.035   6.215   3.613  0.0250  0.2903 -0.0382
10483TIP3    H152940   1.006   6.299   3.651 -1.3426 -0.5719  0.9296
10483TIP3    H252941   0.957   6.179   3.571  1.0244  0.2613 -1.9804
10484TIP3   OH252942   2.405   2.287  16.835  0.7577  0.0874  0.3025
10484TIP3    H152943   2.338   2.243  16.887  0.5087 -1.5134 -1.2460
10484TIP3    H252944   2.483   2.232  16.844  1.1496  0.6142  0.1833
10485TIP3   OH252945   0.855   4.924   2.290 -0.0622 -0.4877  0.0599
10485TIP3    H152946   0.780   4.968   2.249  0.3749  0.3892  0.1715
10485TIP3    H252947   0.815   4.862   2.352 -0.6999 -0.6264 -0.4814
10486TIP3   OH252948   0.381   1.376   3.494  0.2233  0.2987 -0.2303
10486TIP3    H152949   0.439   1.358   3.568 -1.9150 -0.4506  1.3749
10486TIP3    H252950   0.376   1.293   3.447  0.5401  0.3994 -0.4439
10487TIP3   OH252951   2.244   5.582   0.534 -0.1751 -0.1462 -0.2348
10487TIP3    H152952   2.287   5.668   0.534 -0.7041  0.1319 -1.1267
10487TIP3    H252953   2.227   5.564   0.442 -1.4016 -0.5381  0.0564
10488TIP3   OH252954   3.954   3.442   6.561  0.1355  0.2446 -0.4193
10488TIP3    H152955   3.963   3.387   6.639  1.6521  2.5826  1.1609
10488TIP3    H252956   3.865   3.477   6.566  0.0318 -0.0679 -0.0609
10489TIP3   OH252957   5.001   4.229   6.030  0.0113  0.2432 -0.0645
10489TIP3    H152958   5.077   4.282   6.006  0.3031  0.5663  1.4309
10489TIP3    H252959   4.934   4.293   6.054 -0.3209 -0.0564 -0.1825
10490TIP3   OH252960   1.559   1.779  12.462 -0.5404  0.1167  0.4748
10490TIP3    H152961   1.511   1.845  12.412  0.2713 -0.0380 -0.5474
10490TIP3    H252962   1.566   1.704  12.403 -1.7871 -1.0845  1.7479
10491TIP3   OH252963   2.118   1.124   2.364 -0.4955  0.5066  0.3773
10491TIP3    H152964   2.205   1.084   2.373 -0.5646  0.4117  0.6442
10491TIP3    H252965   2.136   1.218   2.358 -0.4274  0.5787  1.4916
10492TIP3   OH252966   3.173   5.308  14.401 -0.7592 -0.0072 -0.8957
10492TIP3    H152967   3.218   5.249  14.341 -1.3604 -0.2475 -1.1164
10492TIP3    H252968   3.106   5.351  14.348  0.4518  1.8060 -1.0437
10493TIP3   OH252969   3.101   5.609  11.811 -0.0158  0.2342 -0.2663
10493TIP3    H152970   3.179   5.635  11.861 -0.5022  0.1899  0.5243
10493TIP3    H252971   3.028   5.642  11.862 -0.5486 -0.3413 -0.6514
10494TIP3   OH252972   2.040   0.016   5.299  0.6643  0.2701  0.0681
10494TIP3    H152973   2.088  -0.066   5.311 -0.5588 -0.5272 -0.2553
10494TIP3    H252974   1.973  -0.005   5.234  0.0262  1.4127  0.3233
10495TIP3   OH252975   6.354   2.648   3.853  0.3837  0.3031 -0.2668
10495TIP3    H152976   6.308   2.709   3.795 -1.5850 -0.2483  0.6495
10495TIP3    H252977   6.331   2.561   3.820 -2.3290 -0.1039  2.3135
10496TIP3   OH252978   2.577   4.995  11.193  0.1382  0.2020  0.5373
10496TIP3    H152979   2.582   5.084  11.160  2.6501  0.7266  2.0700
10496TIP3    H252980   2.606   4.940  11.120 -0.0317  0.7617  0.0412
10497TIP3   OH252981   1.030   2.045   2.419 -0.3529  0.4681  0.0159
10497TIP3    H152982   1.074   1.962   2.403 -0.7187  0.2448  0.1512
10497TIP3    H252983   1.018   2.048   2.514  0.6087  1.1679  0.1233
10498TIP3   OH252984   1.330   3.847  14.319  0.2845 -0.1382 -0.1117
10498TIP3    H152985   1.306   3.770  14.268  1.5907  0.4052 -1.6324
10498TIP3    H252986   1.423   3.837  14.335  0.3583  0.8539  0.1488
10499TIP3   OH252987   0.508   4.713   1.980  0.3216 -0.1995 -0.1636
10499TIP3    H152988   0.447   4.698   2.052 -1.3963 -0.3344 -1.5915
10499TIP3    H252989   0.453   4.728   1.903  2.0855 -0.1401 -1.5015
10500TIP3   OH252990   0.314   6.294   5.624  0.2782 -0.0396  0.0367
10500TIP3    H152991   0.395   6.336   5.651 -0.1886  1.2833 -0.5375
10500TIP3    H252992   0.251   6.315   5.693  0.3222 -0.7492  0.2990
10501TIP3   OH252993   0.900   0.951  10.640  0.5762  0.2303  0.2484
10501TIP3    H152994   0.942   0.878  10.685 -2.1741 -0.5909  1.6964
10501TIP3    H252995   0.903   0.926  10.547  2.8932  0.0954  0.3038
10502TIP3   OH252996   3.942   6.282  14.120 -0.0457  0.0488 -0.5595
10502TIP3    H152997   3.954   6.369  14.082  2.2325  0.1978  0.3178
10502TIP3    H252998   3.998   6.224  14.067  1.1377 -0.2052  0.8961
10503TIP3   OH252999   4.200   1.722  13.298 -0.0528 -0.2539  0.1829
10503TIP3    H153000   4.295   1.712  13.293  0.1807  0.4334  2.1355
10503TIP3    H253001   4.182   1.801  13.247  0.9015  1.4485  2.2900
10504TIP3   OH253002   4.460   0.920  16.402  0.2303  0.3006 -0.0427
10504TIP3    H153003   4.402   0.934  16.477  2.1630  1.5606  1.3097
10504TIP3    H253004   4.537   0.877  16.439  1.4113  1.3464 -1.1979
10505TIP3   OH253005   0.113   1.895  12.578 -0.3801  0.3904 -0.1233
10505TIP3    H153006   0.175   1.946  12.524  0.9432  0.2779  1.2181
10505TIP3    H253007   0.050   1.861  12.516  2.1391 -1.3256 -1.9419
10506TIP3   OH253008   3.371   6.751  13.858  0.0064  0.0835 -0.2267
10506TIP3    H153009   3.328   6.769  13.942 -0.7122 -1.5920 -0.2020
10506TIP3    H253010   3.335   6.818  13.799 -2.6617 -1.1556 -0.1749
10507TIP3   OH253011   2.058   4.183  13.328  0.4346 -0.6799 -0.7023
10507TIP3    H153012   2.046   4.088  13.335 -0.2019 -0.5236  0.6127
10507TIP3    H253013   2.006   4.219  13.399  0.9711  0.6472 -0.9542
10508TIP3   OH253014   1.577   5.115  16.688 -0.2040 -0.0834  0.3156
10508TIP3    H153015   1.499   5.134  16.739 -0.8381 -1.0251 -0.2669
10508TIP3    H253016   1.586   5.190  16.629 -1.5366 -0.6375 -0.6339
10509TIP3   OH253017   5.767   2.966   3.754  0.0486  0.1106 -0.3520
10509TIP3    H153018   5.701   2.904   3.725  1.3086 -0.8366 -1.3091
10509TIP3    H253019   5.774   2.952   3.848  1.0088 -1.9748 -0.6757
10510TIP3   OH253020   5.077   4.750  15.140  0.1626 -0.0228 -0.1281
10510TIP3    H153021   5.074   4.762  15.045 -0.3536 -0.4093 -0.1679
10510TIP3    H253022   5.007   4.806  15.173 -2.1342 -2.5900 -0.2998
10511TIP3   OH253023   0.576   5.813   6.539 -0.4962  0.2054  0.2396
10511TIP3    H153024   0.518   5.786   6.468 -0.1654  0.9469 -0.3221
10511TIP3    H253025   0.563   5.907   6.547  1.3005  0.5599 -0.5371
10512TIP3   OH253026   5.830   1.538   4.779  0.3296 -0.1908 -0.1932
10512TIP3    H153027   5.912   1.522   4.826  0.9256  1.1077 -0.7368
10512TIP3    H253028   5.828   1.470   4.711  0.5159 -0.7588  0.3601
10513TIP3   OH253029   0.892   4.046   2.447  0.2243 -0.3227  0.3306
10513TIP3    H153030   0.964   4.025   2.387  2.3441  1.8753  1.9030
10513TIP3    H253031   0.921   4.015   2.532 -0.6312  0.7300  1.0359
10514TIP3   OH253032   1.252   6.507   1.292 -0.3000  0.1856  0.2695
10514TIP3    H153033   1.202   6.428   1.271  2.4019 -1.5131 -0.2335
10514TIP3    H253034   1.247   6.513   1.388 -0.9497 -0.2657  0.2766
10515TIP3   OH253035   3.789   5.720   5.867 -0.6113 -0.4214  0.0726
10515TIP3    H153036   3.840   5.639   5.868  0.6866  0.3553 -0.4241
10515TIP3    H253037   3.848   5.785   5.829 -1.6224  0.7632  0.4574
10516TIP3   OH253038   0.831   6.090   3.480 -0.1755  0.1419 -1.0123
10516TIP3    H153039   0.845   6.005   3.440 -1.3162 -0.5201 -0.0809
10516TIP3    H253040   0.736   6.100   3.483 -0.4012 -1.0710  3.7919
10517TIP3   OH253041   2.346   0.080  16.840 -0.2111 -0.2070 -0.0954
10517TIP3    H153042   2.397   0.008  16.804 -1.0624 -0.2401 -1.2998
10517TIP3    H253043   2.369   0.082  16.933  1.7345 -0.3995 -0.5351
10518TIP3   OH253044   1.408   1.954   0.527  0.0813  0.3859  0.1866
10518TIP3    H153045   1.491   1.920   0.561  1.0374  1.5856 -0.8650
10518TIP3    H253046   1.342   1.896   0.564  1.4667 -1.2912  0.1733
10519TIP3   OH253047   3.208   5.078  15.931  0.2687 -0.7966 -0.7444
10519TIP3    H153048   3.201   5.027  16.012  0.6143  1.5388  0.8747
10519TIP3    H253049   3.287   5.046  15.888  3.3552  1.4291  2.6716
10520TIP3   OH253050   5.141   4.332  12.096  0.0056 -0.1675  0.4505
10520TIP3    H153051   5.078   4.259  12.099  0.2736 -0.4102  0.1689
10520TIP3    H253052   5.115   4.383  12.020 -0.8960  0.6827  1.3054
10521TIP3   OH253053   2.980   6.416  11.387 -0.2034 -0.2530 -0.4312
10521TIP3    H153054   2.913   6.355  11.420  1.0860 -1.7307 -0.4105
10521TIP3    H253055   2.949   6.440  11.300 -1.3739  0.0700  0.0609
10522TIP3   OH253056   2.908   6.699  15.580  0.4854  0.0297 -0.9264
10522TIP3    H153057   2.937   6.790  15.570 -0.5889  0.4711 -0.2999
10522TIP3    H253058   2.935   6.656  15.499 -0.6401  1.3971 -2.0925
10523TIP3   OH253059   6.560   2.148  14.844 -0.3819  0.1339 -0.3817
10523TIP3    H153060   6.542   2.102  14.762 -0.5074 -0.4243 -0.0440
10523TIP3    H253061   6.645   2.190  14.831 -0.1045 -0.4852 -0.5635
10524TIP3   OH253062   3.274   2.296   1.596  0.7827 -0.7166 -0.3811
10524TIP3    H153063   3.326   2.300   1.676  0.7792 -0.7126 -0.3790
10524TIP3    H253064   3.292   2.379   1.551 -0.4938  0.0309  0.4236
10525TIP3   OH253065   0.936   1.538  12.253 -0.2409 -0.4927  0.3402
10525TIP3    H153066   0.960   1.626  12.282 -0.9384  0.6588 -2.2498
10525TIP3    H253067   0.853   1.520  12.296  0.6596 -0.5837  2.1109
10526TIP3   OH253068   1.027   3.713  12.113  0.6674  0.2826  0.3128
10526TIP3    H153069   0.946   3.761  12.133  1.0832 -0.0710  3.3861
10526TIP3    H253070   1.008   3.667  12.032 -2.8042 -0.8891  1.5987
10527TIP3   OH253071   4.844   5.880   0.990 -0.1670 -0.3252 -0.2615
10527TIP3    H153072   4.773   5.935   0.958 -0.6299 -0.7373  0.0315
10527TIP3    H253073   4.884   5.931   1.061  0.3841  0.2682 -0.9867
10528TIP3   OH253074   6.257   6.049  16.498 -0.6834  0.3097  0.1617
10528TIP3    H153075   6.166   6.068  16.522 -0.2042  2.7423  0.2377
10528TIP3    H253076   6.253   6.031  16.404 -1.2286  0.4528  0.1546
10529TIP3   OH253077   3.015   4.884   5.379  0.3597 -0.1549  0.1763
10529TIP3    H153078   3.046   4.829   5.450 -1.8337  0.3708  1.6420
10529TIP3    H253079   3.084   4.949   5.367  1.3603 -1.0467  0.8876
10530TIP3   OH253080   5.413   3.730   6.428 -0.0826 -0.1552  0.5875
10530TIP3    H153081   5.502   3.724   6.394  0.6204  2.0303  1.8494
10530TIP3    H253082   5.357   3.725   6.350  1.3745  3.1801 -0.8695
10531TIP3   OH253083   1.978   5.253  11.827 -0.6114  0.1197 -0.3840
10531TIP3    H153084   1.953   5.336  11.786 -0.2018  0.1541 -0.5665
10531TIP3    H253085   1.929   5.187  11.778 -0.8637  0.2439 -0.3008
10532TIP3   OH253086   4.965   2.743   2.551 -0.0063 -0.2693  0.0871
10532TIP3    H153087   4.906   2.795   2.605  1.4871  0.0951  1.4561
10532TIP3    H253088   4.961   2.655   2.588  0.4232 -0.1975  0.3224
10533TIP3   OH253089   5.498   6.139  11.990  0.1958 -0.0847 -0.0084
10533TIP3    H153090   5.584   6.116  11.955 -0.2407 -0.4483 -0.8580
10533TIP3    H253091   5.451   6.178  11.917 -1.1166 -1.8775 -0.1892
10534TIP3   OH253092   6.397   1.486   3.923 -0.2904 -0.1417 -0.2738
10534TIP3    H153093   6.463   1.442   3.870  1.0116 -0.1100  1.2296
10534TIP3    H253094   6.348   1.414   3.965  1.4238 -0.2601  1.6869
10535TIP3   OH253095   5.991   2.802  12.077 -0.1145 -0.2385 -0.2279
10535TIP3    H153096   6.003   2.896  12.065  0.1665 -0.1767  0.4679
10535TIP3    H253097   6.074   2.763  12.051  0.3899 -0.1296  1.1145
10536TIP3   OH253098   3.803   6.341   5.126 -0.0244  0.0638 -0.0398
10536TIP3    H153099   3.730   6.283   5.148 -1.8748  1.8054 -1.2458
10536TIP3    H253100   3.784   6.372   5.037  1.2820  1.8828  0.2453
10537TIP3   OH253101   0.104   2.648   4.397  0.1874 -0.4363 -0.3039
10537TIP3    H153102   0.048   2.602   4.335  1.0724 -0.6761 -0.9445
10537TIP3    H253103   0.130   2.728   4.351 -1.6661  0.9619  0.9489
10538TIP3   OH253104   5.956   0.216   3.836 -0.3168  0.0113 -0.8555
10538TIP3    H153105   5.892   0.285   3.816 -1.1834 -0.7527 -0.8113
10538TIP3    H253106   5.955   0.209   3.931 -0.3705 -0.1881 -0.8704
10539TIP3   OH253107   6.542   2.491  11.910  0.2059  0.1281 -0.1704
10539TIP3    H153108   6.577   2.409  11.875  1.4719  1.2067 -1.5759
10539TIP3    H253109   6.463   2.507  11.859 -0.3545 -0.5041  0.5007
10540TIP3   OH253110   3.498   3.513  12.534 -0.1040 -0.4370  0.0296
10540TIP3    H153111   3.430   3.445  12.539  0.6846 -1.1758  0.9616
10540TIP3    H253112   3.492   3.545  12.444 -1.0122 -1.1924 -0.2039
10541TIP3   OH253113   0.720   3.475  13.745 -0.3733 -0.2247 -0.2871
10541TIP3    H153114   0.698   3.539  13.813 -0.2041 -0.5097  0.0435
10541TIP3    H253115   0.742   3.527  13.668  1.8300  0.2268  0.5763
10542TIP3   OH253116   2.022   0.367  10.787 -0.2415 -1.0532  0.5800
10542TIP3    H153117   1.980   0.283  10.807 -0.2163 -1.2339 -0.1055
10542TIP3    H253118   2.108   0.343  10.753 -0.3835 -0.7708  0.0066
10543TIP3   OH253119   5.161   3.431  14.001  0.3250 -0.2241  0.0151
10543TIP3    H153120   5.095   3.446  14.069  0.9723 -0.9104  0.8236
10543TIP3    H253121   5.123   3.468  13.921 -0.7717 -0.0776  0.5900
10544TIP3   OH253122   1.030   0.903   1.830  0.5040  0.0731  0.3027
10544TIP3    H153123   1.098   0.956   1.872  0.7304  1.4647 -1.6756
10544TIP3    H253124   0.952   0.920   1.882  1.3726 -0.5803  1.8770
10545TIP3   OH253125   5.661   5.385  13.405 -0.2681  0.4769 -0.3545
10545TIP3    H153126   5.689   5.449  13.471 -0.5989  1.6135 -1.2795
10545TIP3    H253127   5.649   5.437  13.326  0.2455 -0.8849 -1.3533
10546TIP3   OH253128   5.532   3.782  14.363 -0.0836  0.4305 -0.4010
10546TIP3    H153129   5.595   3.716  14.333 -0.2702  1.0156 -2.1983
10546TIP3    H253130   5.450   3.758  14.319 -0.9929  0.0338  1.4414
10547TIP3   OH253131   5.641   5.318   4.506 -0.3561 -0.3793 -0.2550
10547TIP3    H153132   5.596   5.237   4.530  0.3821 -0.6820  0.1424
10547TIP3    H253133   5.590   5.387   4.548 -1.1587 -0.6014 -0.8287
10548TIP3   OH253134   5.672   5.008  15.927  0.0456 -0.4097 -0.4086
10548TIP3    H153135   5.739   5.039  15.987  1.2791  0.8499 -2.3295
10548TIP3    H253136   5.655   4.918  15.954 -0.5838  0.5358  2.7227
10549TIP3   OH253137   5.007   1.213   5.016 -0.4228  0.6257  0.5717
10549TIP3    H153138   5.055   1.274   4.959 -0.7497 -1.4371 -2.1080
10549TIP3    H253139   5.076   1.171   5.068  0.3004  0.3185 -0.5904
10550TIP3   OH253140   6.777   1.680  17.034 -0.4005  0.3778 -0.3073
10550TIP3    H153141   6.774   1.769  16.999  1.6355 -0.3441 -2.6622
10550TIP3    H253142   6.854   1.679  17.091  0.0162  0.0141 -0.8504
10551TIP3   OH253143   3.282   0.013  11.853 -0.2738  0.5816  0.5589
10551TIP3    H153144   3.313   0.038  11.940  0.0765 -0.5251  0.7649
10551TIP3    H253145   3.334  -0.064  11.830 -1.2911  0.0482 -0.0515
10552TIP3   OH253146   1.472   5.937  14.457 -0.5117 -0.5753 -0.7059
10552TIP3    H153147   1.451   5.938  14.363  0.1713 -1.5518 -0.8845
10552TIP3    H253148   1.469   6.029  14.483  1.8768  0.0326 -2.2969
10553TIP3   OH253149   5.089   3.068  14.007  0.4870  0.0361  0.3834
10553TIP3    H153150   5.034   3.118  13.947 -0.4267 -0.6922  0.5832
10553TIP3    H253151   5.179   3.087  13.979  0.1192  0.7783 -0.3363
10554TIP3   OH253152   3.090   6.527   1.908 -0.6219  0.5001 -0.3023
10554TIP3    H153153   3.022   6.490   1.853  0.2407 -0.7730 -0.5517
10554TIP3    H253154   3.171   6.515   1.858 -0.0046  0.5577  0.6416
10555TIP3   OH253155   2.806   2.939  12.488  0.3082  0.2059  0.1918
10555TIP3    H153156   2.881   2.896  12.528 -0.5880 -2.4446 -0.7451
10555TIP3    H253157   2.747   2.958  12.561  1.6304  1.9170  0.8743
10556TIP3   OH253158   1.549   6.396  15.866 -0.2505  0.6431 -0.4597
10556TIP3    H153159   1.497   6.378  15.788  1.0384  0.3817 -1.3000
10556TIP3    H253160   1.485   6.417  15.934 -1.3678  1.7658 -1.8030
10557TIP3   OH253161   2.521   4.554  15.948  0.3235 -0.3822 -0.2607
10557TIP3    H153162   2.603   4.535  15.993 -0.8260 -0.2674  2.0091
10557TIP3    H253163   2.470   4.474  15.956 -0.4552  0.1203 -0.0730
10558TIP3   OH253164   4.688   3.332  15.830  0.2559  0.2328  0.6793
10558TIP3    H153165   4.680   3.406  15.891  0.4537  0.9478 -0.1349
10558TIP3    H253166   4.598   3.314  15.802 -0.1208 -1.5507  2.8126
10559TIP3   OH253167   3.218   0.232   3.932 -0.1735 -0.2528  0.8016
10559TIP3    H153168   3.132   0.248   3.893  0.1140 -0.4027  0.0892
10559TIP3    H253169   3.275   0.298   3.894 -0.1690  0.4757  2.0171
10560TIP3   OH253170   6.443   5.461  11.819 -0.1555  0.5661 -0.1130
10560TIP3    H153171   6.460   5.554  11.807  1.9086  0.0409 -1.7684
10560TIP3    H253172   6.529   5.420  11.822 -1.0019 -1.4586 -1.0371
10561TIP3   OH253173   3.329   0.096   5.792  0.1858 -0.1243  0.3030
10561TIP3    H153174   3.257   0.133   5.741  0.6123  1.4232  0.7681
10561TIP3    H253175   3.294   0.089   5.881 -0.2871 -2.0378 -0.0010
10562TIP3   OH253176   1.722   3.740   2.020 -0.0022  0.1099  0.1964
10562TIP3    H153177   1.755   3.749   1.931  0.2343 -0.9858  0.1578
10562TIP3    H253178   1.629   3.723   2.010  0.0857 -0.3476  0.1381
10563TIP3   OH253179   1.851   0.479  16.969 -0.2371  0.0404  0.1002
10563TIP3    H153180   1.924   0.429  17.004  0.3851  1.6409  1.1787
10563TIP3    H253181   1.891   0.552  16.922 -1.0951  1.5999  1.6915
10564TIP3   OH253182   6.779   2.632  11.802 -0.1148  0.1420  0.3979
10564TIP3    H153183   6.745   2.679  11.878 -1.3457 -0.7333  0.4102
10564TIP3    H253184   6.744   2.543  11.810 -0.4209  0.0719 -1.2532
10565TIP3   OH253185   0.032   5.884  13.529  0.3333 -0.4516 -0.1339
10565TIP3    H153186  -0.023   5.929  13.465 -2.3759 -0.2974  2.1101
10565TIP3    H253187  -0.025   5.815  13.564  1.3319  0.0801  2.7375
10566TIP3   OH253188   3.291   3.965  11.609 -0.1282  0.3102 -0.0622
10566TIP3    H153189   3.333   3.914  11.539  2.2013  1.4069  0.4223
10566TIP3    H253190   3.281   4.052  11.572  0.8979  0.8352  0.8371
10567TIP3   OH253191   6.614   5.650   5.071 -0.3591 -0.6759  0.1969
10567TIP3    H153192   6.703   5.652   5.106 -0.7060 -0.4344  1.1090
10567TIP3    H253193   6.581   5.564   5.097 -0.0389 -1.2012 -1.0823
10568TIP3   OH253194   4.697   1.142   3.674 -0.0046 -0.0880  0.3342
10568TIP3    H153195   4.695   1.100   3.588  1.8664 -0.4135  0.4201
10568TIP3    H253196   4.650   1.224   3.661  1.5029  0.5616 -1.4229
10569TIP3   OH253197   2.792   4.964   1.477  0.5827  0.4135  0.1532
10569TIP3    H153198   2.843   5.010   1.544 -0.7058 -2.0981  3.1250
10569TIP3    H253199   2.703   4.961   1.512 -0.1386 -1.1414 -1.6193
10570TIP3   OH253200   0.752   5.778  16.593  0.0660 -0.3974 -0.6831
10570TIP3    H153201   0.799   5.701  16.561  0.5433 -0.6449  0.5847
10570TIP3    H253202   0.725   5.824  16.513 -0.0519 -1.7607 -1.4664
10571TIP3   OH253203   1.356   5.569  15.998 -0.3182 -0.3135 -0.0700
10571TIP3    H153204   1.361   5.478  16.028 -0.5020  0.0671  1.1689
10571TIP3    H253205   1.447   5.596  15.990 -0.2491  0.0041  1.5517
10572TIP3   OH253206   5.591   1.602  11.784  0.0833 -0.3958  0.2481
10572TIP3    H153207   5.506   1.607  11.740  0.9629 -0.8218 -1.6119
10572TIP3    H253208   5.649   1.654  11.728  1.2821 -1.0509  0.8696
10573TIP3   OH253209   5.108   5.744  14.147  0.7009 -0.0346  0.1743
10573TIP3    H153210   5.144   5.798  14.077  1.4631  0.4194  0.9032
10573TIP3    H253211   5.077   5.807  14.212 -2.3463 -0.3504 -0.8253
10574TIP3   OH253212   6.255   4.248  11.597 -0.1057 -0.1768  0.0518
10574TIP3    H153213   6.277   4.335  11.562 -1.9452  0.2830 -0.1157
10574TIP3    H253214   6.173   4.225  11.552  0.4488 -2.1058 -0.0472
10575TIP3   OH253215   6.793   3.472   5.658 -0.0795 -0.1536  0.1495
10575TIP3    H153216   6.825   3.430   5.579  1.2776 -1.3096  1.2677
10575TIP3    H253217   6.707   3.506   5.634  1.2276  1.6372 -2.5143
10576TIP3   OH253218   6.398   4.652   3.192  0.1227 -0.4931  0.0959
10576TIP3    H153219   6.476   4.707   3.190  0.5254 -1.0292  0.6111
10576TIP3    H253220   6.331   4.703   3.148  0.5104  0.3796  0.4944
10577TIP3   OH253221   2.175   5.409  15.896  0.2120 -0.1317  0.5848
10577TIP3    H153222   2.213   5.327  15.865 -0.1165  0.5774 -1.8509
10577TIP3    H253223   2.233   5.436  15.967  3.1163 -0.1599 -1.5878
10578TIP3   OH253224   3.530   1.773   4.518  0.2363  0.8293  0.9575
10578TIP3    H153225   3.586   1.778   4.595 -1.2376 -1.7367  2.3545
10578TIP3    H253226   3.455   1.829   4.540  1.8620  3.9081 -0.7268
10579TIP3   OH253227   1.890   6.631   4.480  0.0424 -0.1212  0.5121
10579TIP3    H153228   1.832   6.705   4.461 -0.9565 -1.0969 -0.4087
10579TIP3    H253229   1.928   6.609   4.395  2.0473  0.6945  1.1513
10580TIP3   OH253230   1.535   2.315   1.349  0.1352 -0.5417  0.4498
10580TIP3    H153231   1.524   2.221   1.363  1.0613 -0.4876  1.6966
10580TIP3    H253232   1.487   2.356   1.421 -1.1893 -0.0076 -0.7049
10581TIP3   OH253233   2.005   5.366   3.835 -0.1017 -0.3827  0.5273
10581TIP3    H153234   2.018   5.451   3.878  0.0880 -0.8873  1.4887
10581TIP3    H253235   2.042   5.378   3.747 -0.8427  0.7767  0.3532
10582TIP3   OH253236   2.406   1.844  17.099  0.4709  0.4874  0.2919
10582TIP3    H153237   2.499   1.827  17.091  0.6744  1.4576  0.5660
10582TIP3    H253238   2.381   1.887  17.018  0.2382  0.1425  0.1787
10583TIP3   OH253239   3.646   5.166  11.873  0.1549 -0.1364 -0.8652
10583TIP3    H153240   3.655   5.130  11.961 -3.8012 -0.5331 -0.4358
10583TIP3    H253241   3.608   5.094  11.822  2.4474  0.0582 -3.0196
10584TIP3   OH253242   5.283   2.343  15.503 -0.1339 -0.2466 -0.0669
10584TIP3    H153243   5.214   2.393  15.547 -1.3399 -1.0935 -0.9323
10584TIP3    H253244   5.343   2.410  15.470 -1.3870  0.6260 -0.6612
10585TIP3   OH253245   4.712   5.517   0.710  0.3156 -0.0185  0.4786
10585TIP3    H153246   4.805   5.535   0.693 -0.1233  1.3931 -0.6553
10585TIP3    H253247   4.676   5.602   0.734 -0.9413 -0.2971 -0.3391
10586TIP3   OH253248   1.164   0.649   6.010 -0.0617  0.0114 -0.0086
10586TIP3    H153249   1.095   0.715   6.021 -0.1358  0.0349 -0.6033
10586TIP3    H253250   1.121   0.566   6.032 -0.3331  0.0053 -0.5338
10587TIP3   OH253251   2.482   3.226   4.135  0.0896 -0.0433  0.2917
10587TIP3    H153252   2.479   3.321   4.122  0.4646 -0.1848 -0.8623
10587TIP3    H253253   2.390   3.199   4.129  0.0839  0.1174 -0.4157
10588TIP3   OH253254   2.194   6.419  15.611  0.4158 -0.2060 -0.6345
10588TIP3    H153255   2.234   6.335  15.630  0.4399 -0.7141 -2.6747
10588TIP3    H253256   2.265   6.483  15.620  0.5688 -0.4810  0.1985
10589TIP3   OH253257   5.920   5.661   2.053  0.2679 -0.2951 -0.3448
10589TIP3    H153258   5.861   5.693   2.122 -0.0474  0.2136 -0.8430
10589TIP3    H253259   5.968   5.738   2.025  1.0932 -0.6799 -0.0434
10590TIP3   OH253260   0.906   3.250  13.852  0.0733 -0.1622 -0.5075
10590TIP3    H153261   0.871   3.168  13.818 -2.1198  0.0409  1.0396
10590TIP3    H253262   0.872   3.318  13.793 -1.1958 -0.0929  0.2477
10591TIP3   OH253263   3.565   1.576   2.325  0.0691  0.3482  0.1013
10591TIP3    H153264   3.614   1.499   2.294  0.3362  0.8212 -0.6956
10591TIP3    H253265   3.507   1.597   2.252 -1.6612 -0.4594  1.1916
10592TIP3   OH253266   5.300   1.247   1.042  0.3423  0.0752 -0.2276
10592TIP3    H153267   5.315   1.329   1.090 -0.6320 -0.1077  0.4139
10592TIP3    H253268   5.205   1.242   1.032  0.4379 -0.6513 -0.8504
10593TIP3   OH253269   0.387   4.390   1.423 -0.1048  1.0659 -0.4044
10593TIP3    H153270   0.456   4.409   1.486  0.0245  1.5649 -0.6927
10593TIP3    H253271   0.406   4.302   1.392 -0.4771  0.5935  0.6482
10594TIP3   OH253272   4.383   2.262  13.208 -0.1638 -0.0094 -0.1907
10594TIP3    H153273   4.434   2.313  13.145  0.4649 -1.3176 -0.7775
10594TIP3    H253274   4.292   2.274  13.181 -0.0806  1.1472 -0.0295
10595TIP3   OH253275   1.028   5.763  11.141 -0.0619  0.4971 -0.1074
10595TIP3    H153276   0.991   5.695  11.084 -3.1856  0.6973  1.4409
10595TIP3    H253277   1.055   5.716  11.219 -0.6138  0.7962  0.2711
10596TIP3   OH253278   6.201   2.080   5.787  0.5948 -0.2144  0.8717
10596TIP3    H153279   6.107   2.066   5.790 -0.0590  2.9727 -0.4541
10596TIP3    H253280   6.239   2.001   5.824 -2.5652 -1.7985  0.9981
10597TIP3   OH253281   0.211   0.295   0.961 -0.4314 -0.2069 -0.3966
10597TIP3    H153282   0.121   0.286   0.993  0.0555  1.2580  1.6043
10597TIP3    H253283   0.248   0.207   0.970 -0.9503 -0.2968  1.2539
10598TIP3   OH253284   1.321   4.639  13.425  0.6343  0.1675 -0.4237
10598TIP3    H153285   1.316   4.588  13.344  0.9029  1.4844 -1.3087
10598TIP3    H253286   1.230   4.656  13.449  0.5499 -0.4540 -0.2938
10599TIP3   OH253287   6.105   0.838  16.496  0.0884  0.4246 -0.5162
10599TIP3    H153288   6.042   0.767  16.509  0.8760 -0.3861 -0.9715
10599TIP3    H253289   6.062   0.899  16.437 -0.2546 -0.1407 -0.8533
10600TIP3   OH253290   6.396   5.937  14.633  0.5424 -0.2983  0.3506
10600TIP3    H153291   6.317   5.914  14.681 -0.3905  1.4294 -0.2770
10600TIP3    H253292   6.450   5.984  14.697  0.3740 -0.1221  0.3646
10601TIP3   OH253293   0.163   6.372  16.987 -0.0053  0.0821 -0.3249
10601TIP3    H153294   0.158   6.277  16.975 -1.1744  0.2279 -1.1551
10601TIP3    H253295   0.138   6.385  17.079 -1.0942 -0.3443 -0.5417
10602TIP3   OH253296   3.704   6.813  15.654 -0.2550  0.3151 -0.0425
10602TIP3    H153297   3.762   6.743  15.684  0.2610  0.3378 -0.9667
10602TIP3    H253298   3.762   6.874  15.609 -1.0583  0.0993 -1.4029
10603TIP3   OH253299   5.865   6.299  16.946  0.0894 -0.2742 -0.2372
10603TIP3    H153300   5.802   6.295  16.874 -0.4225 -0.9473  0.2309
10603TIP3    H253301   5.823   6.354  17.012  0.7431  0.6987 -0.6119
10604TIP3   OH253302   6.023   0.137   0.818 -0.6419 -0.1187  0.5030
10604TIP3    H153303   6.014   0.050   0.780  0.1696 -0.2412  0.5633
10604TIP3    H253304   6.024   0.196   0.743  1.4553 -0.3991  0.2523
10605TIP3   OH253305   6.269   0.465  17.119 -0.3791  0.5405 -0.7526
10605TIP3    H153306   6.220   0.492  17.197 -1.1091  0.4665 -1.1827
10605TIP3    H253307   6.210   0.406  17.073  0.8104 -1.0373 -0.3379
10606TIP3   OH253308   4.567   5.470   4.734 -0.0915  0.0160 -0.1843
10606TIP3    H153309   4.526   5.549   4.699 -0.2421 -0.4717 -1.1502
10606TIP3    H253310   4.504   5.401   4.716  1.2638 -0.8124 -1.9968
10607TIP3   OH253311   4.971   2.151   3.047  0.0714 -0.2921  0.2983
10607TIP3    H153312   5.047   2.113   3.004  0.1173 -1.2928  1.2173
10607TIP3    H253313   4.896   2.106   3.008  0.0146 -0.0659  0.1448
10608TIP3   OH253314   6.549   6.541  12.992  0.4461  0.4331 -0.2551
10608TIP3    H153315   6.634   6.499  13.005  0.2869 -0.2630 -1.3491
10608TIP3    H253316   6.545   6.607  13.061  1.6339  0.1099  0.1605
10609TIP3   OH253317   0.616   3.339  14.776  0.0418 -0.7301 -0.4000
10609TIP3    H153318   0.613   3.384  14.860  1.2391 -1.9492  0.3556
10609TIP3    H253319   0.647   3.404  14.714 -3.0211  0.8473 -0.4476
10610TIP3   OH253320   3.498   4.058  14.969 -0.9828  0.4017 -0.1775
10610TIP3    H153321   3.410   4.091  14.986 -1.8753 -1.1934 -1.4340
10610TIP3    H253322   3.501   3.974  15.015 -0.0948  0.4543 -0.1243
10611TIP3   OH253323   3.435   1.289  11.379  1.1429 -0.2825 -0.6701
10611TIP3    H153324   3.410   1.381  11.370  3.1467  0.1631 -2.7604
10611TIP3    H253325   3.407   1.265  11.468  0.3435  2.2620 -0.1456
10612TIP3   OH253326   0.377   2.499  16.850  0.3970 -0.7602 -0.0328
10612TIP3    H153327   0.363   2.453  16.768  0.7704 -0.7281 -0.1144
10612TIP3    H253328   0.289   2.522  16.880  0.2585 -0.7957 -0.4078
10613TIP3   OH253329   0.257   0.811   3.202  0.0314  0.4682  0.6309
10613TIP3    H153330   0.240   0.717   3.206  0.2869  0.3560 -0.5843
10613TIP3    H253331   0.331   0.825   3.261  0.5423 -0.2316  0.1569
10614TIP3   OH253332   3.296   1.979   0.163 -0.1199 -0.1038  0.0403
10614TIP3    H153333   3.311   1.890   0.193  1.5055  0.6461  1.6607
10614TIP3    H253334   3.204   1.981   0.136  0.0293 -2.4592 -0.8502
10615TIP3   OH253335   4.342   3.046   2.241 -0.1252  0.0300  0.1790
10615TIP3    H153336   4.275   2.981   2.264 -0.0514 -0.1779 -0.1988
10615TIP3    H253337   4.356   3.035   2.147  0.4626  0.0547  0.2617
10616TIP3   OH253338   0.951   1.684  13.995 -0.1059  0.2215 -0.1178
10616TIP3    H153339   0.907   1.708  14.076 -0.6339  1.0867 -0.6539
10616TIP3    H253340   0.997   1.602  14.016  0.4170  0.8452  1.2700
10617TIP3   OH253341   5.488   2.376   2.115 -0.1568 -0.1248  0.3384
10617TIP3    H153342   5.540   2.453   2.135  0.5724 -0.8431  1.3115
10617TIP3    H253343   5.472   2.381   2.020 -2.0413  2.3609  0.6845
10618TIP3   OH253344   6.452   0.790  13.673 -0.3542 -0.6170 -0.2003
10618TIP3    H153345   6.426   0.808  13.763  0.1261 -0.2064 -0.1373
10618TIP3    H253346   6.389   0.725  13.642 -3.2607  2.3250 -1.0303
10619TIP3   OH253347   6.450   2.191   4.030 -0.5249 -0.5492  0.1427
10619TIP3    H153348   6.479   2.279   4.005 -0.2115 -0.1656  1.7109
10619TIP3    H253349   6.359   2.202   4.056 -1.3040 -1.2195 -2.0850
10620TIP3   OH253350   4.842   1.761  15.879  0.2433 -0.1897  1.0126
10620TIP3    H153351   4.754   1.734  15.850  0.8801 -1.4819  0.1743
10620TIP3    H253352   4.873   1.818  15.809 -0.7817  2.2508  2.4041
10621TIP3   OH253353   6.011   1.288   3.141 -0.5114  0.0043 -0.3216
10621TIP3    H153354   6.013   1.220   3.208  0.7466  1.7096  1.4429
10621TIP3    H253355   6.091   1.275   3.090  0.0226  0.4673  0.3763
10622TIP3   OH253356   2.679   3.711  12.876 -0.1289 -0.5715 -0.5406
10622TIP3    H153357   2.700   3.684  12.787  1.3653 -1.7121  0.1154
10622TIP3    H253358   2.687   3.807  12.874  0.3929 -0.6195 -1.5052
10623TIP3   OH253359   3.938   3.090   2.696  0.0138 -0.0038  0.2143
10623TIP3    H153360   3.961   3.059   2.784 -1.3418 -0.5468  0.4185
10623TIP3    H253361   3.998   3.045   2.637  0.6484  0.0271  0.8316
10624TIP3   OH253362   6.451   3.817   0.742 -0.5063 -0.2758 -0.6437
10624TIP3    H153363   6.506   3.798   0.666 -0.8389  2.2008 -1.5915
10624TIP3    H253364   6.372   3.855   0.706 -1.7062 -1.1878  0.8695
10625TIP3   OH253365   0.429   0.846  15.760  0.2558  0.1327  0.0063
10625TIP3    H153366   0.360   0.806  15.812  1.3017 -1.9134 -0.0785
10625TIP3    H253367   0.510   0.821  15.803  1.0180  1.9496 -0.2507
10626TIP3   OH253368   3.537   0.900   0.097  0.0275 -0.3468 -0.3011
10626TIP3    H153369   3.518   0.935   0.010  0.4662  0.4616 -0.0825
10626TIP3    H253370   3.555   0.807   0.082 -0.0800 -0.2558 -1.0447
10627TIP3   OH253371   1.428   5.961  16.813 -0.3031  0.1241 -0.4970
10627TIP3    H153372   1.354   5.901  16.804 -0.4859  0.4350 -1.0793
10627TIP3    H253373   1.478   5.927  16.888  0.0247 -1.2007 -1.2944
10628TIP3   OH253374   4.058   5.506   2.224 -0.1223 -0.2333 -0.1859
10628TIP3    H153375   4.110   5.443   2.173  0.4412  0.1468 -0.0886
10628TIP3    H253376   3.988   5.453   2.263  0.3104 -0.7922 -0.1493
10629TIP3   OH253377   4.590   4.587   0.888 -0.7745  0.0622  0.0875
10629TIP3    H153378   4.547   4.542   0.815  0.1250 -0.2946 -0.2319
10629TIP3    H253379   4.567   4.679   0.875  0.9485  0.3117 -1.8271
10630TIP3   OH253380   3.766   4.522   0.685  0.2587 -0.2683  0.4418
10630TIP3    H153381   3.857   4.538   0.660  0.1552  0.7967  0.6821
10630TIP3    H253382   3.717   4.524   0.603  0.3733 -0.1862  0.3757
10631TIP3   OH253383   6.625   0.571  11.736  0.5464 -0.1779  0.3007
10631TIP3    H153384   6.610   0.518  11.657  1.4290  0.2577 -0.1781
10631TIP3    H253385   6.630   0.661  11.703  2.6068 -0.1403  0.5837
10632TIP3   OH253386   1.149   5.780  15.924 -0.7597 -0.5346 -0.4996
10632TIP3    H153387   1.230   5.733  15.943 -1.6006 -1.3199  1.3862
10632TIP3    H253388   1.116   5.738  15.844  0.9952  0.2713 -1.6906
10633TIP3   OH253389   1.978   1.035   1.047 -0.3575  0.0726  0.2460
10633TIP3    H153390   1.978   0.967   1.114 -0.9517 -3.3784 -2.9100
10633TIP3    H253391   2.069   1.062   1.040  0.1404 -1.3689  0.7851
10634TIP3   OH253392   3.780   3.815   4.407 -0.3885 -0.5325  0.2586
10634TIP3    H153393   3.754   3.894   4.456 -2.6818 -1.2495  0.3182
10634TIP3    H253394   3.792   3.748   4.474 -1.7949 -1.0612  0.0194
10635TIP3   OH253395   3.417   3.623  13.444  0.3700  0.0028 -0.5960
10635TIP3    H153396   3.324   3.642  13.456  0.9944  1.6347  2.5405
10635TIP3    H253397   3.427   3.532  13.474  0.0058  0.3087  0.4896
10636TIP3   OH253398   0.629   6.051  14.937 -0.0358 -0.5107  0.6539
10636TIP3    H153399   0.638   6.128  14.993 -1.5343  1.0492 -1.1219
10636TIP3    H253400   0.568   5.994  14.984 -0.8377  0.5141  0.8899
10637TIP3   OH253401   5.244   5.749  14.904  0.3080 -0.4271  0.2501
10637TIP3    H153402   5.280   5.664  14.879  0.6676 -0.5578  1.1761
10637TIP3    H253403   5.318   5.797  14.941  0.0196  0.1397  0.1048
10638TIP3   OH253404   0.649   5.207   1.886  0.1470  0.2296  0.6542
10638TIP3    H153405   0.654   5.302   1.873 -0.4981  0.4193  1.6912
10638TIP3    H253406   0.688   5.170   1.807 -1.0921  1.3304 -0.5242
10639TIP3   OH253407   1.257   6.434  12.847  0.1816  0.8779 -0.0094
10639TIP3    H153408   1.329   6.460  12.904 -1.0580  1.7571  1.2405
10639TIP3    H253409   1.196   6.508  12.851 -0.3222  0.6189 -1.8723
10640TIP3   OH253410   6.511   5.968   1.418  0.1718 -0.6902  0.0307
10640TIP3    H153411   6.534   5.965   1.325  1.1361  0.4086  0.2107
10640TIP3    H253412   6.589   5.935   1.463 -0.9646 -3.0914  0.4130
10641TIP3   OH253413   6.198   4.157  14.001 -0.2914  0.8237  0.6005
10641TIP3    H153414   6.239   4.192  13.922 -0.1356 -0.6755 -0.0104
10641TIP3    H253415   6.262   4.094  14.036 -1.9130 -1.4431 -0.2794
10642TIP3   OH253416   5.362   1.262   1.559 -0.5100  0.0006  0.3872
10642TIP3    H153417   5.275   1.281   1.524 -0.8434  0.5725  1.4897
10642TIP3    H253418   5.372   1.322   1.633  0.5769 -0.4775  0.6442
10643TIP3   OH253419   0.833   2.170  16.479  0.4718  0.0286  0.5126
10643TIP3    H153420   0.805   2.092  16.430 -0.6834 -0.0390  1.2505
10643TIP3    H253421   0.919   2.190  16.443  0.2644 -0.8545 -0.5637
10644TIP3   OH253422   5.724   5.862   1.518 -0.7423 -0.2021  0.5124
10644TIP3    H153423   5.683   5.800   1.457  2.3747 -0.8538 -1.1412
10644TIP3    H253424   5.789   5.810   1.565  0.5536  1.3780  0.5539
10645TIP3   OH253425   3.090   4.820  12.605  0.0547 -0.1941 -0.2303
10645TIP3    H153426   3.044   4.740  12.581  0.5648  0.1358 -2.6476
10645TIP3    H253427   3.033   4.890  12.572  0.4062  0.3673  0.3464
10646TIP3   OH253428   4.115   0.561  11.907 -0.1113 -1.0308 -0.1412
10646TIP3    H153429   4.038   0.590  11.858  1.0001  0.2692 -1.1601
10646TIP3    H253430   4.173   0.524  11.841  1.2192  0.3382  0.2077
10647TIP3   OH253431   5.961   5.581  15.581 -0.3484 -0.0824  0.1422
10647TIP3    H153432   5.952   5.487  15.597  0.8149 -0.0191  1.3663
10647TIP3    H253433   6.053   5.592  15.556 -0.1342  0.8589  1.2377
10648TIP3   OH253434   0.683   4.927  12.628 -0.2812 -0.5931 -0.1997
10648TIP3    H153435   0.654   5.018  12.622  0.9602 -0.2025 -0.7252
10648TIP3    H253436   0.637   4.882  12.557  1.5403  0.3745 -2.1408
10649TIP3   OH253437   3.621   1.878   5.109  0.0379 -0.0990 -0.1946
10649TIP3    H153438   3.645   1.793   5.146 -1.4710 -0.7248 -0.5620
10649TIP3    H253439   3.675   1.941   5.156  0.0766 -1.1286  1.1983
10650TIP3   OH253440   6.471   1.850   2.170 -0.2864 -0.0816  0.7115
10650TIP3    H153441   6.384   1.837   2.133 -0.1602  1.0550 -0.0542
10650TIP3    H253442   6.457   1.910   2.243 -0.2433 -0.5133  1.0746
10651TIP3   OH253443   1.785   5.751  17.081 -0.0307  0.0274  0.3694
10651TIP3    H153444   1.845   5.781  17.149  1.3405 -3.4515  0.9209
10651TIP3    H253445   1.707   5.721  17.128 -0.2004  0.0786  0.1267
10652TIP3   OH253446   5.341   2.229  13.142 -0.2497 -0.0266  0.0327
10652TIP3    H153447   5.282   2.240  13.067 -1.3949  0.8493  1.0238
10652TIP3    H253448   5.351   2.317  13.177 -1.8909 -0.7075  2.4729
10653TIP3   OH253449   2.855   3.588   1.739  0.4292 -0.1307  0.6350
10653TIP3    H153450   2.764   3.596   1.770 -0.5712 -1.1510 -1.7865
10653TIP3    H253451   2.896   3.672   1.763 -1.1860  0.4298  1.6146
10654TIP3   OH253452   3.942   5.989  13.526  0.1527 -0.1636 -0.4205
10654TIP3    H153453   3.977   6.078  13.515  0.8053 -0.5511 -1.7015
10654TIP3    H253454   3.953   5.970  13.619  1.5603  0.4806 -0.4310
10655TIP3   OH253455   1.881   6.749   0.592 -0.3652  0.8682 -0.0042
10655TIP3    H153456   1.860   6.781   0.505  0.7753 -0.9620 -1.0364
10655TIP3    H253457   1.946   6.810   0.626  1.1211  0.2307 -1.5543
10656TIP3   OH253458   1.065   5.420  13.923  0.6339  0.0854 -0.2127
10656TIP3    H153459   0.977   5.455  13.932  1.2325  1.6389 -0.1119
10656TIP3    H253460   1.081   5.419  13.829  0.3087 -0.7771 -0.2712
10657TIP3   OH253461   3.191   5.933  12.107 -0.2987  0.4282  0.8187
10657TIP3    H153462   3.280   5.907  12.084  0.2837  2.1954  0.9324
10657TIP3    H253463   3.161   5.866  12.169  0.5522 -0.7458  0.0060
10658TIP3   OH253464   1.908   0.786   4.320  0.0560  1.0655  0.3802
10658TIP3    H153465   1.857   0.855   4.361 -1.5380 -0.6538  1.4335
10658TIP3    H253466   1.921   0.720   4.388  0.5314 -0.2104 -0.8728
10659TIP3   OH253467   0.429   2.402  15.580  0.5396  0.5698 -0.1363
10659TIP3    H153468   0.483   2.358  15.515  0.1481  0.1243 -0.1675
10659TIP3    H253469   0.341   2.400  15.543 -0.0440 -1.3240  1.1779
10660TIP3   OH253470   5.411   5.959  13.742 -0.3440  0.1581  0.1178
10660TIP3    H153471   5.328   5.950  13.695 -0.7575  1.6848  0.4964
10660TIP3    H253472   5.418   5.878  13.793 -0.6473 -0.8265 -1.3576
10661TIP3   OH253473   6.616   1.631  13.908 -0.6689  0.1123  0.5394
10661TIP3    H153474   6.565   1.551  13.892  0.1782 -0.1283 -1.2513
10661TIP3    H253475   6.694   1.621  13.853  0.5232  1.2092  1.9463
10662TIP3   OH253476   4.988   3.568  12.693 -0.3901  0.3841 -0.8728
10662TIP3    H153477   4.979   3.479  12.660 -1.7420 -0.4759  1.5726
10662TIP3    H253478   4.911   3.614  12.659 -1.9056 -0.5600  1.1195
10663TIP3   OH253479   5.627   5.277   3.205  0.2212  0.2472  0.3576
10663TIP3    H153480   5.711   5.317   3.227  0.4949  0.1732 -0.5264
10663TIP3    H253481   5.621   5.284   3.110 -0.4124 -0.4650  0.3372
10664TIP3   OH253482   5.383   6.353   3.271 -0.1715  0.1604  0.4337
10664TIP3    H153483   5.288   6.353   3.275 -0.2085  2.2936  0.6589
10664TIP3    H253484   5.411   6.385   3.357  0.8085 -1.3356  0.7117
10665TIP3   OH253485   5.004   5.804  13.136 -0.4159 -0.2385 -0.1730
10665TIP3    H153486   5.095   5.776  13.139  0.2141  1.3516 -1.8987
10665TIP3    H253487   4.965   5.770  13.216  1.7885 -0.6370  0.8045
10666TIP3   OH253488   6.506   0.005  16.939  0.0794  0.2106 -0.5157
10666TIP3    H153489   6.597  -0.010  16.963  0.1298  1.5361  0.2123
10666TIP3    H253490   6.466  -0.082  16.941  0.8334 -0.1415  1.2678
10667TIP3   OH253491   4.476   5.751  15.766 -0.2752 -0.6588  0.1042
10667TIP3    H153492   4.541   5.799  15.817  1.4096 -1.2614 -1.3575
10667TIP3    H253493   4.394   5.764  15.813  0.2390  2.7963  0.3414
10668TIP3   OH253494   4.591   5.612  15.548  0.0081  0.1179  0.3314
10668TIP3    H153495   4.519   5.655  15.594  0.0314  0.4957  0.0226
10668TIP3    H253496   4.632   5.556  15.614  0.1544  0.7900  0.8256
10669TIP3   OH253497   4.581   4.114  16.680  0.2199 -0.3179  0.3697
10669TIP3    H153498   4.636   4.036  16.667  2.1083  1.1877 -1.2058
10669TIP3    H253499   4.551   4.138  16.592  0.9119  1.5636  0.5998
10670TIP3   OH253500   3.997   5.309   3.577  0.0746 -0.2665  0.0628
10670TIP3    H153501   4.053   5.255   3.522  1.0331 -0.0017  0.7467
10670TIP3    H253502   4.057   5.348   3.641 -0.8927  0.0238  0.8165
10671TIP3   OH253503   5.393   1.701  12.658  0.5258  0.2345 -0.0208
10671TIP3    H153504   5.350   1.729  12.577  0.5814  1.9429  0.5097
10671TIP3    H253505   5.327   1.649  12.704  0.4454 -0.6213 -1.0641
10672TIP3   OH253506   4.342   0.658   5.089  0.7350 -0.0394  0.0535
10672TIP3    H153507   4.357   0.727   5.153  1.1807 -0.4251  0.3736
10672TIP3    H253508   4.325   0.580   5.141 -0.9810  0.0650 -0.3066
10673TIP3   OH253509   0.389   4.750  11.294  0.1104  0.2504  0.0716
10673TIP3    H153510   0.338   4.760  11.213 -0.5312  1.8347  0.6416
10673TIP3    H253511   0.378   4.833  11.340  1.9808  0.0563  0.9417
10674TIP3   OH253512   2.616   1.906   3.793 -0.3097  0.5265  0.1732
10674TIP3    H153513   2.522   1.893   3.776 -0.3824  0.0443  0.9037
10674TIP3    H253514   2.659   1.857   3.723 -0.6116 -0.9303  0.9624
10675TIP3   OH253515   3.822   1.682   2.473 -0.0189 -0.0165 -0.1376
10675TIP3    H153516   3.796   1.760   2.521  2.1229 -1.3055  3.5052
10675TIP3    H253517   3.751   1.619   2.488  0.4770 -0.2939  1.1379
10676TIP3   OH253518   2.087   6.766  14.527 -0.2609 -0.1720 -0.1580
10676TIP3    H153519   2.084   6.824  14.603  0.7444 -0.0697 -0.1824
10676TIP3    H253520   2.090   6.825  14.452  1.0153 -0.2291 -0.1732
10677TIP3   OH253521   2.093   1.424   3.179  0.6341 -0.1365 -0.0670
10677TIP3    H153522   2.075   1.361   3.249  0.7055  0.6289  0.6551
10677TIP3    H253523   2.121   1.371   3.105 -2.5174 -1.2823 -0.6071
10678TIP3   OH253524   5.984   5.885  11.861 -0.1869  0.3932  0.0554
10678TIP3    H153525   6.068   5.842  11.878  0.9794  2.2486 -0.7173
10678TIP3    H253526   5.981   5.957  11.924 -0.5169  1.1958 -0.8565
10679TIP3   OH253527   2.814   1.555   4.914 -0.1578  0.0942 -0.1566
10679TIP3    H153528   2.754   1.607   4.968  0.6449  0.2892  0.5630
10679TIP3    H253529   2.763   1.534   4.836 -0.9092  0.9196  0.0900
10680TIP3   OH253530   1.871   4.787  15.014 -0.0287  0.7545  0.1021
10680TIP3    H153531   1.951   4.839  15.003  1.6093 -1.6992 -0.4819
10680TIP3    H253532   1.865   4.772  15.108  0.7136  0.2524  0.0790
10681TIP3   OH253533   4.226   2.153  13.446  0.8004 -0.3782  0.0105
10681TIP3    H153534   4.234   2.238  13.403  0.6686  0.4044  1.4779
10681TIP3    H253535   4.212   2.091  13.374 -2.0920  1.1777 -0.9350
10682TIP3   OH253536   5.750   1.543   2.464 -0.3473  0.2478  0.0549
10682TIP3    H153537   5.746   1.554   2.559 -0.2561  1.0762 -0.0346
10682TIP3    H253538   5.659   1.549   2.436 -0.2329  1.7611 -0.0870
10683TIP3   OH253539   5.782   2.095  13.794  0.6405 -0.1867  0.4508
10683TIP3    H153540   5.809   2.157  13.862  1.9319  0.9721 -1.0424
10683TIP3    H253541   5.724   2.146  13.738  3.4649  0.4833 -2.0763
10684TIP3   OH253542   4.359   5.328   1.982 -0.2675 -0.8635 -0.9453
10684TIP3    H153543   4.359   5.363   1.893 -1.6903  0.2074 -0.5577
10684TIP3    H253544   4.383   5.402   2.037 -2.0227 -0.7844 -0.2287
10685TIP3   OH253545   2.471   3.529   1.112  0.0920 -0.4721  0.3572
10685TIP3    H153546   2.441   3.552   1.200  1.4946  0.5378  0.6158
10685TIP3    H253547   2.508   3.610   1.077  0.3365 -1.0711 -0.8265
10686TIP3   OH253548   1.614   5.722   3.432 -0.0454 -0.3565 -0.2141
10686TIP3    H153549   1.681   5.769   3.383 -0.2551 -1.0295 -1.1690
10686TIP3    H253550   1.536   5.726   3.377 -0.8321  0.4895  0.9204
10687TIP3   OH253551   3.798   3.260  16.336  0.3788  0.7599  0.0867
10687TIP3    H153552   3.707   3.264  16.366 -0.1847 -2.6543 -0.8107
10687TIP3    H253553   3.793   3.280  16.243  0.7516  1.6868  0.2543
10688TIP3   OH253554   5.201   6.343   2.794  0.2050  0.0286  0.0091
10688TIP3    H153555   5.260   6.306   2.728 -0.4106 -0.2281 -0.4140
10688TIP3    H253556   5.116   6.303   2.774 -0.4416  1.5231 -0.3363
10689TIP3   OH253557   0.122   3.517   3.412 -0.2445 -0.0314  0.7399
10689TIP3    H153558   0.026   3.510   3.409 -0.2006 -0.3167 -1.2905
10689TIP3    H253559   0.145   3.490   3.501 -1.9931 -0.8140  1.0011
10690TIP3   OH253560   5.054   4.620  13.610  0.3304 -0.0655  0.0599
10690TIP3    H153561   5.111   4.547  13.632  0.7528  0.0979 -0.4706
10690TIP3    H253562   4.986   4.619  13.677  0.5209 -0.7386  0.2459
10691TIP3   OH253563   1.209   5.615   4.865 -0.0371  0.7942  0.0578
10691TIP3    H153564   1.235   5.673   4.936 -0.3740 -0.6773  1.4527
10691TIP3    H253565   1.114   5.605   4.876  0.1682 -0.9147  0.6161
10692TIP3   OH253566   3.243   2.004  16.128  0.1971  0.2172 -0.4471
10692TIP3    H153567   3.260   1.938  16.196 -1.1281 -3.0257 -3.0050
10692TIP3    H253568   3.156   2.037  16.148 -0.0229 -0.4155 -0.3389
10693TIP3   OH253569   3.737   4.096   4.522 -0.1780 -0.1317  0.1861
10693TIP3    H153570   3.737   4.123   4.430 -0.9729 -0.0540  0.2056
10693TIP3    H253571   3.665   4.144   4.562 -1.1215 -1.6327  0.4013
10694TIP3   OH253572   5.584   1.090  16.129  0.2147  0.9471 -0.1135
10694TIP3    H153573   5.664   1.038  16.140 -0.8237 -1.0030 -1.2330
10694TIP3    H253574   5.561   1.118  16.217  0.5162 -1.0193  0.6390
10695TIP3   OH253575   5.282   3.279   5.553 -0.0522  0.1275 -0.2085
10695TIP3    H153576   5.313   3.358   5.598 -0.8512 -0.5392  1.6419
10695TIP3    H253577   5.317   3.286   5.465  2.1206  1.2474  0.6667
10696TIP3   OH253578   2.297   6.777   3.635  0.2378  0.1862 -0.1760
10696TIP3    H153579   2.235   6.847   3.613  0.4819  0.9304  1.3481
10696TIP3    H253580   2.342   6.758   3.553  0.6438  2.3267 -0.5046
10697TIP3   OH253581   6.304   1.825   6.250 -0.3403  0.3716  0.1909
10697TIP3    H153582   6.305   1.921   6.245  1.2267  0.3520 -0.3214
10697TIP3    H253583   6.248   1.806   6.326 -1.5627  1.6355 -0.3493
10698TIP3   OH253584   4.192   3.633   4.502  0.1814 -0.1884 -0.0904
10698TIP3    H153585   4.177   3.607   4.411 -0.9213  0.1907 -0.0257
10698TIP3    H253586   4.150   3.718   4.510 -2.7170 -1.6584  1.6175
10699TIP3   OH253587   6.743   2.277  14.492  0.0788 -0.5725  0.7867
10699TIP3    H153588   6.800   2.293  14.568  0.0914  0.1012  0.6407
10699TIP3    H253589   6.789   2.318  14.419 -0.2907 -0.5839  0.5480
10700TIP3   OH253590   3.566   4.690  14.890 -0.3159 -0.3206  0.4999
10700TIP3    H153591   3.475   4.702  14.863  0.1719 -0.0661 -1.1715
10700TIP3    H253592   3.589   4.772  14.934 -0.8999 -0.4231  1.0176
10701TIP3   OH253593   4.452   2.027   4.646  0.7574  0.3014 -0.1481
10701TIP3    H153594   4.535   2.035   4.692  0.7129 -0.7437  0.1587
10701TIP3    H253595   4.471   1.971   4.570  0.7608  1.7488 -1.2442
10702TIP3   OH253596   3.431   6.352   1.856  0.2978 -0.2300  0.2895
10702TIP3    H153597   3.383   6.269   1.844 -0.9350  0.0278  2.7973
10702TIP3    H253598   3.521   6.325   1.876  0.5819 -0.8233 -1.6179
10703TIP3   OH253599   0.662   5.429  11.956 -0.2449 -0.0799  0.0507
10703TIP3    H153600   0.734   5.367  11.944  0.0952  0.3851 -0.3363
10703TIP3    H253601   0.675   5.464  12.044 -1.4165 -1.7856  0.9721
10704TIP3   OH253602   6.598   1.697   3.080  0.8388 -0.6909  0.3883
10704TIP3    H153603   6.570   1.701   3.172  0.5818 -1.1115  0.3328
10704TIP3    H253604   6.520   1.670   3.032  1.3887 -2.1880  0.2719
10705TIP3   OH253605   3.114   1.870   2.009  0.0168 -0.3351  0.1490
10705TIP3    H153606   3.139   1.788   1.965 -0.1642  0.1543 -0.9120
10705TIP3    H253607   3.033   1.897   1.966 -0.6952 -0.3109  1.4582
10706TIP3   OH253608   6.275   2.580   2.852 -0.1027 -0.3921 -0.2110
10706TIP3    H153609   6.221   2.639   2.799 -1.6150 -1.1402  0.4213
10706TIP3    H253610   6.226   2.498   2.853  0.1631 -0.5820  1.8352
10707TIP3   OH253611   3.930   0.549   4.234 -0.1981 -0.3512  0.2881
10707TIP3    H153612   3.950   0.592   4.151 -0.8281 -0.6294 -0.0156
10707TIP3    H253613   4.015   0.522   4.269 -0.0068 -1.2479 -0.8233
10708TIP3   OH253614   5.224   4.993  15.861  1.0929  0.1490  0.4583
10708TIP3    H153615   5.232   4.965  15.769 -1.5242  1.6805 -0.3419
10708TIP3    H253616   5.291   5.060  15.871  2.1733 -0.8336  0.0440
10709TIP3   OH253617   2.023   5.365  14.532  0.0488  0.1681  0.8206
10709TIP3    H153618   2.002   5.272  14.520 -1.0982  0.5155 -0.0171
10709TIP3    H253619   1.950   5.400  14.583 -0.4446  0.9872 -0.4145
10710TIP3   OH253620   5.605   2.167   1.189  0.5333  0.3778  0.6677
10710TIP3    H153621   5.654   2.135   1.265  0.6348 -0.3474  0.2999
10710TIP3    H253622   5.610   2.097   1.125  0.8466  1.1658 -0.2035
10711TIP3   OH253623   4.707   4.869  12.252  0.3175  0.3714 -0.0613
10711TIP3    H153624   4.625   4.916  12.238  0.9538  1.2308 -1.0145
10711TIP3    H253625   4.684   4.777  12.241 -0.5126  0.6048 -0.3313
10712TIP3   OH253626   6.321   5.748  15.339 -0.3255  0.1139 -0.8750
10712TIP3    H153627   6.398   5.746  15.283  0.3294 -0.7355  0.0193
10712TIP3    H253628   6.257   5.800  15.290  0.3986 -0.1639 -2.1576
10713TIP3   OH253629   3.357   6.686   3.193 -0.1636 -0.7445 -0.5531
10713TIP3    H153630   3.283   6.745   3.182  2.2942  2.4867 -1.0957
10713TIP3    H253631   3.337   6.637   3.272 -2.5964  0.4013 -0.3745
10714TIP3   OH253632   4.332   1.992   2.776  0.4814  0.1026 -0.0412
10714TIP3    H153633   4.293   2.008   2.690 -1.7006 -0.9285  0.6740
10714TIP3    H253634   4.258   1.998   2.837  1.6163 -1.0756  1.5352
10715TIP3   OH253635   4.736   2.647  14.679 -0.4783  0.0912  0.1291
10715TIP3    H153636   4.796   2.573  14.668 -1.4598 -0.5136 -1.4204
10715TIP3    H253637   4.792   2.724  14.672  0.9044 -0.3936  3.7314
10716TIP3   OH253638   3.558   0.462  14.279  0.3298  0.6762 -0.3250
10716TIP3    H153639   3.512   0.433  14.358  1.9444 -0.4600  0.2610
10716TIP3    H253640   3.578   0.554  14.295  0.7525  0.4236  0.6886
10717TIP3   OH253641   0.162   4.002   2.424 -0.8276 -0.2442 -0.3166
10717TIP3    H153642   0.214   3.959   2.493 -0.5392  1.7229  0.7571
10717TIP3    H253643   0.080   4.024   2.467 -2.4116 -2.6929 -1.8126
10718TIP3   OH253644   4.508   5.742   2.303  0.5146  0.5887  0.2937
10718TIP3    H153645   4.437   5.753   2.239  2.3627 -2.4748 -2.5562
10718TIP3    H253646   4.588   5.747   2.251  2.2026 -0.9284  2.5677
10719TIP3   OH253647   5.513   1.858  12.980  0.0969  0.9376  0.1098
10719TIP3    H153648   5.527   1.845  12.886 -0.3984  0.9659  0.0277
10719TIP3    H253649   5.599   1.845  13.019  0.0663 -0.3000 -0.2166
10720TIP3   OH253650   2.614   3.219   0.771  0.0842 -0.1771 -0.2469
10720TIP3    H153651   2.694   3.167   0.778  0.5590  0.3025 -1.6408
10720TIP3    H253652   2.570   3.185   0.693 -1.1942 -0.5664  0.6127
10721TIP3   OH253653   2.938   0.648   2.990  0.3991 -0.2888 -0.4756
10721TIP3    H153654   2.958   0.703   2.914  1.1735  0.5921  0.3348
10721TIP3    H253655   3.010   0.665   3.051  0.6697 -2.2288 -0.2023
10722TIP3   OH253656   6.003   0.838   4.752  0.1905  0.4028 -0.0669
10722TIP3    H153657   5.968   0.750   4.740  0.3136  0.2712  0.5072
10722TIP3    H253658   5.958   0.872   4.830  0.8878  0.4576  0.3195
10723TIP3   OH253659   5.645   1.566  16.960  0.1629 -0.6268  0.1775
10723TIP3    H153660   5.551   1.564  16.978 -0.0646 -2.4922 -0.9528
10723TIP3    H253661   5.652   1.598  16.870  0.5854 -0.7117  0.1772
10724TIP3   OH253662   6.621   2.368   4.853 -0.4641  0.5246  0.7166
10724TIP3    H153663   6.555   2.368   4.922 -2.2576 -2.3248 -0.8095
10724TIP3    H253664   6.576   2.332   4.777  2.0907  1.2589 -1.2762
10725TIP3   OH253665   5.797   1.386   1.676 -0.2014 -0.1648 -0.5285
10725TIP3    H153666   5.784   1.298   1.641  0.3879  0.5283 -2.6206
10725TIP3    H253667   5.813   1.373   1.770  0.0535 -2.2774 -0.8259
10726TIP3   OH253668   1.339   6.360   3.087  0.3713 -0.7373  0.2850
10726TIP3    H153669   1.319   6.419   3.014  0.5387 -0.4159  0.4943
10726TIP3    H253670   1.264   6.301   3.092  0.7011 -1.2546 -0.6381
10727TIP3   OH253671   6.270   4.259   1.910 -0.2083  0.1360  0.5310
10727TIP3    H153672   6.266   4.253   1.815  1.6187 -0.9138  0.4812
10727TIP3    H253673   6.181   4.284   1.936 -0.6296  0.8918 -1.4575
10728TIP3   OH253674   6.581   3.550   0.986  0.2164  0.2155  0.1670
10728TIP3    H153675   6.489   3.523   0.977  0.0669  0.8375 -0.2423
10728TIP3    H253676   6.579   3.620   1.051  0.0232  1.9410 -1.5801
10729TIP3   OH253677   6.486   1.701   3.335 -0.1547  0.4657 -0.4435
10729TIP3    H153678   6.518   1.704   3.425 -0.2914 -0.7395 -0.3344
10729TIP3    H253679   6.407   1.754   3.335  1.2512  2.6924 -0.4889
10730TIP3   OH253680   6.445   4.059  13.552  0.4325 -0.0876  0.7067
10730TIP3    H153681   6.482   4.112  13.482  0.8999 -0.0116  1.0101
10730TIP3    H253682   6.484   3.973  13.542 -2.3617 -1.2811 -1.4961
10731TIP3   OH253683   6.146   0.181   2.274  0.5189  0.0772 -0.0412
10731TIP3    H153684   6.212   0.245   2.249  0.4990  0.0737 -0.1044
10731TIP3    H253685   6.147   0.117   2.203 -1.2433  1.3584 -1.3197
10732TIP3   OH253686   0.927   3.084  17.021  0.3650  0.4684 -0.9680
10732TIP3    H153687   0.997   3.023  17.044  0.6198  0.0915 -2.6006
10732TIP3    H253688   0.967   3.170  17.029  0.3750  0.3662  0.1472
10733TIP3   OH253689   5.688   4.101  11.994  0.8775 -0.3410  0.4477
10733TIP3    H153690   5.615   4.132  11.940  0.6914  1.4023  1.6149
10733TIP3    H253691   5.712   4.017  11.956 -0.3332  0.0442 -1.2908
10734TIP3   OH253692   1.577   6.806  12.386  0.6424 -0.6966  0.9752
10734TIP3    H153693   1.532   6.744  12.328 -3.1044  1.1879  1.5979
10734TIP3    H253694   1.622   6.866  12.327  0.0589 -1.0227  0.1876
10735TIP3   OH253695   5.033   2.054  14.890 -0.3078  0.4748 -0.1782
10735TIP3    H153696   5.017   2.100  14.973 -1.1471  0.4099 -0.2960
10735TIP3    H253697   5.088   1.979  14.914 -2.7896 -1.1454  0.8218
10736TIP3   OH253698   3.982   5.023   5.616  0.1854 -0.2079 -0.2915
10736TIP3    H153699   4.067   5.015   5.573  0.4867  0.0251  0.2614
10736TIP3    H253700   3.976   5.115   5.640  0.9054 -0.7076  1.9814
10737TIP3   OH253701   3.096   3.849  13.541 -0.3755  0.0071  0.0134
10737TIP3    H153702   3.013   3.887  13.568 -1.6932 -0.8982 -2.5135
10737TIP3    H253703   3.121   3.897  13.462  1.4843  0.1739  0.6318
10738TIP3   OH253704   5.161   5.701  13.575  0.0506  0.3442  0.1752
10738TIP3    H153705   5.229   5.662  13.521 -0.0696 -0.9972  0.9315
10738TIP3    H253706   5.149   5.789  13.540  1.6785  0.3665 -0.4014
10739TIP3   OH253707   6.297   6.442   2.862  0.0819  0.1950  0.3243
10739TIP3    H153708   6.315   6.374   2.927 -1.4361  1.5785  2.3328
10739TIP3    H253709   6.288   6.396   2.779  1.0226 -1.7869  1.2736
10740TIP3   OH253710   6.351   0.458   3.290 -0.5321  0.1595 -0.0118
10740TIP3    H153711   6.259   0.483   3.283 -0.4708  0.7911  1.1961
10740TIP3    H253712   6.360   0.423   3.379  0.0888 -1.2486 -0.6042
10741TIP3   OH253713   6.812   6.809   4.478 -0.0894  0.3859  0.1263
10741TIP3    H153714   6.846   6.787   4.565 -1.1873 -0.3220  0.3956
10741TIP3    H253715   6.853   6.744   4.420 -2.3955 -1.7693  0.7453
10742TIP3   OH253716   0.710   0.596  16.735 -0.1261 -0.2000 -0.2133
10742TIP3    H153717   0.707   0.506  16.768  2.7392 -0.6676 -0.9765
10742TIP3    H253718   0.619   0.625  16.738 -0.9590 -2.6343  1.3442
10743TIP3   OH253719   0.133   3.106   2.771 -0.3667  0.3658 -0.2188
10743TIP3    H153720   0.134   3.167   2.844  0.0044  1.0104 -0.7510
10743TIP3    H253721   0.045   3.114   2.734 -0.1980  0.8646 -0.5184
10744TIP3   OH253722   3.711   3.344   5.690 -0.1283  0.1184 -0.0021
10744TIP3    H153723   3.671   3.277   5.634  1.6393 -0.2078 -0.9616
10744TIP3    H253724   3.722   3.419   5.631  0.7669  0.1457  0.1898
10745TIP3   OH253725   5.475   5.858   2.989  0.1406  0.0216 -0.1731
10745TIP3    H153726   5.453   5.930   2.930 -1.0329 -2.8046 -3.5296
10745TIP3    H253727   5.396   5.846   3.043  1.2606  2.6884  2.3265
10746TIP3   OH253728   1.556   0.084   4.909 -0.0518  0.2684  0.3598
10746TIP3    H153729   1.646   0.064   4.883 -0.3877 -0.9825  0.1039
10746TIP3    H253730   1.564   0.155   4.972  1.0446  0.8221 -0.3737
10747TIP3   OH253731   4.087   5.861  16.831 -0.1352 -0.0302 -0.3447
10747TIP3    H153732   4.171   5.826  16.801 -0.0381 -0.5661  0.5108
10747TIP3    H253733   4.050   5.791  16.885 -1.8263 -0.4018 -1.9000
10748TIP3   OH253734   6.180   0.831  10.877  0.1657 -0.5968  0.2637
10748TIP3    H153735   6.099   0.817  10.927 -0.0714 -1.8400 -0.4456
10748TIP3    H253736   6.154   0.822  10.786  0.2539  3.2167 -0.3130
10749TIP3   OH253737   2.977   2.250   0.454  0.0818 -0.0717 -0.7200
10749TIP3    H153738   2.934   2.166   0.466  1.2211 -0.5247  0.4253
10749TIP3    H253739   3.062   2.229   0.416  0.6977  0.4604  0.3140
10750TIP3   OH253740   6.194   5.773   3.786 -0.0602 -0.4738 -0.0974
10750TIP3    H153741   6.248   5.714   3.734  1.2867  2.0860 -1.8168
10750TIP3    H253742   6.144   5.823   3.721  0.9708  2.1866  1.0284
10751TIP3   OH253743   6.593   2.160  11.671 -0.1396 -0.6417 -0.5603
10751TIP3    H153744   6.505   2.141  11.703 -0.1511 -1.3510 -0.9794
10751TIP3    H253745   6.579   2.214  11.593 -0.1778 -0.2670 -0.2955
10752TIP3   OH253746   5.524   6.050   4.373 -0.1496 -0.1361 -0.1007
10752TIP3    H153747   5.432   6.054   4.402 -0.0571  0.3140  0.1273
10752TIP3    H253748   5.527   5.971   4.318 -0.6937 -0.1082 -0.1846
10753TIP3   OH253749   5.521   2.222  13.687  0.4043 -0.4642  1.1253
10753TIP3    H153750   5.476   2.210  13.603  0.6232  0.0209  0.9388
10753TIP3    H253751   5.562   2.308  13.680  0.7377 -0.5872  1.5862
10754TIP3   OH253752   3.583   2.840   3.411  0.3778  0.8641  0.5151
10754TIP3    H153753   3.537   2.865   3.492  0.1720 -0.3542  0.7911
10754TIP3    H253754   3.520   2.856   3.341 -0.9051 -1.6575  0.9681
10755TIP3   OH253755   4.276   3.318   5.167 -0.2408  0.0805  0.1058
10755TIP3    H153756   4.245   3.229   5.158  0.6119 -0.2020 -0.1727
10755TIP3    H253757   4.205   3.365   5.211 -0.0194 -1.1237  1.8280
10756TIP3   OH253758   3.477   2.137  17.142 -0.5586  0.7364  0.2677
10756TIP3    H153759   3.564   2.098  17.151 -0.5957  0.7291  0.6290
10756TIP3    H253760   3.421   2.083  17.198 -1.3616 -0.9616 -2.0320
10757TIP3   OH253761   2.823   2.512  12.746  0.1312 -0.3190 -0.3590
10757TIP3    H153762   2.789   2.422  12.743  0.1892 -0.4610  1.7079
10757TIP3    H253763   2.895   2.509  12.808  0.0517  1.1852 -0.1442
10758TIP3   OH253764   1.701   5.477  16.898  0.2350 -0.1175  0.1213
10758TIP3    H153765   1.689   5.565  16.935  1.6137 -1.2825  3.8687
10758TIP3    H253766   1.615   5.453  16.864 -0.4386  2.2460 -0.0523
10759TIP3   OH253767   2.208   6.278   3.108 -0.2411  0.1881 -0.1087
10759TIP3    H153768   2.230   6.317   3.192  0.6329 -0.9942  0.2356
10759TIP3    H253769   2.237   6.343   3.043  0.5485  0.4284  0.4655
10760TIP3   OH253770   0.432   2.231  11.724  0.3101 -0.2253  0.4317
10760TIP3    H153771   0.463   2.278  11.802  1.0934 -0.2796  0.1645
10760TIP3    H253772   0.461   2.286  11.651 -1.7437  0.6200  0.1928
10761TIP3   OH253773   1.221   0.138  15.111 -0.0843  0.1893 -0.3410
10761TIP3    H153774   1.303   0.167  15.071  1.1399 -0.3209  1.6742
10761TIP3    H253775   1.200   0.056  15.066  1.8281 -0.9352  0.6644
10762TIP3   OH253776   4.168   4.805   0.429  0.3808  0.0606  0.7050
10762TIP3    H153777   4.216   4.772   0.353  0.8129 -0.4944  1.2041
10762TIP3    H253778   4.225   4.784   0.503 -1.9356 -3.5913  1.7194
10763TIP3   OH253779   0.607   0.172   2.171 -0.1835 -0.2345  0.1595
10763TIP3    H153780   0.654   0.090   2.186  0.0835 -0.0117  0.5876
10763TIP3    H253781   0.674   0.239   2.181 -0.3094  0.0136 -0.6284
10764TIP3   OH253782   1.656   4.877  13.758 -0.5515  0.4098 -0.3062
10764TIP3    H153783   1.645   4.799  13.702  0.4097  0.5789 -0.7632
10764TIP3    H253784   1.684   4.946  13.697  1.0575  0.4554  0.4357
10765TIP3   OH253785   4.502   0.778   4.073 -0.7496 -0.0443 -0.2629
10765TIP3    H153786   4.530   0.869   4.087 -0.7355 -0.2405  1.0644
10765TIP3    H253787   4.545   0.753   3.990  1.9462  0.1292  0.9696
10766TIP3   OH253788   4.816   3.808   3.821 -0.0540 -0.2159 -0.3491
10766TIP3    H153789   4.877   3.877   3.845 -0.9229  0.5143 -0.2128
10766TIP3    H253790   4.865   3.727   3.836  0.4088  0.3042  1.1241
10767TIP3   OH253791   0.933   3.080  11.564 -0.4833  0.2656 -0.4552
10767TIP3    H153792   0.856   3.073  11.620 -1.5393  1.1653 -1.7224
10767TIP3    H253793   0.925   3.006  11.503  0.4135 -0.4416  0.2641
10768TIP3   OH253794   3.058   5.343   4.361 -0.4739  0.1275 -0.2990
10768TIP3    H153795   2.969   5.374   4.375 -0.5007  0.3788 -0.9959
10768TIP3    H253796   3.110   5.423   4.355 -0.3643  0.0146 -0.9342
10769TIP3   OH253797   6.057   4.320   0.344  0.2480  0.2634  0.7994
10769TIP3    H153798   6.089   4.349   0.429  0.4093  0.0963  0.7964
10769TIP3    H253799   6.025   4.231   0.360 -0.2179  0.4297  0.8050
10770TIP3   OH253800   6.111   6.668   2.623 -0.5090 -0.2414  0.6427
10770TIP3    H153801   6.088   6.616   2.546  0.6583 -0.2875  0.3146
10770TIP3    H253802   6.114   6.605   2.695  0.0637 -0.4960  0.4026
10771TIP3   OH253803   1.032   6.740   3.037 -0.4631  0.1266 -0.3211
10771TIP3    H153804   0.953   6.699   3.003 -1.4137  1.1947  0.5406
10771TIP3    H253805   1.054   6.808   2.974  0.7429 -1.1973 -1.4097
10772TIP3   OH253806   2.536   0.647  17.036 -0.2108  0.0796  0.4812
10772TIP3    H153807   2.602   0.607  16.980 -1.4400 -2.5769  0.8015
10772TIP3    H253808   2.576   0.649  17.123  1.2341  3.0956 -0.1231
10773TIP3   OH253809   6.743   3.132   2.591  0.0298  0.4912 -0.0499
10773TIP3    H153810   6.755   3.073   2.516 -0.2737  0.2916  0.0548
10773TIP3    H253811   6.661   3.103   2.631 -0.1309  0.9939 -0.0045
10774TIP3   OH253812   2.816   4.860   0.048 -0.4071  0.1319  0.3236
10774TIP3    H153813   2.876   4.930   0.073 -0.3994  0.5806 -0.8659
10774TIP3    H253814   2.812   4.865  -0.048 -0.1972 -1.6628  0.1745
10775TIP3   OH253815   2.381   6.403  14.912  0.2757  0.7000 -0.0126
10775TIP3    H153816   2.398   6.480  14.966  0.2795  0.0326  0.9642
10775TIP3    H253817   2.425   6.422  14.829 -0.9060  2.3534 -0.3229
10776TIP3   OH253818   3.247   6.009  11.280 -0.0390  0.1910 -0.6412
10776TIP3    H153819   3.224   6.007  11.187 -1.9314  0.2279 -0.2230
10776TIP3    H253820   3.256   6.101  11.300  0.5057  0.1770 -0.8150
10777TIP3   OH253821   1.539   4.195  15.160  0.1675 -0.6190 -0.3294
10777TIP3    H153822   1.491   4.195  15.242  0.2538 -0.1709 -0.2797
10777TIP3    H253823   1.623   4.236  15.181 -0.4056  0.9663 -0.9874
10778TIP3   OH253824   5.571   0.824  11.466 -0.5236  0.5180 -0.3115
10778TIP3    H153825   5.561   0.747  11.409 -0.6900  1.1185 -1.1031
10778TIP3    H253826   5.590   0.787  11.552 -0.5944 -0.4156 -0.6833
10779TIP3   OH253827   4.998   0.096   5.349  0.1703 -0.5754  0.0944
10779TIP3    H153828   4.923   0.112   5.292 -0.2423 -1.2379  0.4363
10779TIP3    H253829   4.985   0.007   5.382  1.5045 -0.9929 -0.4313
10780TIP3   OH253830   6.209   1.567   1.698 -0.4723  0.2902 -0.7529
10780TIP3    H153831   6.156   1.487   1.695 -1.2534  0.8198 -1.5236
10780TIP3    H253832   6.298   1.538   1.677 -0.7795 -0.3529 -1.1755
10781TIP3   OH253833   3.926   0.521   6.855 -0.1914 -0.3952  0.2055
10781TIP3    H153834   3.946   0.551   6.767 -0.0153 -1.2027 -0.0424
10781TIP3    H253835   3.967   0.434   6.860 -0.5217 -0.5145  0.9498
10782TIP3   OH253836   6.061   3.868   2.223  0.6652  0.2180 -0.0269
10782TIP3    H153837   5.986   3.819   2.191  1.1724 -0.4987 -0.1603
10782TIP3    H253838   6.116   3.880   2.146 -0.0159  2.1055 -0.2672
10783TIP3   OH253839   1.804   2.298   5.377 -0.4010 -0.8047  0.0274
10783TIP3    H153840   1.791   2.376   5.323  0.2690 -1.1537 -0.6548
10783TIP3    H253841   1.725   2.246   5.365 -0.8477 -0.2432  0.4821
10784TIP3   OH253842   6.553   5.095  12.351  0.5505  0.7613 -0.3850
10784TIP3    H153843   6.465   5.101  12.314  1.3839 -0.3348 -2.7045
10784TIP3    H253844   6.585   5.186  12.349 -1.2359  1.6087  2.6550
10785TIP3   OH253845   2.785   0.531  17.015 -0.4361  0.0701  0.3992
10785TIP3    H153846   2.788   0.493  16.927  0.8460 -3.3256  1.7613
10785TIP3    H253847   2.863   0.586  17.021  0.8280 -1.6366  0.1575
10786TIP3   OH253848   0.382   4.842  12.075 -0.4983  0.1330 -0.0706
10786TIP3    H153849   0.343   4.784  12.010  0.5937 -1.1898  0.3928
10786TIP3    H253850   0.465   4.870  12.036  0.1557 -0.6577  0.7108
10787TIP3   OH253851   3.716   5.881   3.742 -0.0891 -0.1795  0.5627
10787TIP3    H153852   3.802   5.915   3.716 -0.0153 -0.3578  0.5760
10787TIP3    H253853   3.709   5.797   3.696 -1.2140  0.8519 -1.2917
10788TIP3   OH253854   0.024   5.545   1.648 -0.2798 -0.5114 -0.4567
10788TIP3    H153855   0.077   5.474   1.612 -0.6103 -1.7067  1.2815
10788TIP3    H253856  -0.066   5.512   1.644 -0.5883  0.3583 -0.8368
10789TIP3   OH253857   0.769   1.720   1.516 -0.3950  0.4151 -0.0434
10789TIP3    H153858   0.684   1.686   1.544  0.0121  0.3339  1.1567
10789TIP3    H253859   0.755   1.813   1.503 -0.9382  0.2137 -0.9966
10790TIP3   OH253860   6.536   6.451  11.328  0.1725 -0.2957  0.3251
10790TIP3    H153861   6.554   6.509  11.402 -1.2170 -1.3743  1.5788
10790TIP3    H253862   6.605   6.385  11.331 -0.4336 -0.9165  1.3302
10791TIP3   OH253863   1.697   2.632   0.856 -0.4334  0.2078  0.7681
10791TIP3    H153864   1.613   2.587   0.851 -1.0446  1.1332  2.1305
10791TIP3    H253865   1.707   2.675   0.771 -1.4266  0.2487  0.6650
10792TIP3   OH253866   3.985   4.310  12.520  0.7365 -0.2861 -0.1088
10792TIP3    H153867   4.026   4.250  12.583  0.3314 -1.0455 -0.5501
10792TIP3    H253868   4.040   4.388  12.521  2.7378 -1.5786 -1.3097
10793TIP3   OH253869   1.120   4.773  15.349 -0.1708  0.4846 -0.5902
10793TIP3    H153870   1.106   4.793  15.442 -0.6343 -1.5684 -0.1723
10793TIP3    H253871   1.147   4.856  15.311  0.1839  1.3478  1.4075
10794TIP3   OH253872   4.082   0.973  14.672 -0.2307  0.4997  0.1759
10794TIP3    H153873   4.043   1.048  14.628  0.9389  0.4098 -1.0861
10794TIP3    H253874   4.155   1.009  14.722 -1.6728  0.6343  2.3431
10795TIP3   OH253875   1.034   1.015   0.486  0.4979  0.2729  0.2573
10795TIP3    H153876   1.051   0.955   0.558  1.4932 -1.0307 -0.9914
10795TIP3    H253877   1.072   0.972   0.409 -1.6985  0.9419 -1.3182
10796TIP3   OH253878   5.915   2.284  13.994 -0.3116 -0.4651 -0.4753
10796TIP3    H153879   5.934   2.368  13.953 -1.9010  0.3647  0.3761
10796TIP3    H253880   5.978   2.277  14.065  0.7892 -0.7089 -1.4518
10797TIP3   OH253881   2.231   6.125  14.737 -0.3989  0.0535 -0.3418
10797TIP3    H153882   2.201   6.215  14.728 -0.5650 -0.0553 -0.9201
10797TIP3    H253883   2.249   6.096  14.648  0.8837 -0.0835 -0.0604
10798TIP3   OH253884   3.123   3.523  14.254 -0.3269 -0.2936  0.0555
10798TIP3    H153885   3.059   3.560  14.316  0.5896 -0.8934  1.4092
10798TIP3    H253886   3.147   3.597  14.198 -3.6642 -0.4764 -1.8688
10799TIP3   OH253887   6.757   4.966   4.283  0.0915  0.1682 -0.0849
10799TIP3    H153888   6.798   5.051   4.294  1.1333 -0.6044  2.6204
10799TIP3    H253889   6.827   4.909   4.252 -0.1235 -0.1301 -0.0262
10800TIP3   OH253890   3.696   0.447   4.781  0.0447 -0.3002 -0.2400
10800TIP3    H153891   3.750   0.431   4.858  0.5463 -2.2232 -0.9249
10800TIP3    H253892   3.759   0.460   4.710 -0.3981 -0.4194 -0.6591
10801TIP3   OH253893   2.985   4.572   6.530 -0.2894  0.7353  0.1117
10801TIP3    H153894   3.031   4.652   6.505  3.4462 -0.5365  2.1254
10801TIP3    H253895   3.012   4.507   6.465 -0.3498  0.2793  0.5314
10802TIP3   OH253896   1.337   2.579   4.825  0.5637 -0.2109 -0.2554
10802TIP3    H153897   1.341   2.662   4.776  0.4801 -0.8748 -1.4320
10802TIP3    H253898   1.419   2.577   4.874  0.1009  1.0426  0.6035
10803TIP3   OH253899   6.770   2.066   2.807 -0.3612  0.6149  0.3975
10803TIP3    H153900   6.716   2.012   2.748 -0.3344  0.5837  0.4017
10803TIP3    H253901   6.712   2.139   2.832 -0.8821 -0.1270  1.4760
10804TIP3   OH253902   3.912   0.795  14.464  0.0106  0.6279 -0.4724
10804TIP3    H153903   3.951   0.865  14.516  0.8198 -0.4070  0.3659
10804TIP3    H253904   3.940   0.812  14.374  1.4233  0.5727 -0.0543
10805TIP3   OH253905   4.621   0.294  15.656  0.4201  0.0832 -0.9081
10805TIP3    H153906   4.680   0.223  15.681 -0.6469 -1.1048 -1.6518
10805TIP3    H253907   4.554   0.252  15.602 -2.1482  0.9958  1.3380
10806TIP3   OH253908   5.075   0.722   2.631  0.4056  0.1749 -0.4502
10806TIP3    H153909   5.072   0.730   2.535  0.5934  0.7915 -0.4132
10806TIP3    H253910   5.090   0.629   2.647 -1.9910 -0.3727 -0.9608
10807TIP3   OH253911   6.541   4.080  15.239  0.5364  0.1392 -0.5489
10807TIP3    H153912   6.573   4.152  15.185 -0.9185  2.3531  1.3423
10807TIP3    H253913   6.482   4.031  15.181  0.8799  0.9727 -1.6287
10808TIP3   OH253914   2.513   3.445  13.468  0.6222 -0.3294 -1.0597
10808TIP3    H153915   2.460   3.441  13.388 -1.2468 -1.3764  0.1366
10808TIP3    H253916   2.549   3.533  13.469  0.4424 -0.2015 -2.8857
10809TIP3   OH253917   6.291   4.344  12.119  0.1006 -0.0400  0.7909
10809TIP3    H153918   6.236   4.266  12.122  1.2241 -1.0184 -1.4594
10809TIP3    H253919   6.368   4.322  12.172  0.4728 -0.5306  0.0582
10810TIP3   OH253920   5.585   2.835   0.218  0.6425  0.5573 -0.6085
10810TIP3    H153921   5.667   2.786   0.229 -0.0458 -0.4682  0.2162
10810TIP3    H253922   5.596   2.912   0.274  0.0861 -0.8894  1.6196
10811TIP3   OH253923   2.891   5.346  12.027 -0.1507 -0.0819  0.0153
10811TIP3    H153924   2.885   5.261  12.069 -1.2463 -0.0484 -0.0510
10811TIP3    H253925   2.832   5.340  11.952  0.6427  0.3569 -0.6741
10812TIP3   OH253926   4.570   2.730  16.544 -0.0943 -0.7127 -0.6953
10812TIP3    H153927   4.524   2.652  16.513  0.1529 -0.5982 -1.3643
10812TIP3    H253928   4.637   2.746  16.477  2.2659 -2.0445  1.1495
10813TIP3   OH253929   5.160   0.467  13.448  0.2793  0.2855  0.0600
10813TIP3    H153930   5.229   0.516  13.493  1.7198 -2.3259  0.9236
10813TIP3    H253931   5.108   0.427  13.518 -0.1813 -0.2840 -0.5911
10814TIP3   OH253932   2.951   2.611  13.284 -0.2825  0.2094 -0.5794
10814TIP3    H153933   2.943   2.703  13.307  0.0598  0.4081 -1.2109
10814TIP3    H253934   2.915   2.564  13.358 -0.1783  0.8473 -0.1180
10815TIP3   OH253935   2.677   4.342   0.872  0.1251  0.8310  0.4111
10815TIP3    H153936   2.698   4.324   0.781  0.0688 -3.2161  1.0444
10815TIP3    H253937   2.582   4.332   0.879  0.0595  1.6161  0.8612
10816TIP3   OH253938   4.405   0.950   3.632  0.0722 -0.4195 -0.2281
10816TIP3    H153939   4.393   1.031   3.682 -0.3850 -1.2945  1.1569
10816TIP3    H253940   4.469   0.972   3.565  0.2015  1.0038  0.3298
10817TIP3   OH253941   0.449   0.780  15.493  0.3019  0.2786 -0.4624
10817TIP3    H153942   0.422   0.864  15.456  0.1579  0.4548  0.0356
10817TIP3    H253943   0.448   0.794  15.588  1.4807  0.0803 -0.4108
10818TIP3   OH253944   1.733   3.023  10.437  0.2686  0.2996 -0.3610
10818TIP3    H153945   1.820   2.992  10.410  1.3924  2.4629  0.4899
10818TIP3    H253946   1.672   2.961  10.397  2.1583 -0.9860 -1.4484
10819TIP3   OH253947   2.912   3.894  13.173  0.3252  0.1785 -0.0062
10819TIP3    H153948   2.925   3.988  13.183 -0.2492  0.1713  1.0513
10819TIP3    H253949   2.822   3.885  13.141 -0.2031 -0.0347  1.4376
10820TIP3   OH253950   1.358   1.285  16.263  0.0006 -0.3751 -0.3871
10820TIP3    H153951   1.442   1.297  16.219 -0.3664 -1.6823 -1.5293
10820TIP3    H253952   1.356   1.192  16.286 -0.8263 -0.2071  0.2765
10821TIP3   OH253953   6.673   1.720  13.269  0.0959 -0.1951 -0.0211
10821TIP3    H153954   6.612   1.660  13.311 -1.2954  1.0543 -0.1894
10821TIP3    H253955   6.621   1.764  13.202  1.6525 -0.3793 -1.4242
10822TIP3   OH253956   0.066   6.781   4.896  0.3032 -0.2887 -0.0365
10822TIP3    H153957   0.042   6.859   4.845  1.7440 -0.0493 -0.3893
10822TIP3    H253958   0.084   6.714   4.830  0.6661 -0.4365  0.2130
10823TIP3   OH253959   3.800   2.051  13.052  0.0303 -0.0882  0.3721
10823TIP3    H153960   3.871   2.044  12.988 -0.9781  0.4507 -0.8678
10823TIP3    H253961   3.721   2.032  13.002 -0.8217  0.5640  1.4113
10824TIP3   OH253962   4.717   4.093   2.024  0.1944  0.0800  0.7819
10824TIP3    H153963   4.726   4.003   2.054 -0.4466 -0.5596 -0.8373
10824TIP3    H253964   4.788   4.140   2.067  0.9867 -1.3391  1.0761
10825TIP3   OH253965   1.346   3.887   2.651 -0.3424  0.3959 -0.1561
10825TIP3    H153966   1.377   3.948   2.718 -1.1356  2.4810 -1.5841
10825TIP3    H253967   1.374   3.926   2.568 -3.0048  0.1864 -1.2718
10826TIP3   OH253968   5.662   6.107  17.153 -0.0712  0.2491 -0.1667
10826TIP3    H153969   5.722   6.033  17.148  0.7683  0.7477  1.6280
10826TIP3    H253970   5.711   6.181  17.118  0.6766  0.7807  1.8221
10827TIP3   OH253971   5.542   3.442   6.498  0.0534 -0.0592  0.1945
10827TIP3    H153972   5.631   3.420   6.524  0.4710 -0.4942 -1.4614
10827TIP3    H253973   5.552   3.508   6.430 -0.7867 -1.1623 -1.0568
10828TIP3   OH253974   5.588   5.499  12.812  0.1715  0.2301 -0.1615
10828TIP3    H153975   5.514   5.480  12.870  0.1452  0.1123 -0.2359
10828TIP3    H253976   5.635   5.416  12.804 -1.9275 -0.8127 -3.3293
10829TIP3   OH253977   6.493   4.740  11.174  0.2767  0.3387  0.0525
10829TIP3    H153978   6.432   4.813  11.182  2.8057  2.6667 -0.3570
10829TIP3    H253979   6.543   4.760  11.095  1.1779 -1.7696  0.0318
10830TIP3   OH253980   0.382   1.022   0.326 -0.7545 -0.0872  0.6711
10830TIP3    H153981   0.319   0.984   0.387 -2.5625 -0.5923 -1.3943
10830TIP3    H253982   0.424   1.092   0.376 -2.0879 -0.5101  2.4937
10831TIP3   OH253983   3.510   3.622   4.062 -0.3146 -0.2110  0.0301
10831TIP3    H153984   3.540   3.652   4.148  2.1450 -0.7492 -0.5751
10831TIP3    H253985   3.519   3.698   4.006  1.8482 -0.8519 -0.5660
10832TIP3   OH253986   2.254   6.150   0.686 -0.3258  0.1602  0.6210
10832TIP3    H153987   2.283   6.191   0.767 -0.9468 -1.4815  1.7194
10832TIP3    H253988   2.231   6.223   0.629 -1.6263  1.3493  2.5575
10833TIP3   OH253989   5.701   0.844  15.349  0.5129  0.2568 -0.5402
10833TIP3    H153990   5.697   0.875  15.259 -0.5862  1.3001 -0.1497
10833TIP3    H253991   5.745   0.914  15.397  0.9126 -0.2025 -0.2217
10834TIP3   OH253992   4.180   1.041   1.364  0.0640 -0.4039  0.2784
10834TIP3    H153993   4.233   1.043   1.444  0.9986  0.5816 -0.3373
10834TIP3    H253994   4.206   0.960   1.320  0.4807 -0.3230  0.3657
10835TIP3   OH253995   5.096   4.455  14.081  0.2633  0.3052  0.2859
10835TIP3    H153996   5.018   4.419  14.038  1.0170 -0.6980 -0.3021
10835TIP3    H253997   5.062   4.511  14.150 -0.9795  0.3231 -0.3176
10836TIP3   OH253998   4.245   0.326  14.035 -0.1836 -0.4173  0.3022
10836TIP3    H153999   4.225   0.255  14.096 -0.2427 -1.1133 -0.5057
10836TIP3    H254000   4.160   0.355  14.002 -0.3157  1.3193  2.0053
10837TIP3   OH254001   4.695   6.574  16.413 -0.2282 -0.1473  0.6500
10837TIP3    H154002   4.625   6.604  16.354 -0.4346 -1.3992  0.2456
10837TIP3    H254003   4.708   6.648  16.473 -1.2158  0.4812  0.1220
10838TIP3   OH254004   3.646   0.128  10.803  0.7644  0.2903  0.7111
10838TIP3    H154005   3.717   0.165  10.750 -0.2288  1.8384  0.4085
10838TIP3    H254006   3.566   0.163  10.764 -0.1569 -0.9890  1.3842
10839TIP3   OH254007   3.359   5.373   3.523  0.2404  0.4347 -0.1848
10839TIP3    H154008   3.293   5.315   3.484  0.0720 -0.2671  1.0688
10839TIP3    H254009   3.347   5.457   3.479 -1.3175  0.2410 -0.1914
10840TIP3   OH254010   0.706   1.803  11.349 -0.6539  0.4655  0.2539
10840TIP3    H154011   0.632   1.787  11.409  0.7018 -3.3608  1.2388
10840TIP3    H254012   0.783   1.789  11.404  0.7296  0.9816 -1.5084
10841TIP3   OH254013   3.511   4.220   1.195 -0.1145  0.2241 -0.2800
10841TIP3    H154014   3.423   4.223   1.232 -0.7089 -0.1156 -1.5762
10841TIP3    H254015   3.531   4.311   1.173 -0.0554  0.3278  0.1952
10842TIP3   OH254016   5.394   1.209   2.366 -0.0989 -0.6996 -0.0710
10842TIP3    H154017   5.445   1.157   2.428  1.8459  0.4143 -0.6475
10842TIP3    H254018   5.303   1.189   2.387  0.5189 -1.3917  2.2170
10843TIP3   OH254019   2.365   4.449  14.492 -0.5293  0.2791 -0.8754
10843TIP3    H154020   2.398   4.457  14.581  0.4577  1.2787 -1.3122
10843TIP3    H254021   2.294   4.385  14.499  0.2229 -0.4584  0.4308
10844TIP3   OH254022   3.246   3.269  11.984  1.0144  0.1820  0.5340
10844TIP3    H154023   3.267   3.322  12.061 -0.3928 -0.5763  1.4700
10844TIP3    H254024   3.320   3.208  11.976  1.3030  0.4455  1.1173
10845TIP3   OH254025   3.465   0.755   5.589  0.0245 -0.4872 -0.4952
10845TIP3    H154026   3.499   0.687   5.531 -0.0490 -0.8681 -0.0944
10845TIP3    H254027   3.453   0.711   5.673 -0.2181 -0.0292 -0.2883
10846TIP3   OH254028   6.082   1.129  14.250  0.3199  0.4242 -0.2349
10846TIP3    H154029   6.019   1.198  14.229  0.2564  0.1515 -0.9805
10846TIP3    H254030   6.101   1.087  14.166  1.1355  0.1908  0.0571
10847TIP3   OH254031   5.665   5.096  13.795 -0.0057 -0.7115 -0.1488
10847TIP3    H154032   5.660   5.118  13.702  2.0232 -0.3721 -0.2204
10847TIP3    H254033   5.591   5.141  13.834  0.3577  0.9531 -1.2744
10848TIP3   OH254034   0.555   1.470  11.855 -0.0794 -0.3050 -0.2877
10848TIP3    H154035   0.568   1.556  11.894  0.9369 -0.0760 -1.0820
10848TIP3    H254036   0.465   1.472  11.822 -0.2964  0.1874  0.3203
10849TIP3   OH254037   1.779   5.428   1.615  0.3775  0.1808 -0.0001
10849TIP3    H154038   1.799   5.336   1.602 -0.2099  0.0550 -0.0370
10849TIP3    H254039   1.747   5.459   1.530  0.5524  0.4118  0.0165
10850TIP3   OH254040   1.032   5.082   0.611  0.4080 -0.3199 -0.3810
10850TIP3    H154041   1.127   5.084   0.602  0.5028  2.7708  0.4041
10850TIP3    H254042   1.018   5.043   0.698  0.9123 -1.0289 -0.6042
10851TIP3   OH254043   4.271   5.315  13.104  0.2280 -0.1111 -0.2921
10851TIP3    H154044   4.365   5.299  13.101  0.1043 -1.1405  0.6816
10851TIP3    H254045   4.248   5.310  13.197 -0.2631  3.5969 -0.0506
10852TIP3   OH254046   5.322   3.818   1.011  0.2853  0.0245 -0.1783
10852TIP3    H154047   5.279   3.779   1.086  1.3111 -1.0887 -0.1449
10852TIP3    H254048   5.263   3.888   0.983 -0.8580 -0.5704  0.6847
10853TIP3   OH254049   0.226   2.886   4.270 -0.4362  0.4903 -0.4622
10853TIP3    H154050   0.318   2.861   4.258 -0.9235 -0.8889 -1.4445
10853TIP3    H254051   0.197   2.913   4.183 -0.9796  0.8923 -0.1595
10854TIP3   OH254052   2.667   4.667   4.757  0.2974 -0.4584  0.8421
10854TIP3    H154053   2.760   4.657   4.776  0.5067 -2.5153 -0.8979
10854TIP3    H254054   2.627   4.589   4.796 -1.1128  1.4217  3.4706
10855TIP3   OH254055   3.783   0.478  15.955 -0.4941  0.3050  0.3631
10855TIP3    H154056   3.740   0.558  15.986 -1.1371  0.4218 -0.7678
10855TIP3    H254057   3.812   0.500  15.866  0.0430 -0.4650  0.3424
10856TIP3   OH254058   3.033   1.015   1.826  0.1014 -0.4896  0.6698
10856TIP3    H154059   3.114   1.065   1.837 -0.3630  0.6601 -0.7829
10856TIP3    H254060   2.984   1.030   1.906  0.2065  0.9766  0.4733
10857TIP3   OH254061   4.025   0.847   1.837 -0.0914  1.0478 -0.0488
10857TIP3    H154062   4.025   0.838   1.742 -1.2602 -0.5692  0.0413
10857TIP3    H254063   4.117   0.848   1.861  0.2202  0.5690 -1.1447
10858TIP3   OH254064   2.381   6.130  15.290 -0.0558 -0.4244 -0.0793
10858TIP3    H154065   2.286   6.142  15.294 -0.2236 -1.1550 -1.5256
10858TIP3    H254066   2.409   6.137  15.381 -1.3110  1.2116  0.2387
10859TIP3   OH254067   3.066   6.285  13.181 -0.1562 -0.4317 -0.0834
10859TIP3    H154068   2.995   6.221  13.186 -0.1864 -0.4282 -0.4430
10859TIP3    H254069   3.117   6.259  13.105  1.0706 -1.2801  0.9841
10860TIP3   OH254070   4.804   0.955  11.875  0.8021 -0.1842  0.3570
10860TIP3    H154071   4.816   0.877  11.930  0.2952 -1.5862 -1.4399
10860TIP3    H254072   4.726   0.997  11.911 -0.0004 -1.5263  0.2359
10861TIP3   OH254073   4.623   0.203  12.478 -0.0098 -0.1503 -0.7662
10861TIP3    H154074   4.713   0.217  12.507  1.0535  0.0489 -3.8312
10861TIP3    H254075   4.579   0.287  12.494  0.6335  0.0818 -0.2040
10862TIP3   OH254076   6.607   1.375   4.119  0.2486  0.3944 -0.2281
10862TIP3    H154077   6.544   1.408   4.055 -0.9788 -0.4885  0.5000
10862TIP3    H254078   6.604   1.438   4.191 -0.1778  0.0705  0.0343
10863TIP3   OH254079   3.724   3.928   2.153 -0.0808  0.0769 -0.6795
10863TIP3    H154080   3.688   3.893   2.235 -0.7839  1.1308 -0.5158
10863TIP3    H254081   3.662   3.996   2.127  0.5566  0.2995 -1.6774
10864TIP3   OH254082   3.841   2.883   0.709 -0.6950  0.4010 -0.0747
10864TIP3    H154083   3.936   2.881   0.720 -0.7243  0.9237  0.3477
10864TIP3    H254084   3.815   2.968   0.746 -1.4612 -0.2800  1.0014
10865TIP3   OH254085   1.411   0.227   3.109 -0.3102 -0.0511 -0.3278
10865TIP3    H154086   1.320   0.249   3.090  0.3524  0.3368 -3.6999
10865TIP3    H254087   1.442   0.299   3.164 -1.6337  0.5915 -0.3772
10866TIP3   OH254088   6.126   1.297  16.822  0.3530  0.1117  0.4431
10866TIP3    H154089   6.199   1.339  16.868  0.7360  1.2075 -1.0764
10866TIP3    H254090   6.162   1.212  16.794  0.5249 -0.0223  1.0629
10867TIP3   OH254091   4.333   4.899  17.218  0.7660  0.4838  0.1609
10867TIP3    H154092   4.258   4.954  17.196  2.1445  1.9442 -1.1981
10867TIP3    H254093   4.390   4.955  17.271  0.3852 -1.0113  2.2718
10868TIP3   OH254094   1.761   4.505  15.369  0.0687  0.3951  0.1912
10868TIP3    H154095   1.757   4.548  15.455  0.5324  2.8985 -0.9587
10868TIP3    H254096   1.822   4.558  15.318  0.3309 -1.4227 -1.5195
10869TIP3   OH254097   1.257   4.431   4.348  0.1069 -0.1795 -0.3708
10869TIP3    H154098   1.302   4.452   4.429  0.2340 -1.4738 -0.0788
10869TIP3    H254099   1.296   4.489   4.282 -0.2545  1.1405  0.5361
10870TIP3   OH254100   6.459   1.052  14.105  0.1402 -0.2880  0.5546
10870TIP3    H154101   6.447   0.990  14.177 -0.6396 -0.0872  0.6073
10870TIP3    H254102   6.445   1.138  14.145  3.6277  0.2107  1.0738
10871TIP3   OH254103   4.681   2.310  11.341 -0.0369  0.0654  0.2870
10871TIP3    H154104   4.639   2.266  11.415  0.0629  0.1501  0.3954
10871TIP3    H254105   4.612   2.317  11.275 -0.2440  0.3565  0.5289
10872TIP3   OH254106   0.227   2.634  13.546  0.0628 -0.0446 -0.3409
10872TIP3    H154107   0.307   2.625  13.599  0.5521  2.4577 -0.5200
10872TIP3    H254108   0.217   2.728  13.535 -2.9261 -0.2840 -0.3848
10873TIP3   OH254109   4.173   3.655   1.400  0.1612  0.3037 -0.4743
10873TIP3    H154110   4.255   3.701   1.418 -0.3634  0.1717  2.8536
10873TIP3    H254111   4.130   3.708   1.333  2.5330  0.8702 -1.6294
10874TIP3   OH254112   1.308   5.924   4.085 -0.4130 -0.3068 -0.7558
10874TIP3    H154113   1.280   5.964   4.003 -2.1078  1.6097  0.6667
10874TIP3    H254114   1.403   5.911   4.074 -0.0413  2.6696 -1.9215
10875TIP3   OH254115   4.736   5.151  11.629  0.1379  0.5676 -0.8348
10875TIP3    H154116   4.813   5.194  11.593  0.2598  0.4816 -0.6796
10875TIP3    H254117   4.743   5.164  11.724 -0.8088  1.8503 -0.9034
10876TIP3   OH254118   2.606   0.063  15.659 -0.9537  0.7335 -0.4642
10876TIP3    H154119   2.672   0.127  15.684 -1.4374  1.7041 -1.5407
10876TIP3    H254120   2.636  -0.020  15.697  2.9174  0.2572 -3.8316
10877TIP3   OH254121   4.518   0.782   2.280  0.5300 -0.5875  0.1186
10877TIP3    H154122   4.459   0.847   2.242 -1.7314 -1.3194  2.0739
10877TIP3    H254123   4.477   0.697   2.258  1.6884 -1.2022  0.2740
10878TIP3   OH254124   5.335   4.023   4.894 -0.1379  0.0257  0.7107
10878TIP3    H154125   5.318   3.996   4.804 -0.3984  0.8528  0.5017
10878TIP3    H254126   5.266   3.981   4.945  1.0352 -1.9123  0.8125
10879TIP3   OH254127   0.663   1.900   0.340 -0.4858 -0.2820 -0.3649
10879TIP3    H154128   0.575   1.895   0.376 -0.9250 -1.9476 -1.5361
10879TIP3    H254129   0.720   1.878   0.413 -1.1851 -0.9926 -0.0124
10880TIP3   OH254130   2.469   0.881  16.702  0.2419  0.2732 -0.3393
10880TIP3    H154131   2.412   0.854  16.774  1.6268 -0.1935  0.6344
10880TIP3    H254132   2.438   0.832  16.626 -1.1881  0.6937 -0.0526
10881TIP3   OH254133   5.599   6.240  11.385 -0.0397 -0.0168 -0.4497
10881TIP3    H154134   5.550   6.267  11.462 -1.6601 -1.0494 -1.0702
10881TIP3    H254135   5.646   6.162  11.412  1.2255  0.9082  0.1125
10882TIP3   OH254136   1.550   1.882  15.683 -0.4187  0.1036  0.3484
10882TIP3    H154137   1.509   1.948  15.738  2.1558  2.0822  0.0726
10882TIP3    H254138   1.564   1.926  15.598  2.5454 -0.1898  0.5573
10883TIP3   OH254139   0.764   5.853   2.350 -0.2518 -0.2027 -0.4080
10883TIP3    H154140   0.780   5.937   2.307  0.4054 -0.0286  0.1617
10883TIP3    H254141   0.717   5.875   2.430  0.2943 -0.3297 -0.0454
10884TIP3   OH254142   2.906   3.246  13.450 -0.2052  0.1422  0.4543
10884TIP3    H154143   2.904   3.312  13.381 -2.6382 -1.7627 -1.4915
10884TIP3    H254144   2.840   3.275  13.513 -1.3452 -0.3898 -0.4503
10885TIP3   OH254145   4.017   4.247  12.121  0.4152  0.0996 -0.0580
10885TIP3    H154146   4.044   4.335  12.092 -0.7700  0.1552 -1.0718
10885TIP3    H254147   3.930   4.260  12.158  0.4343 -0.5764  0.2385
10886TIP3   OH254148   2.319   3.499  11.850 -0.1384 -0.2789  0.3360
10886TIP3    H154149   2.387   3.471  11.789 -1.3227 -0.9132 -0.7390
10886TIP3    H254150   2.238   3.464  11.813 -0.9330 -0.4739  2.1524
10887TIP3   OH254151   3.625   6.710   2.673 -0.4587 -0.3078 -0.3481
10887TIP3    H154152   3.563   6.735   2.605 -0.5762  0.2299 -0.0479
10887TIP3    H254153   3.622   6.782   2.736 -1.0662 -1.2555  0.7279
10888TIP3   OH254154   0.156   0.054   5.462  0.4524 -0.4046  0.1514
10888TIP3    H154155   0.116  -0.019   5.509  3.5136 -2.1747  0.3079
10888TIP3    H254156   0.217   0.013   5.401  0.3938  2.0059 -1.6919
10889TIP3   OH254157   6.471   3.786  15.047  0.2242  0.3666 -0.2313
10889TIP3    H154158   6.518   3.840  14.984  1.4156 -0.9288 -0.4940
10889TIP3    H254159   6.432   3.716  14.994  3.1087 -2.0625  0.5911
10890TIP3   OH254160   6.100   6.181  14.990  0.4020  0.3873 -0.2972
10890TIP3    H154161   6.059   6.228  14.918 -0.0707 -1.6366 -1.4209
10890TIP3    H254162   6.054   6.211  15.068  1.0673  2.7917 -0.7271
10891TIP3   OH254163   6.403   6.423  12.274  0.2722 -0.5945  0.2282
10891TIP3    H154164   6.401   6.504  12.324  0.9344 -0.4517  0.0246
10891TIP3    H254165   6.328   6.429  12.214  2.7942  1.9672 -3.0541
10892TIP3   OH254166   0.711   0.767  12.870 -0.2813  0.3230  0.0897
10892TIP3    H154167   0.750   0.818  12.941  0.4350 -0.2037  0.0966
10892TIP3    H254168   0.637   0.819  12.840 -1.0790  0.1907  1.7485
10893TIP3   OH254169   6.437   4.396   2.143 -0.4369  0.9664 -0.4281
10893TIP3    H154170   6.362   4.387   2.203 -0.8879 -0.7586 -1.1847
10893TIP3    H254171   6.399   4.389   2.056  0.7130 -1.5026 -0.8128
10894TIP3   OH254172   1.267   1.748  15.071 -0.7614  0.0557  0.2364
10894TIP3    H154173   1.240   1.838  15.085 -0.0330  0.3532 -0.2072
10894TIP3    H254174   1.291   1.716  15.159 -0.4267  0.4938  0.3060
10895TIP3   OH254175   5.492   0.279  13.470 -0.3019  0.2236 -0.0109
10895TIP3    H154176   5.452   0.272  13.384 -0.3059  0.4016 -0.0252
10895TIP3    H254177   5.586   0.283  13.453 -0.2269 -0.9490  0.0647
10896TIP3   OH254178   1.741   6.320   2.785  0.1732 -0.1309 -0.1642
10896TIP3    H154179   1.800   6.360   2.849 -1.0020 -0.2622  1.0451
10896TIP3    H254180   1.660   6.369   2.794 -0.4803 -1.1315 -0.4903
10897TIP3   OH254181   4.487   4.858   2.375 -0.4140 -0.1957 -0.0592
10897TIP3    H154182   4.568   4.886   2.417  0.0953  0.1748 -1.2572
10897TIP3    H254183   4.457   4.935   2.327  0.1654 -1.1842 -2.1159
10898TIP3   OH254184   2.920   6.634  16.543  0.4118  0.1334  0.3633
10898TIP3    H154185   2.952   6.684  16.468 -1.9936  0.2452 -0.6814
10898TIP3    H254186   2.962   6.548  16.534  0.5551  0.3175 -0.8154
10899TIP3   OH254187   1.093   6.148   5.422 -0.0131  0.0457  0.3463
10899TIP3    H154188   1.022   6.194   5.377  0.6927  1.9210  1.0533
10899TIP3    H254189   1.173   6.186   5.386  0.5938  1.9080  3.3115
10900TIP3   OH254190   1.993   3.301   3.589  0.0196  0.2933 -0.0200
10900TIP3    H154191   1.956   3.379   3.547 -0.3995 -0.2680 -0.7379
10900TIP3    H254192   1.932   3.281   3.661 -0.2817  0.2173 -0.2898
10901TIP3   OH254193   6.688   4.151  13.762  0.0575 -0.1402  0.2753
10901TIP3    H154194   6.681   4.246  13.769 -0.4046 -0.0226 -1.3412
10901TIP3    H254195   6.744   4.137  13.685  0.6390 -1.1875  0.8556
10902TIP3   OH254196   6.696   4.613   1.570 -0.0699 -0.2207  0.3372
10902TIP3    H154197   6.730   4.604   1.659  1.5391 -0.3109 -0.2512
10902TIP3    H254198   6.636   4.687   1.575 -1.0974 -1.0863  1.7826
10903TIP3   OH254199   2.354   5.558  14.185 -0.5531  0.0600 -0.2716
10903TIP3    H154200   2.336   5.516  14.270  0.0394  2.0335  0.8968
10903TIP3    H254201   2.274   5.608  14.166 -0.3290  0.3622 -0.4136
10904TIP3   OH254202   4.248   3.077   4.914 -0.1197 -0.3693 -0.9464
10904TIP3    H154203   4.182   3.137   4.878  0.4767  0.5453 -0.5567
10904TIP3    H254204   4.328   3.098   4.865  0.3854 -0.0008  0.0032
10905TIP3   OH254205   6.283   1.604  13.861 -0.0371  0.1142 -0.2157
10905TIP3    H154206   6.359   1.548  13.844 -0.6948 -0.7590 -0.3821
10905TIP3    H254207   6.220   1.546  13.903 -0.3747  0.9901  0.5279
10906TIP3   OH254208   6.611   4.589  12.653 -0.0173  0.2755 -0.1510
10906TIP3    H154209   6.558   4.510  12.646 -0.1150  0.0780  1.9718
10906TIP3    H254210   6.700   4.561  12.637 -0.1169 -0.1862  0.0871
10907TIP3   OH254211   6.298   1.394   1.278 -0.5408 -0.1237 -0.5732
10907TIP3    H154212   6.262   1.476   1.313  0.9801 -0.1979  1.3686
10907TIP3    H254213   6.231   1.329   1.297 -0.9083  0.3309 -0.2785
10908TIP3   OH254214   6.189   3.276  12.582 -0.3113  0.0631  0.3472
10908TIP3    H154215   6.178   3.234  12.497 -1.2283  1.7630 -0.4114
10908TIP3    H254216   6.108   3.326  12.595  0.3884  0.9264  1.5868
10909TIP3   OH254217   0.095   5.140   0.809 -0.1869  0.4045 -0.3573
10909TIP3    H154218   0.095   5.046   0.825 -0.7742  0.5431  0.5404
10909TIP3    H254219   0.158   5.175   0.872  1.1805  0.4710 -1.7191
10910TIP3   OH254220   5.389   4.985   2.322  0.1632  0.3387 -0.3977
10910TIP3    H154221   5.384   5.053   2.389 -0.6585  0.5822 -0.6971
10910TIP3    H254222   5.425   4.909   2.367 -0.3329  0.5170  0.3079
10911TIP3   OH254223   0.875   4.700   5.309  0.3423 -0.1027  0.4762
10911TIP3    H154224   0.850   4.670   5.397 -1.6327  1.3252  0.4696
10911TIP3    H254225   0.837   4.635   5.250 -1.1589  0.6331  0.5880
10912TIP3   OH254226   0.011   0.759  16.556  0.1943 -0.2828 -0.2132
10912TIP3    H154227   0.047   0.692  16.613 -1.2924 -0.5342  0.4789
10912TIP3    H254228  -0.084   0.754  16.569 -0.1987 -0.2285 -2.5830
10913TIP3   OH254229   4.306   5.509  11.432  0.4010 -0.1876 -0.3260
10913TIP3    H154230   4.295   5.547  11.519  1.1577  1.0097 -0.7320
10913TIP3    H254231   4.227   5.536  11.384  0.4475 -0.0014 -0.2996
10914TIP3   OH254232   5.973   6.792  15.058  0.1521 -0.0020 -0.2125
10914TIP3    H154233   5.881   6.782  15.082 -0.4498  0.9934 -1.8866
10914TIP3    H254234   5.977   6.761  14.967  1.2834  0.7545 -0.4448
10915TIP3   OH254235   2.817   5.400  17.295 -0.5320  0.1031 -0.1696
10915TIP3    H154236   2.904   5.374  17.327 -0.1312  1.9267  0.3584
10915TIP3    H254237   2.761   5.325  17.315  0.7383 -0.7530  0.3264
10916TIP3   OH254238   5.293   4.793   1.632  0.0905 -0.1847  1.1204
10916TIP3    H154239   5.346   4.715   1.617 -0.4465 -0.0673 -1.9819
10916TIP3    H254240   5.275   4.792   1.726  2.4767 -2.2001  1.6586
10917TIP3   OH254241   3.964   2.371   0.449  0.3660 -0.2378 -0.2005
10917TIP3    H154242   3.928   2.343   0.365 -0.0725  0.7239 -0.3433
10917TIP3    H254243   3.930   2.308   0.513 -2.0159  0.9073 -0.2444
10918TIP3   OH254244   0.495   4.486   3.808  0.3136 -0.3070 -0.1534
10918TIP3    H154245   0.484   4.396   3.837 -2.1441  0.4548  1.6346
10918TIP3    H254246   0.535   4.531   3.882 -1.0995  0.5876  0.1160
10919TIP3   OH254247   0.642   1.320  15.537  0.1495 -0.7308 -0.2474
10919TIP3    H154248   0.658   1.361  15.452 -2.0524 -0.0968 -0.4381
10919TIP3    H254249   0.561   1.270  15.524 -1.9813  1.7804  2.1742
10920TIP3   OH254250   3.042   4.147  12.218  0.0961 -0.0374  0.2698
10920TIP3    H154251   3.018   4.086  12.288 -1.6679  0.0596 -0.1815
10920TIP3    H254252   2.975   4.132  12.150  0.2109  1.6957 -0.2778
10921TIP3   OH254253   6.522   2.953  12.845  0.0893  0.4792  0.3410
10921TIP3    H154254   6.481   2.939  12.931  0.8818  2.3594  1.0826
10921TIP3    H254255   6.593   2.888  12.842 -0.8984 -0.6368  0.4123
10922TIP3   OH254256   3.758   1.763  14.773 -0.1304 -0.4358 -0.5239
10922TIP3    H154257   3.803   1.845  14.754 -1.5797  0.4255 -0.4234
10922TIP3    H254258   3.702   1.782  14.848 -0.9976 -1.3162 -0.9157
10923TIP3   OH254259   3.528   5.750   5.960 -0.1228  0.1280 -0.2629
10923TIP3    H154260   3.619   5.753   5.931  0.1741  0.9184  0.6994
10923TIP3    H254261   3.532   5.757   6.056 -1.2701  2.5648 -0.3026
10924TIP3   OH254262   0.566   4.575  16.041  0.4816 -0.1783 -0.6902
10924TIP3    H154263   0.485   4.599  15.997 -0.6040 -2.8898 -0.3617
10924TIP3    H254264   0.544   4.496  16.090  2.8609  0.0786  0.9474
10925TIP3   OH254265   4.509   6.551  15.292 -0.5666  0.6356 -0.0607
10925TIP3    H154266   4.496   6.551  15.197 -1.0895 -0.4202 -0.0087
10925TIP3    H254267   4.472   6.634  15.321 -0.6021  0.8707 -0.7600
10926TIP3   OH254268   3.743   0.858   3.471 -0.3551  0.1996 -0.3617
10926TIP3    H154269   3.788   0.943   3.477  0.5507 -0.3779  3.0301
10926TIP3    H254270   3.805   0.801   3.425  1.2327  0.1767  1.6987
10927TIP3   OH254271   6.353   6.229   6.040  0.6984  0.5027  0.2248
10927TIP3    H154272   6.381   6.246   5.950  0.6778  0.2917  0.1766
10927TIP3    H254273   6.375   6.308   6.088 -0.6270  1.2168 -0.2768
10928TIP3   OH254274   2.256   6.384  12.205  0.2163  0.3045  0.0795
10928TIP3    H154275   2.316   6.350  12.272 -1.6672 -0.5964  1.3933
10928TIP3    H254276   2.288   6.347  12.123  0.7048 -1.2314  0.9146
10929TIP3   OH254277   2.674   3.642  15.859 -0.0201  0.3600 -0.0437
10929TIP3    H154278   2.687   3.566  15.803  3.6787  0.8324 -0.0202
10929TIP3    H254279   2.695   3.612  15.947 -1.3512  0.7618  0.4420
10930TIP3   OH254280   5.799   6.228   2.272  0.4372 -0.1622 -0.1936
10930TIP3    H154281   5.883   6.219   2.226 -0.3081 -2.1008 -1.2954
10930TIP3    H254282   5.799   6.155   2.334 -0.6299 -0.4539 -0.5326
10931TIP3   OH254283   3.692   4.694   4.948  0.3562 -0.2982 -0.3695
10931TIP3    H154284   3.784   4.691   4.920  0.0858 -1.9478 -1.2474
10931TIP3    H254285   3.643   4.678   4.868 -0.8823  2.9664 -0.4050
10932TIP3   OH254286   2.944   0.713   5.427  0.1233  0.4564  0.3630
10932TIP3    H154287   2.875   0.699   5.492  1.1203  2.0833  1.8650
10932TIP3    H254288   2.962   0.807   5.431  1.4762  0.2936 -0.9767
10933TIP3   OH254289   2.849   3.069   4.271 -0.4898 -0.5536 -0.3025
10933TIP3    H154290   2.941   3.091   4.256 -0.7157  1.2827  0.7555
10933TIP3    H254291   2.850   3.020   4.354 -0.6110  1.0273  0.6681
10934TIP3   OH254292   2.864   0.478   4.119 -0.0914 -0.0187 -0.3104
10934TIP3    H154293   2.907   0.397   4.147  1.6824  1.2774  0.9673
10934TIP3    H254294   2.931   0.525   4.070 -0.8380  1.0290 -0.3561
10935TIP3   OH254295   4.703   5.385   2.278 -0.0373 -0.2867 -0.2797
10935TIP3    H154296   4.793   5.401   2.250  0.1595  1.0025  0.9891
10935TIP3    H254297   4.711   5.343   2.364 -0.5958  1.7498  0.8419
10936TIP3   OH254298   2.788   1.185  14.980  0.2815  0.2079  0.4775
10936TIP3    H154299   2.791   1.188  15.076  1.4509  1.0779  0.4334
10936TIP3    H254300   2.877   1.206  14.952 -0.3198  1.2277 -0.8095
10937TIP3   OH254301   6.453   4.831  17.094 -0.5840  0.4403 -0.4019
10937TIP3    H154302   6.480   4.880  17.172 -0.5455 -0.8567  0.4372
10937TIP3    H254303   6.467   4.891  17.021  0.8976  1.1408  0.4244
10938TIP3   OH254304   5.765   4.764   1.228 -0.1537 -0.4461  0.5837
10938TIP3    H154305   5.702   4.707   1.273 -2.4435  0.4982 -1.2246
10938TIP3    H254306   5.777   4.722   1.142  0.8095 -0.0007  0.5009
10939TIP3   OH254307   1.951   1.490   2.665  0.2063  0.1595 -0.1045
10939TIP3    H154308   1.966   1.508   2.758  0.3674 -1.7633  0.2828
10939TIP3    H254309   1.856   1.481   2.657  0.3189 -2.3796  0.4944
10940TIP3   OH254310   1.156   3.399   5.696 -0.0057  0.1461 -0.4043
10940TIP3    H154311   1.175   3.457   5.771  0.5431 -0.6985  0.1291
10940TIP3    H254312   1.227   3.335   5.698  0.0967  0.1971 -1.7530
10941TIP3   OH254313   1.437   4.192  12.909 -0.0154  0.1161  0.3445
10941TIP3    H154314   1.385   4.150  12.842  0.8782  0.3486 -0.5136
10941TIP3    H254315   1.528   4.182  12.880  0.3772  0.4299  1.3885
10942TIP3   OH254316   2.170   6.433   0.734  0.7057 -0.4443  0.1339
10942TIP3    H154317   2.150   6.442   0.827  1.8333  0.9080  0.2820
10942TIP3    H254318   2.167   6.523   0.700 -0.5559 -1.0096 -1.3356
10943TIP3   OH254319   4.526   4.888  15.394 -0.4971  0.4563  0.1633
10943TIP3    H154320   4.483   4.889  15.479 -1.6325  0.2583 -0.3861
10943TIP3    H254321   4.551   4.797  15.381 -0.8570  0.3725  0.0368
10944TIP3   OH254322   4.546   5.940  12.416 -0.0809  0.0021 -0.0127
10944TIP3    H154323   4.620   5.950  12.476  0.5170 -0.1960 -0.6916
10944TIP3    H254324   4.566   5.859  12.369  0.7880  1.4144 -2.2459
10945TIP3   OH254325   3.843   2.668   6.011 -0.1200  0.5143 -0.1919
10945TIP3    H154326   3.802   2.754   6.009  0.5685  0.8465 -0.2936
10945TIP3    H254327   3.842   2.642   6.103  0.5356  1.0521 -0.0325
10946TIP3   OH254328   4.904   6.001  15.399 -0.5049  0.1071  0.3280
10946TIP3    H154329   4.882   5.957  15.317 -0.6928  0.0045  0.4334
10946TIP3    H254330   4.820   6.036  15.431 -0.6208 -0.7706  1.0180
10947TIP3   OH254331   5.788   5.253   1.941 -0.1993 -0.0530  0.6656
10947TIP3    H154332   5.850   5.305   1.992  0.8030 -1.3733  0.8536
10947TIP3    H254333   5.820   5.260   1.851 -0.8591  0.7317  0.4798
10948TIP3   OH254334   4.459   1.610  13.688 -0.3377  0.2429  0.2130
10948TIP3    H154335   4.397   1.675  13.719  0.7352  0.3193  2.3509
10948TIP3    H254336   4.471   1.631  13.595 -2.1957  1.2427  0.1564
10949TIP3   OH254337   6.620   1.431  12.705  0.3789  0.4168 -0.1098
10949TIP3    H154338   6.553   1.499  12.704  0.3528  0.5133  2.1311
10949TIP3    H254339   6.702   1.478  12.698  0.2773  0.3689 -1.9769
10950TIP3   OH254340   2.261   0.588  13.074 -0.0578 -0.3886  0.1500
10950TIP3    H154341   2.274   0.639  12.994 -0.2889 -0.9379 -0.2450
10950TIP3    H254342   2.350   0.562  13.100  0.1532  1.0324  0.9129
10951TIP3   OH254343   0.973   2.848   4.571  0.2719  0.2946 -0.6195
10951TIP3    H154344   0.909   2.782   4.544 -1.0496  0.1289  2.4955
10951TIP3    H254345   0.941   2.929   4.533 -0.5315 -0.1651 -0.9540
10952TIP3   OH254346   3.677   4.084  14.112  0.2361  0.0085 -0.6528
10952TIP3    H154347   3.617   4.028  14.063  0.7744  0.1144 -1.4532
10952TIP3    H254348   3.659   4.064  14.204 -0.1623 -0.8591 -0.9084
10953TIP3   OH254349   6.692   1.329   6.379 -0.6499  0.0671  0.2854
10953TIP3    H154350   6.624   1.396   6.390 -1.0137 -0.0854 -0.8824
10953TIP3    H254351   6.773   1.378   6.372 -0.7997  0.3325  0.4033
10954TIP3   OH254352   0.533   1.076  15.411 -0.2068 -0.1335 -0.4218
10954TIP3    H154353   0.549   1.046  15.322  0.2028 -0.7787 -0.1417
10954TIP3    H254354   0.619   1.072  15.453 -0.4434 -0.0814  0.0679
10955TIP3   OH254355   0.487   0.397  11.876 -0.2669  0.2058 -0.0158
10955TIP3    H154356   0.411   0.434  11.922  0.3556  1.9903 -0.3312
10955TIP3    H254357   0.543   0.364  11.946 -0.5201  0.5405  0.3537
10956TIP3   OH254358   0.679   4.705   2.302 -0.4854  0.3521  0.0439
10956TIP3    H154359   0.602   4.665   2.262 -0.1357 -0.5744  0.2831
10956TIP3    H254360   0.748   4.695   2.236 -0.4200  0.6478  0.0668
10957TIP3   OH254361   4.589   1.124  15.332  0.5490 -0.5337 -0.5228
10957TIP3    H154362   4.676   1.148  15.366  0.0538 -0.9517  1.1307
10957TIP3    H254363   4.528   1.163  15.394 -0.4192 -0.9894 -1.1751
10958TIP3   OH254364   6.289   2.893   2.906 -0.0433 -1.0284  0.3154
10958TIP3    H154365   6.373   2.924   2.940  1.1679 -1.6762 -1.8926
10958TIP3    H254366   6.244   2.858   2.983  2.1466 -1.6304  1.4230
10959TIP3   OH254367   3.303   4.297  14.559  0.0859  0.4212  0.5750
10959TIP3    H154368   3.375   4.241  14.530 -0.3841 -0.5226  1.1918
10959TIP3    H254369   3.346   4.368  14.607  0.6776  0.5172 -0.0770
10960TIP3   OH254370   5.409   0.669  17.011 -0.1685  0.1054 -0.2063
10960TIP3    H154371   5.465   0.729  17.058  2.4881 -1.4163 -1.2214
10960TIP3    H254372   5.446   0.664  16.923 -1.4730 -1.5041 -0.7400
10961TIP3   OH254373   2.720   1.292  15.236 -0.0086  0.7622  0.0024
10961TIP3    H154374   2.687   1.330  15.155 -0.7795  0.8827  0.3684
10961TIP3    H254375   2.738   1.367  15.292 -2.2601  0.6090  1.0095
10962TIP3   OH254376   0.026   0.659   2.029 -0.1609 -0.0483 -0.1819
10962TIP3    H154377  -0.064   0.633   2.047 -0.1713 -0.1676 -0.4045
10962TIP3    H254378   0.052   0.606   1.954 -0.0396  0.2725 -0.3706
10963TIP3   OH254379   4.806   2.421  11.071  0.2808 -0.0155  0.4221
10963TIP3    H154380   4.827   2.455  10.983  0.3818  2.9459  1.4650
10963TIP3    H254381   4.711   2.429  11.078  0.2892 -0.0890  0.6236
10964TIP3   OH254382   3.938   2.221  14.305  0.2555 -0.3604 -0.3335
10964TIP3    H154383   3.867   2.180  14.254  0.6444 -1.4001 -0.0722
10964TIP3    H254384   3.948   2.164  14.381 -0.4305  1.2700  1.0248
10965TIP3   OH254385   2.612   4.209  17.186 -0.3941 -0.3382  0.3714
10965TIP3    H154386   2.599   4.300  17.160 -2.5128 -0.4371  0.9015
10965TIP3    H254387   2.524   4.176  17.204  0.3869 -2.2845  0.9305
10966TIP3   OH254388   3.702   4.272   0.456  0.6424  0.1259  0.0250
10966TIP3    H154389   3.651   4.223   0.392  1.1271  1.0579 -1.1050
10966TIP3    H254390   3.793   4.258   0.430  0.7974  1.3432 -0.1300
10967TIP3   OH254391   2.130   5.503   0.764  0.0814  0.1059 -0.0836
10967TIP3    H154392   2.180   5.529   0.687  1.8577 -0.5297  0.8005
10967TIP3    H254393   2.078   5.428   0.735 -0.1984  0.6173 -0.9522
10968TIP3   OH254394   0.887   1.947  14.233  0.5588 -0.2388  0.3711
10968TIP3    H154395   0.843   1.883  14.289 -0.4690 -0.9143 -1.1231
10968TIP3    H254396   0.843   2.030  14.250 -0.2739 -0.6005  0.0172
10969TIP3   OH254397   2.655   2.925   2.397 -0.7671  0.2163 -0.4382
10969TIP3    H154398   2.563   2.951   2.387 -0.6828  0.2348 -1.2346
10969TIP3    H254399   2.663   2.902   2.489 -0.4713  4.5635  0.8454
10970TIP3   OH254400   1.558   4.937  14.909 -0.1765 -0.1380  0.1817
10970TIP3    H154401   1.587   4.851  14.879  1.2384  0.6534 -0.8635
10970TIP3    H254402   1.483   4.958  14.854 -0.1075 -0.4135 -0.0181
10971TIP3   OH254403   1.533   0.058  12.064  0.1157 -0.0590 -0.4697
10971TIP3    H154404   1.515  -0.009  12.130  1.3497 -0.1440 -0.1916
10971TIP3    H254405   1.595   0.117  12.106  1.8459 -0.7660 -1.9167
10972TIP3   OH254406   3.229   4.876  13.475  0.1850  0.1858  0.5894
10972TIP3    H154407   3.244   4.944  13.541 -0.2603  0.2248  0.6498
10972TIP3    H254408   3.237   4.794  13.524 -2.3743  0.2344  1.1900
10973TIP3   OH254409   1.357   6.212   3.950 -0.2526 -0.6722 -0.2972
10973TIP3    H154410   1.370   6.257   4.034  1.9325 -1.1279 -0.3271
10973TIP3    H254411   1.262   6.201   3.943 -0.6145  0.9880  1.2410
10974TIP3   OH254412   1.374   1.688  11.512 -0.2188 -0.7867 -0.0271
10974TIP3    H154413   1.390   1.604  11.469  0.7542 -1.1413  0.9996
10974TIP3    H254414   1.400   1.754  11.447  1.0520 -1.3094 -0.0660
10975TIP3   OH254415   1.400   6.462  16.673  0.0079  0.0367 -0.0737
10975TIP3    H154416   1.415   6.543  16.626 -1.7509  0.7938  0.5949
10975TIP3    H254417   1.305   6.448  16.668 -0.1577 -0.2517  2.5289
10976TIP3   OH254418   3.690   6.686  13.939  0.0539  0.1925  0.3217
10976TIP3    H154419   3.783   6.707  13.953  0.3037 -1.9637  2.5384
10976TIP3    H254420   3.645   6.770  13.950  1.5488  0.9185  1.3276
10977TIP3   OH254421   0.616   5.296  16.992 -0.8027  0.0530 -0.2391
10977TIP3    H154422   0.674   5.242  17.046 -0.7356 -0.1690 -0.5315
10977TIP3    H254423   0.654   5.384  16.997 -0.3142 -0.1327 -0.6016
10978TIP3   OH254424   0.376   2.763  10.734  0.1809 -0.2804 -0.6206
10978TIP3    H154425   0.297   2.805  10.702 -0.8885 -0.6966  1.3377
10978TIP3    H254426   0.422   2.831  10.783 -0.5093 -0.7991  0.7908
10979TIP3   OH254427   5.350   3.590  13.764 -0.2939 -0.5904  0.7034
10979TIP3    H154428   5.333   3.508  13.716 -0.7167 -0.6496  0.9558
10979TIP3    H254429   5.285   3.651  13.731  1.3705  0.3256 -1.1012
10980TIP3   OH254430   0.118   2.405   5.709  0.6067 -0.0040 -0.1921
10980TIP3    H154431   0.060   2.481   5.699 -0.1671 -0.3510  1.2548
10980TIP3    H254432   0.081   2.339   5.650  2.0549  1.1047 -2.4608
10981TIP3   OH254433   0.591   5.585  12.601 -0.0630 -0.2193  0.7553
10981TIP3    H154434   0.607   5.551  12.689  1.3308  0.6111  0.8394
10981TIP3    H254435   0.507   5.546  12.576 -0.6145 -0.2714  2.5407
10982TIP3   OH254436   0.436   1.016   5.824 -0.1137  0.5220 -0.5073
10982TIP3    H154437   0.505   0.986   5.883  0.3992  0.7183 -1.0003
10982TIP3    H254438   0.439   1.111   5.828 -0.1026  0.5362 -0.8244
10983TIP3   OH254439   1.943   2.221  14.347 -0.3936 -0.1703  0.7950
10983TIP3    H154440   1.953   2.315  14.330 -0.6383 -0.4910 -1.3538
10983TIP3    H254441   1.880   2.217  14.419 -1.6088  1.3120 -0.1143
10984TIP3   OH254442   5.731   4.598   4.176 -0.3075  0.0315 -0.0967
10984TIP3    H154443   5.768   4.525   4.225  0.8737  0.0661 -0.8982
10984TIP3    H254444   5.648   4.564   4.142  0.2927 -1.0054 -0.5853
10985TIP3   OH254445   1.885   5.607  16.492 -0.5180 -0.0748 -0.6533
10985TIP3    H154446   1.876   5.650  16.407 -0.9230  0.5896 -0.2808
10985TIP3    H254447   1.807   5.634  16.541  0.1673  0.3086  0.2521
10986TIP3   OH254448   2.893   3.707  16.921  0.2629  0.7246  0.0332
10986TIP3    H154449   2.824   3.770  16.943 -1.0503 -0.8287  0.5917
10986TIP3    H254450   2.855   3.656  16.849  1.7221  1.2023 -1.1241
10987TIP3   OH254451   6.790   5.313  14.844  0.0400  0.3938 -0.5589
10987TIP3    H154452   6.867   5.278  14.888 -1.0597 -2.1688 -0.5108
10987TIP3    H254453   6.823   5.344  14.759  1.0084 -1.6214 -0.9671
10988TIP3   OH254454   2.913   5.428  16.933 -0.0948 -0.0775  0.1114
10988TIP3    H154455   2.964   5.475  16.867  1.2469 -2.8717 -1.0210
10988TIP3    H254456   2.833   5.402  16.888 -0.3842  0.2498  0.4282
10989TIP3   OH254457   3.978   4.016   0.972  0.2395  0.4455 -0.8297
10989TIP3    H154458   4.025   4.062   1.042 -1.7059  0.3789  0.5981
10989TIP3    H254459   3.887   4.046   0.980 -1.1498 -3.4132  0.1092
10990TIP3   OH254460   1.456   3.217  13.426 -0.3044  0.3121 -0.3849
10990TIP3    H154461   1.503   3.296  13.451  0.2023 -0.2463  0.4775
10990TIP3    H254462   1.391   3.247  13.362 -1.1206  1.6836  1.0010
10991TIP3   OH254463   2.750   4.422   3.774 -0.2698  0.1286 -0.1885
10991TIP3    H154464   2.682   4.402   3.711  0.2071 -0.3793 -0.5512
10991TIP3    H254465   2.757   4.343   3.828 -2.6070  1.4710  2.3684
10992TIP3   OH254466   5.920   1.906  15.345 -0.2583  0.2404  0.0232
10992TIP3    H154467   5.838   1.887  15.390 -0.8998  0.9952 -0.7861
10992TIP3    H254468   5.983   1.844  15.382 -1.2491 -0.5206  0.4852
10993TIP3   OH254469   4.112   1.225  16.686  0.3156  0.2847 -0.0770
10993TIP3    H154470   4.116   1.196  16.777 -1.3732  2.0833  0.6199
10993TIP3    H254471   4.031   1.186  16.651  1.5406 -1.3999 -1.2614
10994TIP3   OH254472   3.018   0.129  15.424  0.1762 -0.1337 -0.4559
10994TIP3    H154473   3.102   0.085  15.425  0.4981  0.4700 -0.3131
10994TIP3    H254474   2.995   0.137  15.332  0.5292  0.1782 -0.5156
10995TIP3   OH254475   5.247   2.412  12.718  0.3804  0.3000 -0.2758
10995TIP3    H154476   5.336   2.389  12.744 -0.8661 -0.8510  3.5630
10995TIP3    H254477   5.239   2.505  12.740  0.0095 -0.1477  1.6342
10996TIP3   OH254478   2.944   6.132  12.759 -0.0807 -0.2103 -0.1134
10996TIP3    H154479   2.997   6.129  12.839 -1.1758 -0.3314  0.6247
10996TIP3    H254480   2.994   6.082  12.695  0.3550 -0.9479  0.7764
10997TIP3   OH254481   6.569   5.812  15.552  0.3249 -0.1256  0.2946
10997TIP3    H154482   6.646   5.864  15.576  1.7431 -1.4990 -1.0907
10997TIP3    H254483   6.509   5.823  15.626  1.2319  2.1014  0.7955
10998TIP3   OH254484   0.282   0.745   0.863  0.2136 -0.0046 -0.0380
10998TIP3    H154485   0.293   0.669   0.919  1.2526 -1.6825 -2.3294
10998TIP3    H254486   0.195   0.735   0.824 -0.4570  1.0857  1.1176
10999TIP3   OH254487   5.811   2.854  11.456  0.1924 -0.4508  0.6348
10999TIP3    H154488   5.745   2.820  11.515  0.3951  1.6955  2.2100
10999TIP3    H254489   5.894   2.822  11.490  0.2495  0.1643  1.0936
11000TIP3   OH254490   3.451   1.049  14.422 -0.6205  0.0200 -0.3025
11000TIP3    H154491   3.428   0.982  14.487  0.9314 -0.1420  0.1191
11000TIP3    H254492   3.375   1.051  14.362 -2.0996  0.1941  1.4846
11001TIP3   OH254493   3.239   5.415   3.172  0.3782 -0.4103 -0.1195
11001TIP3    H154494   3.154   5.378   3.147 -0.5894  0.6956  1.4014
11001TIP3    H254495   3.222   5.464   3.252  2.4764 -0.1789  0.2411
11002TIP3   OH254496   0.684   3.758  16.914 -0.1205 -0.1502  0.1037
11002TIP3    H154497   0.663   3.722  16.827 -0.4976 -0.2807  0.2451
11002TIP3    H254498   0.603   3.802  16.941 -0.1154 -0.4000  0.5325
11003TIP3   OH254499   3.495   2.793   4.349 -1.1669  0.6533  0.3462
11003TIP3    H154500   3.449   2.876   4.335  0.3038  1.2372 -1.5299
11003TIP3    H254501   3.427   2.732   4.378 -2.3808  2.3596  1.2699
11004TIP3   OH254502   5.937   1.870   6.691  0.5600  0.5115 -0.0031
11004TIP3    H154503   5.907   1.884   6.781 -2.4941  0.4409 -0.9029
11004TIP3    H254504   5.893   1.937   6.640  2.0412  0.3891 -1.5288
11005TIP3   OH254505   3.343   0.282   2.264 -0.0846 -0.3429 -0.7057
11005TIP3    H154506   3.351   0.270   2.359 -1.8075 -0.3418 -0.5208
11005TIP3    H254507   3.427   0.318   2.237  0.2778  0.1085  0.9034
11006TIP3   OH254508   2.553   1.687   2.682  0.5379  0.1286 -0.2775
11006TIP3    H154509   2.557   1.738   2.602 -0.8474  0.4632 -0.1566
11006TIP3    H254510   2.466   1.706   2.718  1.0269 -0.2340  1.1494
11007TIP3   OH254511   2.474   3.585  14.949  0.2458  0.4798 -0.2639
11007TIP3    H154512   2.390   3.584  14.994  1.4300  0.7816  2.1288
11007TIP3    H254513   2.516   3.666  14.978  2.4949 -1.0126  0.9638
11008TIP3   OH254514   3.511   6.467  16.081  0.1292  0.5119 -0.0011
11008TIP3    H154515   3.507   6.390  16.139 -0.2951  0.1237 -0.5372
11008TIP3    H254516   3.601   6.500  16.091 -0.1364  0.8639  1.4002
11009TIP3   OH254517   3.221   4.263   5.210 -0.5387  0.5318  0.5781
11009TIP3    H154518   3.311   4.236   5.227 -0.4451  0.1225 -0.4660
11009TIP3    H254519   3.229   4.333   5.146 -0.9324  1.0930  1.1337
11010TIP3   OH254520   3.286   3.438   1.396  0.9099 -0.3360 -0.8200
11010TIP3    H154521   3.335   3.506   1.351  1.2101 -1.4086 -2.2058
11010TIP3    H254522   3.194   3.465   1.388  0.9696 -0.3896 -1.9474
11011TIP3   OH254523   2.995   4.996   3.535  0.1401 -0.0453  0.5795
11011TIP3    H154524   2.909   5.034   3.518  0.2380  0.3257  0.8876
11011TIP3    H254525   2.997   4.915   3.483  0.1733  0.6982 -0.6361
11012TIP3   OH254526   3.973   0.441   6.113  0.2344 -0.0217  0.1592
11012TIP3    H154527   3.997   0.389   6.036 -1.1757 -1.9718  0.9487
11012TIP3    H254528   3.917   0.383   6.164 -1.1232  2.2032  1.3275
11013TIP3   OH254529   3.101   1.007   1.145  0.0749 -0.1873 -0.1199
11013TIP3    H154530   3.037   0.943   1.175 -0.8577  0.2830 -1.0362
11013TIP3    H254531   3.095   1.078   1.209 -2.5436  1.2154 -1.7262
11014TIP3   OH254532   6.365   3.001  10.225 -0.4453 -0.3510 -0.1376
11014TIP3    H154533   6.377   2.906  10.216 -1.4634 -0.3434 -2.1111
11014TIP3    H254534   6.452   3.037  10.210 -0.4790 -0.8863 -1.7766
11015TIP3   OH254535   3.858   5.333  13.085  0.2175 -0.5151  0.0002
11015TIP3    H154536   3.898   5.283  13.015  0.0795 -0.1770 -0.3271
11015TIP3    H254537   3.922   5.402  13.105  0.0093 -0.2591 -0.2007
11016TIP3   OH254538   0.318   2.389  13.907 -0.6566 -0.1280 -0.0333
11016TIP3    H154539   0.254   2.339  13.856  0.1873  0.3330 -1.6044
11016TIP3    H254540   0.402   2.371  13.865 -0.1609  1.6669  0.0904
11017TIP3   OH254541   4.493   2.951   5.781 -0.0582  0.1390  0.3461
11017TIP3    H154542   4.442   3.007   5.839  0.7562 -0.6683  1.8951
11017TIP3    H254543   4.428   2.904   5.729 -0.8817 -0.2839  1.7199
11018TIP3   OH254544   3.888   2.054   1.822  0.0517  0.0524  0.2241
11018TIP3    H154545   3.978   2.070   1.849  0.4307 -1.5113 -0.0072
11018TIP3    H254546   3.896   2.001   1.743 -1.0540  2.4122 -1.5931
11019TIP3   OH254547   5.749   2.940   4.022 -0.0452  0.1819  0.1290
11019TIP3    H154548   5.769   3.032   4.042 -2.1491  0.6647  0.3007
11019TIP3    H254549   5.784   2.891   4.096  0.3885  0.9311  0.4332
11020TIP3   OH254550   0.275   1.002  16.363  0.1445  0.2422  0.2009
11020TIP3    H154551   0.309   0.924  16.406 -0.9579 -0.1051  0.4580
11020TIP3    H254552   0.293   0.988  16.270 -1.8034 -1.2800 -0.0208
11021TIP3   OH254553   3.933   1.657  16.416  0.0059  0.0644  0.3893
11021TIP3    H154554   4.005   1.711  16.384 -0.2369  0.2188  0.0922
11021TIP3    H254555   3.905   1.700  16.497  0.4594 -0.1863  0.6876
11022TIP3   OH254556   3.172   4.009  10.793 -0.3955  0.2755  0.3848
11022TIP3    H154557   3.152   4.099  10.817  0.0732  0.3475  0.5002
11022TIP3    H254558   3.248   4.015  10.736 -0.3201 -0.0516  0.4476
11023TIP3   OH254559   4.198   5.677  15.228 -0.0998  0.0576  0.1149
11023TIP3    H154560   4.185   5.694  15.321  0.8052  0.3836  0.1879
11023TIP3    H254561   4.250   5.597  15.225  0.6005  0.5138 -0.0833
11024TIP3   OH254562   1.103   3.048  13.962 -0.2552 -0.0435  0.4648
11024TIP3    H154563   1.023   3.102  13.960  0.4781  1.0827  0.3220
11024TIP3    H254564   1.113   3.017  13.872 -0.0833  0.5088  0.2898
11025TIP3   OH254565   2.137   5.589  13.677 -0.0661 -0.0100 -0.6927
11025TIP3    H154566   2.118   5.557  13.588 -1.4050 -1.1478 -0.0245
11025TIP3    H254567   2.057   5.633  13.705  0.3996  0.4737 -0.0831
11026TIP3   OH254568   1.644   1.169  13.264  0.2893  0.0752  0.0030
11026TIP3    H154569   1.724   1.160  13.212  0.5296 -1.2172  0.5723
11026TIP3    H254570   1.674   1.172  13.354 -0.2436  0.6978  0.1651
11027TIP3   OH254571   3.084   0.765   2.807 -0.2665 -0.2803  0.1941
11027TIP3    H154572   3.068   0.815   2.727  0.7404 -0.0290  0.1390
11027TIP3    H254573   3.148   0.699   2.782 -0.0380 -0.2804  0.7693
11028TIP3   OH254574   5.422   3.680   4.854  0.0992  0.4865 -0.5110
11028TIP3    H154575   5.508   3.722   4.844 -0.1456  1.1100 -0.0392
11028TIP3    H254576   5.434   3.593   4.815  1.2443  0.1794  0.4582
11029TIP3   OH254577   3.284   4.596  14.861 -0.2045  0.4221  0.0238
11029TIP3    H154578   3.202   4.556  14.890  0.7071 -0.7759  1.0824
11029TIP3    H254579   3.285   4.682  14.904 -1.1182  0.6472 -0.3940
11030TIP3   OH254580   2.553   3.580  11.085  0.1654  0.0815  0.2454
11030TIP3    H154581   2.518   3.512  11.143  1.3341 -0.2842  0.5524
11030TIP3    H254582   2.617   3.534  11.030 -0.4775  0.5539 -0.9120
11031TIP3   OH254583   6.216   1.578   1.004  0.0807  0.0875  0.3714
11031TIP3    H154584   6.227   1.668   0.973 -1.7776  0.3332  0.3659
11031TIP3    H254585   6.207   1.586   1.099  1.6709 -0.2916  0.5871
11032TIP3   OH254586   3.261   5.640  12.679 -0.1035  0.1992 -0.5398
11032TIP3    H154587   3.330   5.591  12.634  0.6087  0.1753  0.5554
11032TIP3    H254588   3.287   5.732  12.669  1.6750  0.1107  2.2568
11033TIP3   OH254589   6.707   1.423  17.047 -0.0628 -0.0622  0.5080
11033TIP3    H154590   6.770   1.389  17.111  0.1898 -1.3615 -0.3839
11033TIP3    H254591   6.747   1.504  17.015  1.1586 -0.8504 -0.0186
11034TIP3   OH254592   2.640   5.437   6.459 -0.1286 -0.1068 -0.4567
11034TIP3    H154593   2.551   5.444   6.495 -0.0495  1.1376 -0.4893
11034TIP3    H254594   2.680   5.522   6.476  0.9469 -0.5415 -0.7580
11035TIP3   OH254595   3.011   4.590  11.244  0.0833  0.6302  0.3535
11035TIP3    H154596   3.046   4.632  11.165 -1.7407 -3.0170 -2.7064
11035TIP3    H254597   3.080   4.530  11.272  0.7413  1.9426  1.6993
11036TIP3   OH254598   5.134   2.498   6.562 -0.0755  0.8304  0.1865
11036TIP3    H154599   5.074   2.560   6.603 -0.6635  0.7279 -0.4878
11036TIP3    H254600   5.084   2.417   6.557  0.5596  0.4025  0.7288
11037TIP3   OH254601   1.536   5.304   5.184 -0.5956 -0.5605 -0.1734
11037TIP3    H154602   1.601   5.373   5.171 -1.6212  0.1560 -1.7641
11037TIP3    H254603   1.485   5.333   5.260  0.0237 -0.4102  0.1871
11038TIP3   OH254604   1.384   3.804  16.675  0.2621  0.7141 -0.2084
11038TIP3    H154605   1.291   3.823  16.660  0.0710  1.1481  1.3470
11038TIP3    H254606   1.386   3.710  16.693  0.0926  0.7311 -0.0915
11039TIP3   OH254607   0.186   2.352  16.610  0.1266  0.1766 -0.2074
11039TIP3    H154608   0.248   2.289  16.648  0.8571 -0.0583 -1.7199
11039TIP3    H254609   0.140   2.302  16.543 -0.1588  0.9418 -0.5839
11040TIP3   OH254610   0.667   6.535   2.229  0.1001 -0.0089 -0.1850
11040TIP3    H154611   0.586   6.581   2.208 -0.7154  0.4848  3.4263
11040TIP3    H254612   0.725   6.603   2.264  0.6242 -0.9568  0.8578
11041TIP3   OH254613   4.375   2.169   1.113  0.4006 -0.4523  0.1299
11041TIP3    H154614   4.462   2.148   1.078  0.9636  1.2465  0.4133
11041TIP3    H254615   4.315   2.137   1.046  1.3908  1.0855 -1.6125
11042TIP3   OH254616   5.960   6.634  14.087  0.3212  0.1807  0.1049
11042TIP3    H154617   6.037   6.592  14.048  0.1624 -1.0257  1.0171
11042TIP3    H254618   5.894   6.633  14.017  0.1228 -1.7212  0.2554
11043TIP3   OH254619   1.401   6.710   1.128 -0.0618 -0.2468  0.0047
11043TIP3    H154620   1.429   6.641   1.067  0.0475 -0.5189  0.3544
11043TIP3    H254621   1.352   6.663   1.196 -1.5624  0.2417 -0.7022
11044TIP3   OH254622   4.571   1.601  15.286  0.5052  0.7399  0.0689
11044TIP3    H154623   4.655   1.608  15.333 -0.0292 -0.2002  1.2222
11044TIP3    H254624   4.515   1.551  15.345  0.0215 -1.1917 -1.8939
11045TIP3   OH254625   0.161   1.015   0.789 -0.0137  0.2966 -0.1693
11045TIP3    H154626   0.093   0.966   0.834  0.2842 -0.4105 -0.4577
11045TIP3    H254627   0.173   0.968   0.707  1.0701  0.1933  0.0351
11046TIP3   OH254628   2.001   5.472  12.379  0.2123  0.2444  0.0092
11046TIP3    H154629   1.947   5.452  12.456  0.8261  0.1556  0.4261
11046TIP3    H254630   1.986   5.399  12.320 -0.0878  0.1963  0.1403
11047TIP3   OH254631   1.125   5.164  16.000 -0.3545 -0.2307 -0.1962
11047TIP3    H154632   1.177   5.098  15.954 -0.1512  0.9464 -1.6985
11047TIP3    H254633   1.189   5.226  16.033 -0.5876 -0.4936  0.7899
11048TIP3   OH254634   0.286   6.792  14.248 -0.1127 -0.3782 -0.2671
11048TIP3    H154635   0.368   6.744  14.235  0.3273  0.4973 -0.7717
11048TIP3    H254636   0.229   6.729  14.293  0.5202 -1.2967 -0.7184
11049TIP3   OH254637   2.662   0.702   6.020 -0.3318  0.3124  0.2964
11049TIP3    H154638   2.612   0.670   6.096  2.0929  0.7083  2.1816
11049TIP3    H254639   2.663   0.797   6.031  0.1803  0.3614 -0.1567
11050TIP3   OH254640   6.782   0.126   3.540 -1.0604  0.2425 -0.4257
11050TIP3    H154641   6.688   0.108   3.540 -0.9598 -0.2988 -0.7155
11050TIP3    H254642   6.795   0.185   3.614 -0.9565 -3.2354  2.6277
11051TIP3   OH254643   0.138   3.653  15.849  0.2695 -0.0544 -0.0894
11051TIP3    H154644   0.204   3.584  15.854  0.0793 -0.3134 -0.9411
11051TIP3    H254645   0.079   3.635  15.922  0.2565 -0.7774 -0.2633
11052TIP3   OH254646   6.018   0.175   5.344 -0.2068 -0.0490 -0.6787
11052TIP3    H154647   5.980   0.238   5.283  1.4718  1.8822  0.1548
11052TIP3    H254648   6.038   0.227   5.423  1.6187 -1.5158 -0.1032
11053TIP3   OH254649   0.093   1.478  12.458  0.5584 -0.0142  0.0874
11053TIP3    H154650   0.024   1.478  12.391  0.9956  1.3974 -0.4140
11053TIP3    H254651   0.128   1.389  12.456  0.2087 -0.1452 -1.2034
11054TIP3   OH254652   3.250   1.615   4.626  0.0950 -0.1694  0.5272
11054TIP3    H154653   3.266   1.708   4.607  1.0523 -0.0643  1.7542
11054TIP3    H254654   3.156   1.604   4.612  0.1720  0.6922 -0.8066
11055TIP3   OH254655   4.530   6.516   0.480 -0.1543  0.7068  0.1507
11055TIP3    H154656   4.438   6.515   0.506 -0.2660  2.9622  0.0171
11055TIP3    H254657   4.528   6.492   0.387 -0.6739  1.2870  0.0041
11056TIP3   OH254658   3.611   6.084   5.187  0.2903 -0.0393  0.0421
11056TIP3    H154659   3.630   6.062   5.096  0.6616 -0.8924  0.3204
11056TIP3    H254660   3.530   6.038   5.207  0.3313 -0.0363  0.2169
11057TIP3   OH254661   4.775   0.984   0.426 -0.2497  0.4485  0.3334
11057TIP3    H154662   4.679   0.986   0.427 -0.4815 -2.2225 -2.2554
11057TIP3    H254663   4.797   0.899   0.465  1.1969  1.4083  1.7535
11058TIP3   OH254664   5.343   1.653   4.274 -0.1414 -0.4057  0.1629
11058TIP3    H154665   5.347   1.707   4.196  0.2001 -0.2704  0.2716
11058TIP3    H254666   5.259   1.675   4.315  1.5820  3.0205  2.3099
11059TIP3   OH254667   0.885   2.691   4.231 -0.4440  0.0799 -0.1706
11059TIP3    H154668   0.811   2.704   4.172  0.3763  0.8969 -1.0605
11059TIP3    H254669   0.846   2.684   4.318 -1.4891  1.7220 -0.4747
11060TIP3   OH254670   1.386   2.013  11.920  0.2811 -0.1608  0.0011
11060TIP3    H154671   1.332   1.934  11.926 -0.8731  0.6929  1.8231
11060TIP3    H254672   1.323   2.085  11.923  1.4086  0.8471  0.2825
11061TIP3   OH254673   1.339   5.849  15.660  0.0957 -0.7558 -0.1819
11061TIP3    H154674   1.280   5.775  15.674 -1.1848  0.2283 -0.1826
11061TIP3    H254675   1.400   5.845  15.734  1.1717 -2.7843 -1.0894
11062TIP3   OH254676   1.471   3.169  12.190 -0.3153  0.1150  0.3532
11062TIP3    H154677   1.499   3.226  12.261  0.9140  1.1757 -0.9152
11062TIP3    H254678   1.377   3.181  12.185  0.0087  3.0514 -0.6442
11063TIP3   OH254679   2.929   2.813   6.203 -0.2837  0.0815  0.4778
11063TIP3    H154680   2.926   2.860   6.285  1.0927  0.9988  0.0386
11063TIP3    H254681   2.947   2.880   6.137 -0.5495 -0.7456 -0.4687
11064TIP3   OH254682   4.192   5.770   1.266  0.0394  0.0235  0.6257
11064TIP3    H154683   4.202   5.675   1.276  2.7690  0.0637 -0.7157
11064TIP3    H254684   4.165   5.801   1.353 -0.9780 -1.9526  1.0622
11065TIP3   OH254685   3.848   6.270   4.666 -0.3209  0.8174  0.0534
11065TIP3    H154686   3.909   6.196   4.665 -1.1178  0.1180  1.1803
11065TIP3    H254687   3.900   6.343   4.699 -0.1619  0.1486  1.3184
11066TIP3   OH254688   5.393   4.011   0.075 -0.1919  0.4202 -0.7419
11066TIP3    H154689   5.431   3.982  -0.007 -0.9397  2.3968 -1.8593
11066TIP3    H254690   5.301   4.031   0.054 -1.2456 -1.8140  1.2852
11067TIP3   OH254691   1.754   5.886   0.087  1.0279 -0.6329  0.2526
11067TIP3    H154692   1.831   5.896   0.031  0.0466 -1.1101 -1.2462
11067TIP3    H254693   1.726   5.976   0.106 -0.3638 -0.3597 -2.5953
11068TIP3   OH254694   2.038   4.539  16.284 -0.3291 -0.1441 -0.1782
11068TIP3    H154695   2.003   4.573  16.202  0.8303  0.6042 -0.3859
11068TIP3    H254696   2.098   4.469  16.257 -0.8600 -0.7194  0.1113
11069TIP3   OH254697   6.197   4.256   2.671  0.2350  0.1739 -0.0537
11069TIP3    H154698   6.272   4.217   2.625  0.0526  1.1018 -1.2047
11069TIP3    H254699   6.236   4.314   2.736  0.5344 -2.7860  2.6069
11070TIP3   OH254700   6.411   0.562   6.019  0.0483  0.5075 -0.2240
11070TIP3    H154701   6.359   0.593   5.945  0.7295  1.9556 -0.1367
11070TIP3    H254702   6.358   0.582   6.096 -0.3117 -0.2639 -0.2645
11071TIP3   OH254703   2.646   6.284  12.121 -0.0126  0.3208 -0.2590
11071TIP3    H154704   2.734   6.246  12.126  0.2401  0.7267 -1.2581
11071TIP3    H254705   2.635   6.330  12.204  0.1563 -0.8922  0.4525
11072TIP3   OH254706   1.775   5.399  12.848 -0.3273  0.0122 -0.2409
11072TIP3    H154707   1.751   5.439  12.932 -0.5822 -0.7640  0.0704
11072TIP3    H254708   1.692   5.368  12.812 -0.2262  0.3981 -0.8217
11073TIP3   OH254709   1.084   3.939  11.450  0.3999 -0.3240  0.0209
11073TIP3    H154710   1.082   3.988  11.368  1.0374  0.2846  0.3563
11073TIP3    H254711   0.992   3.935  11.478  0.4772  2.3530  0.9353
11074TIP3   OH254712   1.785   3.124   2.237  0.4446  0.8194  0.9532
11074TIP3    H154713   1.829   3.141   2.154 -1.0491 -0.8198 -0.2690
11074TIP3    H254714   1.714   3.189   2.240  0.3605  0.7340  0.8280
11075TIP3   OH254715   3.640   2.349  15.084 -0.0802  0.1079  0.4757
11075TIP3    H154716   3.709   2.287  15.105 -0.3858 -0.6141 -0.5860
11075TIP3    H254717   3.559   2.299  15.092 -0.3588  0.4838  0.0501
11076TIP3   OH254718   1.601   2.264  10.971 -0.3503  0.3586  0.1144
11076TIP3    H154719   1.645   2.180  10.987  1.1937  0.3965 -3.1847
11076TIP3    H254720   1.508   2.242  10.968 -0.2206 -0.6873  1.8986
11077TIP3   OH254721   0.099   4.513  14.832  0.2036  0.3550 -0.9470
11077TIP3    H154722   0.118   4.444  14.896 -0.8562  2.8721  2.4173
11077TIP3    H254723   0.007   4.501  14.810  0.0238  0.6430 -0.3738
11078TIP3   OH254724   6.389   2.967  17.150 -0.0242  0.4799  0.5268
11078TIP3    H154725   6.352   2.930  17.230 -0.1285 -1.4385 -0.3557
11078TIP3    H254726   6.463   3.020  17.179 -0.1532 -0.0649  1.8968
11079TIP3   OH254727   4.744   0.367  13.384 -0.1949  0.0632  0.8675
11079TIP3    H154728   4.811   0.395  13.447 -0.1123  1.2259  0.2853
11079TIP3    H254729   4.672   0.429  13.396  0.3100  1.0991 -0.9978
11080TIP3   OH254730   6.091   1.685  12.148  0.3559  0.1306 -0.0593
11080TIP3    H154731   6.042   1.717  12.072 -0.3952  0.9312  0.7382
11080TIP3    H254732   6.036   1.615  12.184 -0.8173  1.7728  1.4917
11081TIP3   OH254733   6.074   0.814   0.755  0.4538  0.8492 -0.5029
11081TIP3    H154734   6.018   0.748   0.797 -1.2727  3.2688  1.2387
11081TIP3    H254735   6.141   0.834   0.821  1.8101 -0.0633 -1.5453
11082TIP3   OH254736   3.352   6.722  16.801 -0.4854 -0.5636 -0.6053
11082TIP3    H154737   3.367   6.751  16.891  1.0589 -0.5870 -0.8193
11082TIP3    H254738   3.280   6.660  16.806 -1.9370  1.0926  0.2869
11083TIP3   OH254739   5.414   1.848  10.981 -0.1174  0.1694  0.0227
11083TIP3    H154740   5.478   1.872  10.913 -1.1402  0.1231 -0.9827
11083TIP3    H254741   5.334   1.893  10.956 -0.3092  0.8003  1.6668
11084TIP3   OH254742   5.683   3.074  17.133 -0.3885  0.1775  0.1967
11084TIP3    H154743   5.635   3.027  17.202 -0.7565 -1.2969 -1.0079
11084TIP3    H254744   5.737   3.138  17.180 -0.3201 -1.0580  1.8731
11085TIP3   OH254745   2.805   5.174  14.047 -0.1627  0.3293  0.6023
11085TIP3    H154746   2.777   5.127  14.126  2.6820 -1.9381  0.4221
11085TIP3    H254747   2.740   5.150  13.981 -0.6121 -0.6612  1.3775
11086TIP3   OH254748   2.851   3.037   1.221 -0.2512 -0.5751 -0.4683
11086TIP3    H154749   2.790   3.023   1.293 -0.6504  0.0029 -0.6874
11086TIP3    H254750   2.868   3.131   1.222 -1.1533 -0.3626 -1.8282
11087TIP3   OH254751   6.755   2.824   3.003  0.0907  0.3145 -0.0097
11087TIP3    H154752   6.801   2.800   2.923 -0.8163  0.8027 -0.7101
11087TIP3    H254753   6.822   2.862   3.059  0.8410 -0.5163 -0.3207
11088TIP3   OH254754   4.916   4.084  14.054  0.0661 -0.4519  0.5151
11088TIP3    H154755   4.893   4.147  13.986 -1.8209 -2.3026 -0.7051
11088TIP3    H254756   4.900   4.131  14.137 -0.6149  0.8763 -0.3321
11089TIP3   OH254757   3.868   4.398   2.390  0.2141  0.1214 -0.6751
11089TIP3    H154758   3.842   4.484   2.357 -2.4776  0.0923  1.0036
11089TIP3    H254759   3.956   4.411   2.426 -0.8720  2.7943  1.3806
11090TIP3   OH254760   5.638   3.109  11.502 -0.2322  0.1859  0.0658
11090TIP3    H154761   5.721   3.062  11.503 -1.3370 -1.9547  1.9798
11090TIP3    H254762   5.612   3.109  11.409  1.2282 -0.3682 -0.3768
11091TIP3   OH254763   0.290   1.769   4.468  0.0156 -0.3813 -0.5083
11091TIP3    H154764   0.377   1.736   4.489 -0.9356 -2.2486  0.8715
11091TIP3    H254765   0.265   1.722   4.388 -0.1542 -0.6785 -0.2798
11092TIP3   OH254766   3.561   5.403   5.517  0.0476  0.3391 -0.4881
11092TIP3    H154767   3.490   5.379   5.458 -0.7856  0.6636  0.3582
11092TIP3    H254768   3.579   5.324   5.567  0.8799  0.0093 -1.2744
11093TIP3   OH254769   1.768   2.973  12.044 -0.4745 -0.3464  0.0559
11093TIP3    H154770   1.731   3.058  12.068 -0.5211 -0.6711  1.1651
11093TIP3    H254771   1.723   2.950  11.962 -1.0955  0.2927  0.2067
11094TIP3   OH254772   5.993   4.103   3.976 -0.3201 -0.1112  0.5733
11094TIP3    H154773   5.935   4.145   3.913  1.1892  1.8045  0.3713
11094TIP3    H254774   6.049   4.046   3.924  1.0128  1.5677  0.0769
11095TIP3   OH254775   3.479   2.702  13.004 -0.9974 -0.0743  0.2727
11095TIP3    H154776   3.504   2.760  12.932  2.7120 -0.0002  1.4409
11095TIP3    H254777   3.467   2.617  12.963  0.1439  0.1492 -0.5710
11096TIP3   OH254778   4.136   4.859  12.240  0.0367  0.2834  0.0068
11096TIP3    H154779   4.077   4.890  12.309 -0.0247 -1.4617  0.7851
11096TIP3    H254780   4.088   4.876  12.159 -2.3730 -2.4987  0.6560
11097TIP3   OH254781   5.203   2.761   3.937 -0.3355  0.0792  0.2345
11097TIP3    H154782   5.265   2.800   4.000 -0.1368  0.8118 -0.4003
11097TIP3    H254783   5.239   2.674   3.920  0.7551  0.6289 -0.4190
11098TIP3   OH254784   0.759   5.739   2.110 -0.4189  0.0168 -0.8914
11098TIP3    H154785   0.853   5.743   2.092 -0.4596 -0.8019 -1.3222
11098TIP3    H254786   0.750   5.777   2.197  0.3109  0.1054 -0.8477
11099TIP3   OH254787   4.041   4.858  11.924  0.1650 -0.0461 -0.5505
11099TIP3    H154788   3.996   4.777  11.945  1.0026 -0.1138  1.1453
11099TIP3    H254789   3.971   4.920  11.903 -0.7095 -0.3512  1.2835
11100TIP3   OH254790   0.997   2.016   5.989  0.0560  0.2713  0.2213
11100TIP3    H154791   0.983   2.004   5.896  0.4611 -1.4777  0.3565
11100TIP3    H254792   0.969   1.934   6.029  1.2626  0.4295  1.4788
11101TIP3   OH254793   5.333   3.427   5.270  0.6438 -0.7121 -0.2096
11101TIP3    H154794   5.399   3.366   5.302 -0.9811 -2.0720  0.7335
11101TIP3    H254795   5.354   3.510   5.312  1.6690 -1.1477  0.1592
11102TIP3   OH254796   5.362   6.241  15.896 -0.0745 -0.0181 -0.1343
11102TIP3    H154797   5.360   6.248  15.801  1.8367  0.5459 -0.1659
11102TIP3    H254798   5.332   6.327  15.927  0.8791  0.3769 -0.2677
11103TIP3   OH254799   1.763   4.362   2.917 -0.1554 -0.5772  0.3120
11103TIP3    H154800   1.724   4.337   2.833 -0.8173  0.2220  0.3718
11103TIP3    H254801   1.855   4.337   2.909 -0.1877 -0.4183 -0.6840
11104TIP3   OH254802   2.598   2.475  15.254 -0.0853 -0.0200 -0.6903
11104TIP3    H154803   2.682   2.455  15.211  0.4230  0.4757  0.0576
11104TIP3    H254804   2.607   2.440  15.342 -0.6044  0.1929 -0.5502
11105TIP3   OH254805   2.739   5.622  16.177 -0.0480  0.3377  0.2563
11105TIP3    H154806   2.815   5.581  16.218 -0.6222 -0.3783  0.6231
11105TIP3    H254807   2.734   5.709  16.218  0.7080  0.4863  0.0471
11106TIP3   OH254808   6.377   3.907   0.147  0.9218 -0.3154  0.0542
11106TIP3    H154809   6.318   3.964   0.198  0.7302 -0.1490 -0.3523
11106TIP3    H254810   6.432   3.968   0.098  0.7768 -0.4773 -0.3144
11107TIP3   OH254811   3.599   5.714   1.539 -0.5263  0.2519  0.1264
11107TIP3    H154812   3.650   5.787   1.575 -1.6510  2.6693 -2.6767
11107TIP3    H254813   3.519   5.756   1.506 -1.4020 -2.3506 -1.3050
11108TIP3   OH254814   1.793   1.311  10.901 -0.3374  0.2678 -0.1683
11108TIP3    H154815   1.708   1.343  10.932  0.2569 -0.3869  2.3514
11108TIP3    H254816   1.776   1.280  10.812 -2.1983  2.2129 -0.5869
11109TIP3   OH254817   1.469   2.162  14.577  0.0447  0.0554  0.1832
11109TIP3    H154818   1.446   2.073  14.602  2.2557 -1.2045 -1.9021
11109TIP3    H254819   1.434   2.172  14.489  0.0959  1.1473  0.2721
11110TIP3   OH254820   2.929   1.679  11.683 -0.3342 -0.0231 -0.0616
11110TIP3    H154821   3.013   1.635  11.672  0.2353  1.1677 -0.7328
11110TIP3    H254822   2.911   1.718  11.597 -0.1613  2.1041  0.7972
11111TIP3   OH254823   6.261   3.543  16.057  0.0790  0.3524  0.4921
11111TIP3    H154824   6.298   3.519  16.142  0.0712 -2.1201 -0.1151
11111TIP3    H254825   6.329   3.595  16.014  0.2622  1.2327  1.8009
11112TIP3   OH254826   5.469   1.735   5.250 -0.6253  0.1720  0.0151
11112TIP3    H154827   5.437   1.768   5.334  0.3587 -0.5221  0.6866
11112TIP3    H254828   5.487   1.642   5.265  1.8475  0.5369 -0.2322
11113TIP3   OH254829   0.064   5.735   4.790 -0.2734 -0.7326  0.1628
11113TIP3    H154830   0.141   5.747   4.845 -1.0419 -0.4395  1.1949
11113TIP3    H254831   0.014   5.816   4.800 -1.1624 -1.2816  0.2122
11114TIP3   OH254832   3.169   0.459  17.267  0.7505  0.3770  0.4450
11114TIP3    H154833   3.119   0.508  17.333  0.8438  0.9824  0.0712
11114TIP3    H254834   3.102   0.416  17.214  0.5656  2.0696 -0.7331
11115TIP3   OH254835   2.690   0.452  15.596  0.3806  0.1361 -0.2309
11115TIP3    H154836   2.773   0.416  15.627  0.9619  1.8098  0.3096
11115TIP3    H254837   2.622   0.399  15.638  1.1806 -0.0410  0.8667
11116TIP3   OH254838   1.081   2.975  13.548 -0.1262 -0.6066 -0.2860
11116TIP3    H154839   1.027   2.897  13.533 -1.3661  0.5834 -2.6237
11116TIP3    H254840   1.054   3.036  13.479 -1.2224  2.9937  2.9533
11117TIP3   OH254841   5.924   4.966   1.031 -0.1520  0.4672  0.0982
11117TIP3    H154842   5.837   4.934   1.056  0.5895 -0.7731  1.2032
11117TIP3    H254843   5.922   4.967   0.935 -0.3485 -2.7137 -0.0462
11118TIP3   OH254844   5.341   0.915  15.172 -0.4726  0.3383  0.6342
11118TIP3    H154845   5.361   0.822  15.184 -0.5930  0.0794 -0.9497
11118TIP3    H254846   5.422   0.953  15.138 -0.7934  0.5446  0.0798
11119TIP3   OH254847   4.212   6.127  17.088  0.6678  0.0244  0.5876
11119TIP3    H154848   4.218   6.196  17.154  1.5489  0.4592  0.0546
11119TIP3    H254849   4.139   6.154  17.032 -0.2220 -0.4484  1.4715
11120TIP3   OH254850   0.884   3.885  16.062  0.1222 -0.7026  0.2704
11120TIP3    H154851   0.809   3.924  16.107  0.4943 -0.3985  0.6329
11120TIP3    H254852   0.845   3.826  15.998 -0.4283 -0.5356  0.4455
11121TIP3   OH254853   3.015   1.941   5.621  0.3652 -1.0950 -0.1160
11121TIP3    H154854   3.105   1.910   5.625  1.4167  1.6750  0.0906
11121TIP3    H254855   3.011   1.995   5.542 -1.3982 -1.8139 -0.5830
11122TIP3   OH254856   0.858   4.863  12.388 -0.1394  0.4530  0.0661
11122TIP3    H154857   0.766   4.845  12.404 -0.3679  2.0019  0.6411
11122TIP3    H254858   0.874   4.948  12.429  0.8696  1.5681 -2.4629
11123TIP3   OH254859   6.559   5.858   1.725 -0.1295  0.0888 -0.0146
11123TIP3    H154860   6.496   5.902   1.782  0.7288  1.2749  0.0399
11123TIP3    H254861   6.575   5.920   1.654  0.0519 -0.7103 -0.6866
11124TIP3   OH254862   1.190   1.093  13.222  0.1747  0.4540  0.4727
11124TIP3    H154863   1.220   1.110  13.132  0.4846  0.6875  0.6186
11124TIP3    H254864   1.220   1.169  13.271  1.1356 -0.2665  1.0382
11125TIP3   OH254865   3.258   1.717   1.506 -0.3505 -0.1229  0.0518
11125TIP3    H154866   3.268   1.629   1.470 -0.4776  0.3563 -1.1961
11125TIP3    H254867   3.173   1.747   1.474 -0.3336  0.4410  0.5149
11126TIP3   OH254868   6.374   0.944   6.050  0.0833  0.5791 -0.6503
11126TIP3    H154869   6.394   0.952   6.143  0.4007  1.2373 -0.7670
11126TIP3    H254870   6.282   0.917   6.047  0.1591  0.2574 -0.1425
11127TIP3   OH254871   2.248   5.860  17.114  0.1536 -0.6982 -0.1377
11127TIP3    H154872   2.247   5.913  17.034 -0.1989 -0.7057 -0.1411
11127TIP3    H254873   2.285   5.776  17.087  0.5009 -0.5303 -0.1827
11128TIP3   OH254874   0.564   3.990   0.510  0.1761 -0.2846 -0.1061
11128TIP3    H154875   0.611   4.070   0.484 -1.4258  0.1121 -2.0935
11128TIP3    H254876   0.591   3.925   0.445 -1.1114 -0.3506 -0.6030
11129TIP3   OH254877   5.518   1.790  10.691 -0.5463  0.4181 -0.3292
11129TIP3    H154878   5.612   1.778  10.707 -0.3924  1.0909 -0.6828
11129TIP3    H254879   5.508   1.772  10.597 -0.6233  1.1925 -0.4713
11130TIP3   OH254880   6.707   1.121  11.323 -0.6679 -0.5013  0.1069
11130TIP3    H154881   6.639   1.186  11.339  0.3397  0.3278  1.1632
11130TIP3    H254882   6.762   1.123  11.401  0.7775 -0.8995 -0.8504
11131TIP3   OH254883   6.704   1.191  15.628 -0.1482 -0.1459  0.3929
11131TIP3    H154884   6.663   1.236  15.702 -1.4556 -1.4063  0.4853
11131TIP3    H254885   6.768   1.132  15.668 -0.3962 -0.3516  0.4971
11132TIP3   OH254886   0.530   2.007  16.607  0.0698 -0.1810  0.5256
11132TIP3    H154887   0.487   1.932  16.649 -0.9019 -0.5872 -1.0966
11132TIP3    H254888   0.623   1.984  16.606 -0.0421 -0.7149  1.3036
11133TIP3   OH254889   6.108   6.206   4.407  0.4610  0.5410  0.5670
11133TIP3    H154890   6.032   6.263   4.420  1.6258  2.5050 -0.6984
11133TIP3    H254891   6.160   6.219   4.486  0.2922  0.5141  0.6847
11134TIP3   OH254892   1.142   1.089  16.134  0.0132  0.5921 -0.0675
11134TIP3    H154893   1.198   1.029  16.085  0.8290 -0.3653  1.9238
11134TIP3    H254894   1.107   1.148  16.068 -0.1613 -1.5387 -2.0262
11135TIP3   OH254895   3.115   0.413   2.053  0.3823 -0.2356  0.6291
11135TIP3    H154896   3.033   0.460   2.066 -1.0207 -2.0834 -0.9196
11135TIP3    H254897   3.121   0.355   2.129  1.0072  0.8632  1.4442
11136TIP3   OH254898   4.070   6.442   4.134  0.2902  0.2858  0.1238
11136TIP3    H154899   4.026   6.522   4.164  0.7116  1.0050 -1.1024
11136TIP3    H254900   4.114   6.409   4.212  0.0278  1.1936  0.6820
11137TIP3   OH254901   4.096   5.583   2.518 -0.4006  0.8447 -0.3807
11137TIP3    H154902   4.108   5.676   2.540  0.8482  0.6747 -0.2490
11137TIP3    H254903   4.117   5.579   2.424  0.3251  0.5741 -0.2107
11138TIP3   OH254904   0.073   6.536   2.475 -0.2057 -0.4035 -0.5343
11138TIP3    H154905   0.013   6.603   2.442 -0.0458 -0.4331 -0.8976
11138TIP3    H254906   0.047   6.456   2.427 -1.7504 -1.1110  1.3674
11139TIP3   OH254907   2.985   3.023   5.999  0.0634  0.7007 -0.2426
11139TIP3    H154908   3.075   3.048   6.018  0.4054 -0.1219 -0.7352
11139TIP3    H254909   2.988   2.987   5.910 -0.6892  0.3559 -0.1379
11140TIP3   OH254910   1.540   6.177  13.968  0.4058  0.0127  0.3463
11140TIP3    H154911   1.581   6.097  14.001  1.7558  0.4186 -0.2599
11140TIP3    H254912   1.542   6.168  13.873  0.5101  0.7278  0.2733
11141TIP3   OH254913   3.368   2.593  17.022 -0.3154  0.3490  0.1889
11141TIP3    H154914   3.453   2.550  17.024 -0.4352  0.0616 -0.5501
11141TIP3    H254915   3.386   2.682  16.992 -0.5214 -0.4127 -2.4374
11142TIP3   OH254916   2.586   1.469  11.251 -0.6086 -0.1111 -0.7360
11142TIP3    H154917   2.600   1.459  11.345  1.1339  0.9669 -0.8244
11142TIP3    H254918   2.663   1.430  11.211 -0.6195  0.7409 -1.6375
11143TIP3   OH254919   2.302   3.897   2.264  0.1128 -0.3809 -0.2563
11143TIP3    H154920   2.318   3.889   2.170  2.1272  1.6701 -0.1799
11143TIP3    H254921   2.389   3.901   2.304 -0.6815 -0.4100  1.6179
11144TIP3   OH254922   2.674   5.339  10.771 -0.1286  0.5112 -0.1456
11144TIP3    H154923   2.725   5.320  10.692  3.8030  1.3352  1.9107
11144TIP3    H254924   2.673   5.434  10.776 -0.1392  0.4673  0.8639
11145TIP3   OH254925   1.065   2.758  12.341 -0.4689  0.2764 -0.1443
11145TIP3    H154926   1.050   2.832  12.401 -0.3393  1.3258 -1.3522
11145TIP3    H254927   1.116   2.796  12.270  2.9995 -1.8528  1.0093
11146TIP3   OH254928   0.521   2.696   5.202  0.6500 -0.2607  0.1981
11146TIP3    H154929   0.486   2.612   5.230  1.1870  0.0116  1.8008
11146TIP3    H254930   0.615   2.689   5.218  0.9211  0.1218 -1.0926
11147TIP3   OH254931   4.944   1.377  16.509  0.4002 -0.0741 -0.1316
11147TIP3    H154932   4.955   1.441  16.579 -2.3515  1.1096 -0.6714
11147TIP3    H254933   4.964   1.425  16.428 -2.0746  0.3509 -0.5751
11148TIP3   OH254934   1.295   1.279  17.045 -0.3469 -0.6257  0.0076
11148TIP3    H154935   1.272   1.325  16.965 -0.2263  1.2063  0.9749
11148TIP3    H254936   1.360   1.214  17.018 -1.5148 -1.1718 -1.6088
11149TIP3   OH254937   6.599   2.041  16.626 -0.1828  1.1029 -0.1459
11149TIP3    H154938   6.545   1.978  16.578  0.6251  0.3166 -0.0601
11149TIP3    H254939   6.563   2.127  16.603 -1.4142  0.6065 -0.1304
11150TIP3   OH254940   0.943   0.591  13.630 -0.3089  0.2281  0.0201
11150TIP3    H154941   0.990   0.592  13.713  0.4973 -1.3001 -0.3737
11150TIP3    H254942   0.860   0.635  13.649  0.6155  1.5536  1.1372
11151TIP3   OH254943   3.036   2.050   0.194 -0.1222 -0.3796  0.2117
11151TIP3    H154944   2.950   2.010   0.209 -0.0704 -1.4299 -1.9358
11151TIP3    H254945   3.019   2.118   0.128  0.6537 -0.4687 -0.0859
11152TIP3   OH254946   0.295   3.056  12.302  0.1869 -0.3959  0.3382
11152TIP3    H154947   0.255   3.101  12.376 -2.1269 -0.5005 -0.7546
11152TIP3    H254948   0.336   3.126  12.250  2.6792 -0.4141  2.0807
11153TIP3   OH254949   3.621   6.317   3.570 -0.3120 -0.2944 -0.5586
11153TIP3    H154950   3.626   6.256   3.496 -0.4941  1.4327 -2.0704
11153TIP3    H254951   3.687   6.384   3.550 -1.8407  1.3605 -0.3044
11154TIP3   OH254952   6.790   4.423   4.717 -0.1535  0.1231  0.2317
11154TIP3    H154953   6.840   4.418   4.798  1.6124  1.7267 -0.6779
11154TIP3    H254954   6.781   4.517   4.700 -2.1232 -0.1483 -0.4963
11155TIP3   OH254955   0.164   1.578  13.512  0.7380  0.5426  0.1967
11155TIP3    H154956   0.210   1.639  13.570 -0.9836  0.8527  1.2877
11155TIP3    H254957   0.207   1.494  13.527  0.7550  0.7586  1.4431
11156TIP3   OH254958   4.572   3.162   2.521 -0.5270  0.0420  0.2180
11156TIP3    H154959   4.619   3.225   2.576 -1.0621  0.3466  0.3374
11156TIP3    H254960   4.486   3.156   2.561 -0.5949 -0.5034 -0.0040
11157TIP3   OH254961   0.546   1.602   0.271  0.5391 -0.2762 -0.0828
11157TIP3    H154962   0.525   1.689   0.306  1.6827  0.4819 -1.1958
11157TIP3    H254963   0.486   1.543   0.317 -0.5172  1.1332  0.4431
11158TIP3   OH254964   1.501   6.361  16.896 -0.0530 -0.0851  0.0159
11158TIP3    H154965   1.470   6.399  16.814 -1.6404  3.7161  2.1205
11158TIP3    H254966   1.442   6.287  16.912 -1.4838  0.7812 -1.0107
11159TIP3   OH254967   6.161   2.819  16.817 -0.2181 -0.4705  0.2294
11159TIP3    H154968   6.103   2.877  16.867 -2.5411 -1.2452 -1.4178
11159TIP3    H254969   6.190   2.873  16.743  1.1200 -0.1450  0.9454
11160TIP3   OH254970   3.191   2.773  11.097 -0.7192 -0.6791  0.4998
11160TIP3    H154971   3.252   2.734  11.034  0.6459  0.5457  1.0123
11160TIP3    H254972   3.220   2.741  11.182 -0.0479  0.8119  0.8577
11161TIP3   OH254973   5.959   1.206  17.155  0.1831  0.2060  0.4558
11161TIP3    H154974   5.908   1.217  17.074  1.6799  0.6514 -0.4725
11161TIP3    H254975   6.046   1.182  17.124  0.5070 -0.7176  2.0022
11162TIP3   OH254976   0.289   5.963  12.679 -0.3746 -0.5498  0.2058
11162TIP3    H154977   0.377   5.930  12.665 -0.8384 -1.7889  0.0994
11162TIP3    H254978   0.249   5.963  12.592 -0.3160  0.5749  0.1551
11163TIP3   OH254979   2.489   1.754   4.998  0.0581  0.2735  0.4304
11163TIP3    H154980   2.412   1.806   4.973 -0.1280  0.9948  2.3557
11163TIP3    H254981   2.454   1.665   5.008  0.1961 -0.1228 -1.9643
11164TIP3   OH254982   0.608   6.494  16.565  0.3254 -0.2491  0.5988
11164TIP3    H154983   0.578   6.565  16.622  0.0559 -2.2776  3.2264
11164TIP3    H254984   0.702   6.506  16.559 -0.0378  2.6974 -2.6960
11165TIP3   OH254985   2.648   0.733  15.465  0.2285 -0.7413  0.3300
11165TIP3    H154986   2.716   0.667  15.478  1.2126  0.1527 -0.0779
11165TIP3    H254987   2.663   0.766  15.377  0.9021  1.2536  1.1446
11166TIP3   OH254988   6.602   0.367  17.157  0.1695  0.1307 -0.0784
11166TIP3    H154989   6.542   0.437  17.132 -0.1847 -0.5898 -1.3006
11166TIP3    H254990   6.546   0.297  17.190  0.4956  0.2388  0.7443
11167TIP3   OH254991   3.150   3.018   0.912 -0.1847 -0.8328  0.0160
11167TIP3    H154992   3.083   3.082   0.889  0.4381  0.0881  0.6802
11167TIP3    H254993   3.140   2.948   0.847  0.8508  1.1694 -2.5155
11168TIP3   OH254994   6.577   3.963  10.884  0.7112  0.1773  0.0849
11168TIP3    H154995   6.533   3.937  10.965  2.4874 -0.6509  0.8285
11168TIP3    H254996   6.570   3.886  10.827 -1.4113  1.0877 -1.0146
11169TIP3   OH254997   3.152   0.687  10.589 -0.7799  0.3552 -0.3729
11169TIP3    H154998   3.132   0.628  10.516 -0.1976 -0.1446 -0.1326
11169TIP3    H254999   3.187   0.765  10.547  1.5719 -0.7385 -0.5647
11170TIP3   OH255000   1.757   3.551  15.173  0.4230 -0.7158 -0.2469
11170TIP3    H155001   1.811   3.614  15.126 -0.1658  0.4759  0.6469
11170TIP3    H255002   1.672   3.555  15.130  0.2283 -0.5059  0.1583
11171TIP3   OH255003   1.504   5.705  12.390  0.0512 -0.4206 -0.2958
11171TIP3    H155004   1.413   5.727  12.370 -0.1081  1.2508  1.9511
11171TIP3    H255005   1.554   5.743  12.317 -1.0865 -3.3228 -2.7996
11172TIP3   OH255006   6.010   0.873   6.374  0.4875 -0.1584  0.3582
11172TIP3    H155007   6.030   0.961   6.406  0.8027  0.1418 -0.6365
11172TIP3    H255008   6.095   0.835   6.352  0.2950 -0.4452  0.1015
11173TIP3   OH255009   3.336   3.556  17.116  0.3364 -0.0265 -0.3267
11173TIP3    H155010   3.255   3.605  17.102 -0.0550 -0.5336  0.1326
11173TIP3    H255011   3.330   3.482  17.055  1.7952  1.4778 -2.4099
11174TIP3   OH255012   4.245   6.604   0.822  0.0164 -0.0806 -0.2698
11174TIP3    H155013   4.196   6.686   0.832 -0.1159 -0.2944  0.8980
11174TIP3    H255014   4.193   6.539   0.868 -0.0828 -0.9286 -1.5304
11175TIP3   OH255015   6.591   2.276  11.149 -0.0916 -0.2391  0.9170
11175TIP3    H155016   6.545   2.301  11.069  1.8560  2.5359  0.5267
11175TIP3    H255017   6.639   2.197  11.124 -0.2892  0.0177 -0.3588
11176TIP3   OH255018   5.865   5.620  11.748  0.0830 -0.6467 -1.1172
11176TIP3    H155019   5.925   5.685  11.785  0.8837 -1.3301 -1.1625
11176TIP3    H255020   5.782   5.636  11.792  0.7787 -0.8676  0.3552
11177TIP3   OH255021   4.295   1.143   1.932  0.1227  0.0417  0.0098
11177TIP3    H155022   4.252   1.194   1.863  1.6727 -0.3013 -1.2650
11177TIP3    H255023   4.311   1.207   2.002  1.7569  1.2946 -1.4370
11178TIP3   OH255024   2.040   1.189  11.457  0.1698 -0.3739  0.4836
11178TIP3    H155025   2.061   1.126  11.388  0.8986  0.4396 -0.0668
11178TIP3    H255026   1.977   1.248  11.417  1.1163  0.5164  0.2465
11179TIP3   OH255027   5.922   4.630  12.787 -0.7822 -0.0600  0.6633
11179TIP3    H155028   5.909   4.544  12.828  1.8972 -0.8345  0.0958
11179TIP3    H255029   5.932   4.690  12.861 -2.1503 -0.3106  1.0680
11180TIP3   OH255030   0.435   2.422   3.265 -0.3283 -0.4093  0.5591
11180TIP3    H155031   0.475   2.473   3.195 -1.4179 -1.1621 -0.6520
11180TIP3    H255032   0.440   2.479   3.342  1.5243  0.1587  0.0697
11181TIP3   OH255033   4.511   4.099  16.387 -0.1214  0.0043 -0.1296
11181TIP3    H155034   4.418   4.077  16.374 -0.0843 -1.9284  2.1999
11181TIP3    H255035   4.516   4.193  16.368 -2.3270 -0.0415 -1.2999
11182TIP3   OH255036   1.268   2.065  12.860 -0.0450  0.4003 -0.4670
11182TIP3    H155037   1.345   2.056  12.917 -0.0256 -0.4658 -0.6245
11182TIP3    H255038   1.255   1.978  12.824 -0.6814  0.7120 -0.9932
11183TIP3   OH255039   1.609   5.719  13.579 -0.1449 -0.2551  0.0214
11183TIP3    H155040   1.607   5.634  13.623 -1.7167  0.1124  0.7140
11183TIP3    H255041   1.518   5.748  13.578  0.1746  0.8181 -1.4230
11184TIP3   OH255042   2.421   2.505   0.539  0.4651  0.4567 -0.2949
11184TIP3    H155043   2.464   2.438   0.485  2.2725  0.9542  0.4446
11184TIP3    H255044   2.369   2.556   0.478  1.8768  0.5448 -1.4627
11185TIP3   OH255045   2.181   3.272   5.217  0.1646  0.0329 -0.0584
11185TIP3    H155046   2.114   3.334   5.242 -0.1480 -0.7642  1.1780
11185TIP3    H255047   2.212   3.302   5.132 -0.3993  1.5085  0.2421
11186TIP3   OH255048   0.785   4.821  15.332  0.0636 -1.0072  0.2321
11186TIP3    H155049   0.835   4.783  15.403  0.1303 -0.2867  0.5735
11186TIP3    H255050   0.835   4.800  15.253  0.6360 -0.7410  0.5188
11187TIP3   OH255051   2.286   6.133  11.245 -0.0610 -0.0160 -0.1459
11187TIP3    H155052   2.311   6.223  11.222 -2.5520 -0.2265 -4.8053
11187TIP3    H255053   2.329   6.079  11.179 -0.0207 -2.1546  1.5212
11188TIP3   OH255054   2.139   1.572  12.176 -0.0897  0.2403 -0.0752
11188TIP3    H155055   2.170   1.660  12.156  3.0237 -0.8916 -0.8235
11188TIP3    H255056   2.116   1.535  12.091  2.1081 -0.7718 -0.3063
11189TIP3   OH255057   1.742   0.450   5.493 -0.1927 -0.7359 -0.8971
11189TIP3    H155058   1.813   0.469   5.555 -0.2811 -5.0639  0.9032
11189TIP3    H255059   1.776   0.378   5.439 -2.0943 -0.7316 -2.1903
11190TIP3   OH255060   2.081   3.183  16.103  0.3643 -0.2779 -0.0838
11190TIP3    H155061   2.040   3.178  16.189 -1.2528 -0.5437 -0.8295
11190TIP3    H255062   2.019   3.140  16.044  2.2624 -1.7679 -1.1041
11191TIP3   OH255063   2.525   5.711   5.055 -0.1954 -0.0137  0.1749
11191TIP3    H155064   2.580   5.780   5.092 -0.7472  0.7495 -0.3822
11191TIP3    H255065   2.447   5.757   5.024  0.1847 -0.6232 -1.8245
11192TIP3   OH255066   5.980   3.218   5.018  0.1410 -0.3004 -0.3023
11192TIP3    H155067   5.887   3.208   4.998  0.1020  0.5002 -0.5761
11192TIP3    H255068   6.020   3.136   4.990 -0.4340 -0.5263 -0.4786
11193TIP3   OH255069   6.397   6.419   4.982  0.1426  0.3461  0.1835
11193TIP3    H155070   6.386   6.425   5.077  0.3045  2.9086  0.1037
11193TIP3    H255071   6.398   6.510   4.952 -1.9016 -0.3953 -2.5189
11194TIP3   OH255072   4.637   5.827  17.034  0.2580 -0.5518  0.4757
11194TIP3    H155073   4.587   5.783  16.965  0.8173  0.5935 -0.7229
11194TIP3    H255074   4.591   5.911  17.046  1.0317 -0.1101  0.4023
11195TIP3   OH255075   6.320   2.795  14.052 -0.4399  0.5792 -0.6143
11195TIP3    H155076   6.314   2.732  14.124  0.1615  0.6393 -0.5059
11195TIP3    H255077   6.258   2.864  14.076 -2.7935 -1.0059 -1.8149
11196TIP3   OH255078   1.534   0.700  16.299  0.2266 -0.2316 -0.5274
11196TIP3    H155079   1.527   0.670  16.208  0.3794 -0.1647 -0.5603
11196TIP3    H255080   1.444   0.723  16.323  0.2482  0.1271 -0.7876
11197TIP3   OH255081   2.301   2.374  13.969  0.3110  0.0024  0.1819
11197TIP3    H155082   2.272   2.436  13.901  0.3955 -2.0881 -1.8741
11197TIP3    H255083   2.390   2.350  13.943  0.6263 -0.2919  1.4854
11198TIP3   OH255084   2.306   2.283  16.583 -0.1342 -0.8140  0.0445
11198TIP3    H155085   2.331   2.300  16.674 -2.0017  1.3754  0.2622
11198TIP3    H255086   2.268   2.366  16.553  0.9190 -1.2757 -2.9469
11199TIP3   OH255087   1.054   1.296   3.120 -0.5756 -0.0990 -0.7282
11199TIP3    H155088   1.094   1.283   3.206 -0.7809 -0.6035 -0.7056
11199TIP3    H255089   1.104   1.368   3.081  0.5734 -0.9350 -0.8391
11200TIP3   OH255090   0.260   2.057   3.697 -0.0307 -0.5687  0.1874
11200TIP3    H155091   0.267   2.056   3.792  0.9453  0.3847  0.1369
11200TIP3    H255092   0.198   1.986   3.677 -1.2597  0.0694  1.6003
11201TIP3   OH255093   5.076   2.523  11.468  0.0798  0.5604 -0.1889
11201TIP3    H155094   5.021   2.553  11.540 -0.2452 -0.4603  0.0127
11201TIP3    H255095   5.021   2.531  11.390 -0.0739  0.3082 -0.1067
11202TIP3   OH255096   5.981   6.129   5.145  0.3469  0.0486  0.1868
11202TIP3    H155097   5.914   6.116   5.078  0.3479  1.0757 -0.0353
11202TIP3    H255098   5.935   6.116   5.228 -0.1468  0.7374  0.0367
11203TIP3   OH255099   1.183   0.019  15.632 -0.0782  0.0371  0.2274
11203TIP3    H155100   1.165  -0.005  15.541 -0.6252  0.4256  0.2272
11203TIP3    H255101   1.166   0.113  15.635  0.9156  0.2153  0.5004
11204TIP3   OH255102   5.595   5.260   1.154 -0.1880 -0.0600 -0.3213
11204TIP3    H155103   5.634   5.191   1.208  0.4475  0.1957 -0.4454
11204TIP3    H255104   5.501   5.251   1.169 -0.0038  0.3428  1.2290
11205TIP3   OH255105   0.030   5.857  13.129 -0.2106 -0.1688  0.5973
11205TIP3    H155106  -0.007   5.796  13.192  1.6284  0.3898  2.3329
11205TIP3    H255107   0.123   5.835  13.125  0.3157  1.8007  0.5014
11206TIP3   OH255108   2.454   6.323  11.618 -0.3159  0.3776 -0.3148
11206TIP3    H155109   2.372   6.278  11.598 -0.2916 -0.3008  1.0399
11206TIP3    H255110   2.432   6.384  11.688  0.2346  0.5567 -0.2899
11207TIP3   OH255111   5.631   6.569  14.724 -0.1254 -0.1497 -0.2127
11207TIP3    H155112   5.646   6.661  14.742  1.2906 -0.1668 -1.1423
11207TIP3    H255113   5.660   6.524  14.803 -1.4933  0.2175  0.5273
11208TIP3   OH255114   3.858   1.508   4.553 -0.0843  0.6708  0.1075
11208TIP3    H155115   3.856   1.604   4.555 -1.8153  0.6728 -0.2204
11208TIP3    H255116   3.882   1.486   4.463 -1.5821  0.8270 -0.3542
11209TIP3   OH255117   0.342   1.313  11.477  0.3448  0.0765 -0.1021
11209TIP3    H155118   0.356   1.252  11.549  0.6149 -1.8687 -1.7166
11209TIP3    H255119   0.338   1.258  11.399 -1.0467  1.9944 -1.4788
11210TIP3   OH255120   1.296   1.862   3.315 -0.1750  0.0522 -0.0369
11210TIP3    H155121   1.289   1.919   3.392 -0.0933 -0.4247  0.3313
11210TIP3    H255122   1.209   1.821   3.309 -0.4158  0.6296 -0.6362
11211TIP3   OH255123   5.955   5.760  15.933 -0.1603 -0.8305  0.2178
11211TIP3    H155124   5.867   5.782  15.964 -0.2854 -0.0636 -0.6404
11211TIP3    H255125   5.947   5.672  15.897 -0.8971 -0.2753 -1.0271
11212TIP3   OH255126   4.911   5.605   3.328 -0.3186 -0.2662  0.1914
11212TIP3    H155127   4.901   5.676   3.265  0.2401  0.7896  1.2568
11212TIP3    H255128   4.859   5.632   3.403 -0.8708 -1.4525  0.2484
11213TIP3   OH255129   5.223   6.255  13.482 -0.0803 -0.2471 -0.3033
11213TIP3    H155130   5.308   6.267  13.523  0.4879 -1.1068 -1.1899
11213TIP3    H255131   5.234   6.289  13.393 -0.6621 -0.3907 -0.4365
11214TIP3   OH255132   5.464   1.020  11.836 -0.3660  0.6120 -0.3096
11214TIP3    H155133   5.456   1.091  11.772 -0.2352  1.0469  0.1529
11214TIP3    H255134   5.423   1.054  11.915  0.1246  0.3507  0.0620
11215TIP3   OH255135   3.589   2.577   6.422 -0.2864  0.4372  0.5209
11215TIP3    H155136   3.671   2.622   6.443  0.1458 -0.0708 -0.0541
11215TIP3    H255137   3.545   2.633   6.359 -0.4671  0.7928  0.9574
11216TIP3   OH255138   4.821   1.654  16.167  0.2689 -0.0543  0.3455
11216TIP3    H155139   4.886   1.716  16.198 -0.2142 -0.4437  2.2784
11216TIP3    H255140   4.773   1.701  16.098  0.8075  1.1946  0.7962
11217TIP3   OH255141   2.748   5.331  13.249  0.5700  0.1762 -0.0633
11217TIP3    H155142   2.718   5.295  13.333 -1.4728  2.2176  0.2026
11217TIP3    H255143   2.777   5.420  13.271  1.0548  0.3526 -1.3561
11218TIP3   OH255144   1.810   3.865   0.814  0.6030  0.3164 -0.1241
11218TIP3    H155145   1.724   3.902   0.796  1.0928  0.7958 -1.5966
11218TIP3    H255146   1.792   3.775   0.842 -0.4298  0.8085  0.8613
11219TIP3   OH255147   1.999   2.981   5.225  0.1912  0.2061  0.3326
11219TIP3    H155148   2.008   3.040   5.150  0.3385  0.7746  0.7913
11219TIP3    H255149   1.967   3.037   5.296 -0.5521 -0.4553  0.5257
11220TIP3   OH255150   6.153   2.331   5.940 -0.2801 -0.2741 -0.1549
11220TIP3    H155151   6.222   2.269   5.915 -0.8702 -1.5601  1.2225
11220TIP3    H255152   6.195   2.390   6.002 -0.1212 -0.3631 -0.1771
11221TIP3   OH255153   0.153   0.141  16.644 -0.3671  0.0893  0.3416
11221TIP3    H155154   0.212   0.141  16.720 -1.3729  1.5964  1.1712
11221TIP3    H255155   0.074   0.096  16.675 -1.0321  1.2794  0.4213
11222TIP3   OH255156   5.253   4.457  11.507 -0.1483  0.3234 -0.0900
11222TIP3    H155157   5.224   4.376  11.466  1.4289 -0.3947  0.1598
11222TIP3    H255158   5.255   4.521  11.435  1.6010 -0.6606 -0.9807
11223TIP3   OH255159   5.651   4.770   0.485 -0.0541 -0.0738 -0.0163
11223TIP3    H155160   5.639   4.692   0.430  1.3308 -1.4439  1.4973
11223TIP3    H255161   5.663   4.735   0.574 -0.1435  1.9254  0.8392
11224TIP3   OH255162   0.638   0.350  16.122 -0.5343 -0.2177 -0.4946
11224TIP3    H155163   0.617   0.341  16.029  0.1001 -3.3084 -0.4562
11224TIP3    H255164   0.559   0.320  16.167 -0.6247  0.7054 -0.0071
11225TIP3   OH255165   1.813   4.194  11.976 -0.1914 -0.3439  0.3072
11225TIP3    H155166   1.765   4.168  11.897 -1.3256  1.7006  0.2408
11225TIP3    H255167   1.754   4.173  12.048 -0.8710  1.3313  0.2903
11226TIP3   OH255168   0.523   5.889   0.300  0.5275 -0.0126 -0.0143
11226TIP3    H155169   0.494   5.850   0.218  0.2425  0.8873 -0.3495
11226TIP3    H255170   0.611   5.923   0.281  0.8633 -0.6558  0.3366
11227TIP3   OH255171   4.410   4.708  15.210 -0.0295 -0.2602  0.2261
11227TIP3    H155172   4.472   4.754  15.154 -0.7446  1.6421  0.9023
11227TIP3    H255173   4.452   4.624  15.229  0.9127 -0.3087 -1.8234
11228TIP3   OH255174   1.712   6.361   3.867 -0.4385  0.3614  0.3757
11228TIP3    H155175   1.679   6.344   3.778 -1.2831  0.2622  0.6970
11228TIP3    H255176   1.713   6.275   3.908  0.1554  0.3770  0.4024
11229TIP3   OH255177   4.336   3.295  14.482  0.0382  0.5858  0.5293
11229TIP3    H155178   4.295   3.213  14.511 -0.0819  0.5021  0.1296
11229TIP3    H255179   4.349   3.345  14.563 -0.6124  0.4993  0.6921
11230TIP3   OH255180   0.072   5.076  16.048  0.1073 -0.0456  0.1132
11230TIP3    H155181   0.055   5.090  16.141 -0.4289 -1.7082  0.2905
11230TIP3    H255182   0.167   5.065  16.043 -0.0482 -2.2543  0.8537
11231TIP3   OH255183   1.824   6.128   2.431  0.1019  0.1655  0.4440
11231TIP3    H155184   1.847   6.113   2.523  1.2275 -2.6064 -0.1741
11231TIP3    H255185   1.907   6.122   2.385 -0.6092  0.2075 -0.8862
11232TIP3   OH255186   5.574   6.261   5.330 -0.0037 -0.2513  0.5310
11232TIP3    H155187   5.617   6.344   5.309  2.8024 -1.4974  0.7807
11232TIP3    H255188   5.622   6.196   5.278 -0.9799 -1.9215  1.6313
11233TIP3   OH255189   1.471   0.388   0.671 -0.3691  1.1171 -0.3092
11233TIP3    H155190   1.512   0.344   0.596 -1.9798  1.7019 -1.5742
11233TIP3    H255191   1.385   0.348   0.679  0.7643 -1.1174  3.2309
11234TIP3   OH255192   6.364   0.906   5.347 -0.2513 -0.2521 -0.1786
11234TIP3    H155193   6.390   0.930   5.436 -1.4532 -0.6656  0.2943
11234TIP3    H255194   6.325   0.986   5.311 -1.1607 -0.5103  0.2117
11235TIP3   OH255195   5.798   0.172  12.608  0.2062 -0.6431 -0.3665
11235TIP3    H155196   5.813   0.266  12.618 -1.3287 -0.3455 -0.6578
11235TIP3    H255197   5.881   0.139  12.576  1.6100  0.1752  2.1371
11236TIP3   OH255198   3.304   5.077   1.242 -0.1834 -0.3600  0.1203
11236TIP3    H155199   3.282   5.168   1.222  1.3730  0.1782  0.6977
11236TIP3    H255200   3.243   5.051   1.312 -2.0993 -0.5231 -1.5157
11237TIP3   OH255201   1.398   5.059   2.801  0.1254 -0.2733  0.2172
11237TIP3    H155202   1.332   4.991   2.816 -1.4310  1.5275  2.3242
11237TIP3    H255203   1.481   5.019   2.827 -0.7658 -1.3624  1.5624
11238TIP3   OH255204   6.365   0.487   0.201  0.0694  0.1045  0.3036
11238TIP3    H155205   6.319   0.565   0.233  0.8903  0.8411 -0.2550
11238TIP3    H255206   6.429   0.522   0.139  0.0544 -1.0804 -0.3984
11239TIP3   OH255207   3.545   5.305   2.778  0.5576 -0.1944 -0.1635
11239TIP3    H155208   3.601   5.328   2.704  2.2506 -2.8612  0.1348
11239TIP3    H255209   3.595   5.332   2.855 -0.2074  0.5945  0.0681
11240TIP3   OH255210   2.716   5.429  12.281  0.8426  0.4965  0.3776
11240TIP3    H155211   2.735   5.408  12.190  0.4373 -0.8468  0.5802
11240TIP3    H255212   2.752   5.356  12.331  0.4224  0.8559  1.2401
11241TIP3   OH255213   1.476   2.874  16.845  0.1393 -0.6604 -0.0294
11241TIP3    H155214   1.528   2.837  16.917 -1.2332  0.4562  1.6396
11241TIP3    H255215   1.397   2.908  16.888 -1.3767 -1.1420 -2.2750
11242TIP3   OH255216   3.889   1.935  14.579 -0.1206  0.8643  0.2542
11242TIP3    H155217   3.830   1.955  14.505 -1.5572 -0.5102  0.9593
11242TIP3    H255218   3.976   1.934  14.540 -0.4746  3.2691 -0.7823
11243TIP3   OH255219   3.770   0.661  12.931 -0.5865 -0.0073 -0.5110
11243TIP3    H155220   3.830   0.600  12.975 -0.5805 -0.7460 -1.5057
11243TIP3    H255221   3.786   0.648  12.838 -0.1296  2.0061 -0.7620
11244TIP3   OH255222   5.409   1.471  12.476 -0.0815  0.1302  0.4128
11244TIP3    H155223   5.486   1.433  12.518 -0.9536 -0.2122  1.7617
11244TIP3    H255224   5.386   1.546  12.530 -1.7222 -0.8075  1.0982
11245TIP3   OH255225   0.671   1.143  11.896  0.0349  0.3202 -0.3570
11245TIP3    H155226   0.648   1.052  11.914 -2.0534  0.6883 -0.9124
11245TIP3    H255227   0.598   1.176  11.844  0.2504  2.5983  0.6874
11246TIP3   OH255228   1.320   3.548  13.350  0.1675  1.2057  0.4988
11246TIP3    H155229   1.337   3.606  13.276 -0.0053  3.1222  1.8706
11246TIP3    H255230   1.391   3.567  13.411  0.1389 -0.1083  0.9588
11247TIP3   OH255231   2.811   0.393   1.520  0.5018  0.3910 -0.0375
11247TIP3    H155232   2.812   0.298   1.524 -0.1282  0.3657 -0.3506
11247TIP3    H255233   2.775   0.421   1.604 -2.3990  0.2208 -1.0932
11248TIP3   OH255234   6.370   1.088  15.895 -0.0491 -0.8883  0.2719
11248TIP3    H155235   6.275   1.087  15.897 -0.1188 -2.2950 -1.3154
11248TIP3    H255236   6.394   1.024  15.828  1.9941 -0.0135  0.0574
11249TIP3   OH255237   0.573   2.858  16.626  0.0963 -0.5272  0.0444
11249TIP3    H155238   0.599   2.950  16.615 -0.6310 -0.4898 -1.7102
11249TIP3    H255239   0.587   2.840  16.719  2.6729  0.5798 -0.0583
11250TIP3   OH255240   4.044   4.046   0.689  0.0556 -0.2514 -0.1105
11250TIP3    H155241   3.951   4.059   0.676  0.0599  1.1219  1.0071
11250TIP3    H255242   4.053   4.024   0.782  0.8264 -0.4878 -0.2310
11251TIP3   OH255243   3.672   1.621   4.885  0.2785  0.3700 -0.1947
11251TIP3    H155244   3.735   1.645   4.953 -1.0913  1.9673  0.5743
11251TIP3    H255245   3.671   1.695   4.825 -0.6168  0.2290 -0.3768
11252TIP3   OH255246   4.685   5.685   5.894 -0.2331 -0.0191  0.1772
11252TIP3    H155247   4.668   5.692   5.800 -1.7053 -0.5198  0.3884
11252TIP3    H255248   4.602   5.658   5.932 -0.0846  1.6058  1.8218
11253TIP3   OH255249   5.810   3.352   6.541  0.2523  0.4016  0.4111
11253TIP3    H155250   5.875   3.348   6.611 -0.9249 -0.6889  1.4928
11253TIP3    H255251   5.840   3.287   6.477  0.0963 -0.2843  1.0284
11254TIP3   OH255252   4.360   6.433   3.531  0.5115  0.5518 -0.0026
11254TIP3    H155253   4.389   6.514   3.573  1.2073 -0.3914  1.3960
11254TIP3    H255254   4.264   6.440   3.530  0.5314  1.0740  0.7881
11255TIP3   OH255255   6.236   4.529  14.639  0.6432 -0.5035  0.2432
11255TIP3    H155256   6.178   4.605  14.624  0.4873 -0.4296  1.1918
11255TIP3    H255257   6.244   4.489  14.552  1.1943  0.9231 -0.4062
11256TIP3   OH255258   6.045   3.368   0.741 -0.0514 -0.0403  0.6000
11256TIP3    H155259   6.106   3.393   0.671 -0.2767 -2.1062 -0.4220
11256TIP3    H255260   6.008   3.285   0.711 -4.1346  1.5361  0.7332
11257TIP3   OH255261   5.132   1.508  14.851  0.6716  0.1366 -0.6135
11257TIP3    H155262   5.072   1.532  14.780  0.9420 -0.4529 -1.0419
11257TIP3    H255263   5.110   1.418  14.872 -1.5116  1.1647  2.1640
11258TIP3   OH255264   6.001   3.757   3.376  0.3035 -0.0549 -0.2749
11258TIP3    H155265   6.021   3.843   3.414  0.7512 -0.1815 -0.2161
11258TIP3    H255266   6.029   3.694   3.442 -2.6283 -0.2438  0.9455
11259TIP3   OH255267   4.309   0.597   4.028  0.3811 -0.5626  0.0631
11259TIP3    H155268   4.372   0.669   4.029 -0.3527  0.1015 -0.2655
11259TIP3    H255269   4.225   0.639   4.043 -0.0771 -1.3404 -0.2798
11260TIP3   OH255270   1.447   6.144   1.300 -0.0803  0.3615 -0.0585
11260TIP3    H155271   1.403   6.099   1.372  1.3756 -1.3526 -0.1593
11260TIP3    H255272   1.509   6.079   1.266  2.0894  2.3964 -0.2855
11261TIP3   OH255273   3.107   0.380  14.883  0.3315 -0.0942 -0.3879
11261TIP3    H155274   3.076   0.437  14.813 -0.5990 -0.4858 -0.3044
11261TIP3    H255275   3.107   0.434  14.961 -2.7270 -0.7382  0.1685
11262TIP3   OH255276   0.687   4.972  14.696 -0.3815  0.1859  0.2146
11262TIP3    H155277   0.706   4.989  14.789  0.0410 -0.0602  0.1775
11262TIP3    H255278   0.757   5.018  14.649 -1.1555  1.1543 -0.0348
11263TIP3   OH255279   3.445   4.565   5.047 -0.6713  0.2027 -0.3836
11263TIP3    H155280   3.461   4.596   5.136  0.3785 -2.1122  0.3145
11263TIP3    H255281   3.528   4.581   5.001 -1.2653  1.5555 -1.0583
11264TIP3   OH255282   6.074   4.153  12.128  0.3652  0.5980 -0.0641
11264TIP3    H155283   6.082   4.080  12.066  0.6558  0.8804 -0.3634
11264TIP3    H255284   5.985   4.145  12.163  0.3116  0.2453 -0.2783
11265TIP3   OH255285   1.020   6.615  13.678  0.4169  0.2686  0.0850
11265TIP3    H155286   0.954   6.675  13.713 -0.5241 -0.1890 -0.8618
11265TIP3    H255287   1.104   6.655  13.702 -0.1291 -0.1348  3.0726
11266TIP3   OH255288   6.274   2.776   6.044  0.8119 -0.4342 -0.1009
11266TIP3    H155289   6.265   2.866   6.011  2.6519 -0.2054 -0.0973
11266TIP3    H255290   6.199   2.764   6.101 -0.9731  0.1403 -2.1843
11267TIP3   OH255291   2.309   5.267   2.673  0.7026  0.1748 -0.1391
11267TIP3    H155292   2.362   5.315   2.609  3.5075 -0.4160  1.5591
11267TIP3    H255293   2.305   5.326   2.749 -0.6164 -0.0399 -0.0327
11268TIP3   OH255294   2.652   2.022  12.459  1.1783 -0.3938 -0.7751
11268TIP3    H155295   2.586   2.024  12.390  0.2381 -1.4245  0.0594
11268TIP3    H255296   2.719   1.962  12.427  1.3691  0.1027 -1.3187
11269TIP3   OH255297   1.830   1.638  11.732 -0.1031  0.2499  0.5054
11269TIP3    H155298   1.789   1.724  11.727 -1.1202 -0.2254  0.4937
11269TIP3    H255299   1.865   1.623  11.644 -2.3005 -0.4837 -0.2942
11270TIP3   OH255300   2.832   2.324  15.567  0.5711  0.5674 -0.2433
11270TIP3    H155301   2.747   2.360  15.591 -0.2762 -2.0651  1.0671
11270TIP3    H255302   2.812   2.254  15.505  1.8695  0.3627 -0.4717
11271TIP3   OH255303   6.076   0.447  11.654  0.2535  0.6046 -0.4090
11271TIP3    H155304   6.162   0.458  11.694  0.2784  1.7289 -0.7333
11271TIP3    H255305   6.096   0.419  11.564  0.1861 -2.9632  0.5412
11272TIP3   OH255306   0.502   5.457  11.473  0.4532 -0.6842 -0.4755
11272TIP3    H155307   0.550   5.530  11.434  1.2651 -0.4195  0.9706
11272TIP3    H255308   0.562   5.420  11.538  0.2676 -2.9956 -1.5253
11273TIP3   OH255309   2.787   3.940  13.923  0.0509  0.1221 -0.2249
11273TIP3    H155310   2.750   4.023  13.953 -2.2467 -0.9269  0.0972
11273TIP3    H255311   2.795   3.951  13.828 -1.3644  0.3572 -0.3480
11274TIP3   OH255312   6.175   0.483  14.376 -0.1649 -0.3796 -0.5940
11274TIP3    H155313   6.092   0.460  14.336 -0.0857 -0.2356 -0.8421
11274TIP3    H255314   6.208   0.400  14.413  0.0445 -0.6410 -1.3462
11275TIP3   OH255315   6.438   2.010   5.163  0.1368 -0.4902  0.2318
11275TIP3    H155316   6.530   1.994   5.143 -0.0704 -2.3999  0.6879
11275TIP3    H255317   6.437   2.038   5.254  0.2188 -1.0792  0.4157
11276TIP3   OH255318   2.620   4.367  16.767  0.2560  0.1236 -0.5388
11276TIP3    H155319   2.672   4.299  16.725  1.1616  0.7174 -0.4007
11276TIP3    H255320   2.556   4.319  16.820  2.4688 -0.6959  1.6122
11277TIP3   OH255321   2.223   5.603  11.845  0.0046  0.2381 -0.4449
11277TIP3    H155322   2.294   5.596  11.909  0.1665  0.4767 -0.5977
11277TIP3    H255323   2.191   5.693  11.854  0.9781  0.7493 -1.6867
11278TIP3   OH255324   5.647   3.857   4.863  0.3181  0.3034 -0.1284
11278TIP3    H155325   5.683   3.857   4.951  1.6324  0.5430 -0.6381
11278TIP3    H255326   5.720   3.886   4.807 -0.6265  0.6422 -1.2319
11279TIP3   OH255327   0.015   1.561  13.748  0.4774  0.5321  0.4372
11279TIP3    H155328   0.068   1.501  13.800 -1.6426 -1.1858  0.7679
11279TIP3    H255329   0.064   1.571  13.666  0.3710 -2.7262 -0.1584
11280TIP3   OH255330   3.741   3.193   5.950  0.8295  0.3984  0.3387
11280TIP3    H155331   3.670   3.155   6.001  0.9496 -0.1535  0.1002
11280TIP3    H255332   3.699   3.259   5.896  0.6181  0.6041  0.7453
11281TIP3   OH255333   2.939   0.237   3.856  0.0349 -0.1744  0.1059
11281TIP3    H155334   2.846   0.248   3.878  0.0992  1.1890 -0.2409
11281TIP3    H255335   2.945   0.259   3.763  0.9343  1.2735  0.4735
11282TIP3   OH255336   2.401   4.563  16.344 -0.3531 -0.5447  0.0980
11282TIP3    H155337   2.448   4.491  16.301 -2.5703 -1.0686 -1.6188
11282TIP3    H255338   2.347   4.520  16.410  0.7470 -0.0522  1.3596
11283TIP3   OH255339   6.185   4.670   3.692  1.0063 -0.4578 -0.1240
11283TIP3    H155340   6.249   4.740   3.681 -0.7411  0.9594 -2.1353
11283TIP3    H255341   6.143   4.662   3.606 -1.9908 -0.8031  1.2466
11284TIP3   OH255342   3.297   3.266   6.676  0.0082 -0.6646  0.3409
11284TIP3    H155343   3.374   3.323   6.688  0.3135 -0.4184 -2.2305
11284TIP3    H255344   3.332   3.178   6.684  0.4149 -0.5411 -0.0237
11285TIP3   OH255345   2.213   4.385  13.842  0.2183 -0.3888  0.3106
11285TIP3    H155346   2.169   4.466  13.869 -1.6255 -1.0327 -0.6436
11285TIP3    H255347   2.182   4.320  13.904  0.2127 -0.7699 -0.0950
11286TIP3   OH255348   5.098   2.490  15.675  0.4955  0.3965  0.5586
11286TIP3    H155349   5.016   2.535  15.654  0.2077 -0.8262 -1.2034
11286TIP3    H255350   5.076   2.432  15.748  0.0596  0.8229  0.7682
11287TIP3   OH255351   3.746   4.930  15.239 -0.3319  0.1945 -0.2910
11287TIP3    H155352   3.829   4.899  15.203 -0.0872  0.7256 -0.1825
11287TIP3    H255353   3.689   4.939  15.162 -0.3913 -0.4496 -0.3359
11288TIP3   OH255354   3.189   0.862   5.262  0.2319 -0.2266 -0.0139
11288TIP3    H155355   3.176   0.848   5.168  1.1523  0.1851 -0.2099
11288TIP3    H255356   3.234   0.783   5.292  0.5224 -0.0786 -0.0536
11289TIP3   OH255357   0.538   1.368  15.963  0.1946  0.2432 -1.1890
11289TIP3    H155358   0.489   1.349  15.883  0.2019  0.6558 -1.2964
11289TIP3    H255359   0.614   1.311  15.958  0.1800  0.2432 -1.4648
11290TIP3   OH255360   4.538   6.449  16.625  0.1863 -0.1716 -0.1443
11290TIP3    H155361   4.553   6.486  16.537  0.9284 -1.0811 -0.4171
11290TIP3    H255362   4.496   6.365  16.608  1.9006 -1.1651  0.2480
11291TIP3   OH255363   4.159   0.904   5.005 -0.0517 -0.1716  0.0900
11291TIP3    H155364   4.223   0.923   4.937 -0.4560  2.0211  0.2509
11291TIP3    H255365   4.129   0.815   4.986  2.2176 -0.8302 -0.6110
11292TIP3   OH255366   6.023   4.949   3.970  0.2714  0.1408 -0.2856
11292TIP3    H155367   5.974   4.867   3.982  0.1346  0.4065  1.1495
11292TIP3    H255368   6.114   4.925   3.985  0.2591  0.1860 -0.1306
11293TIP3   OH255369   3.808   2.137   3.645  0.4937 -0.1827 -0.8497
11293TIP3    H155370   3.772   2.081   3.576  0.1353  0.9161 -1.5790
11293TIP3    H255371   3.777   2.225   3.623 -0.7011  0.0419  1.4194
11294TIP3   OH255372   3.755   5.460  11.581 -0.5579 -0.3717  0.2487
11294TIP3    H155373   3.841   5.427  11.610 -0.2765  0.5293  0.4645
11294TIP3    H255374   3.695   5.431  11.649  0.2259  2.4368  2.3021
11295TIP3   OH255375   3.170   6.383   2.169 -0.2864  0.0283  0.2621
11295TIP3    H155376   3.237   6.437   2.210 -1.3500  0.8901  0.9061
11295TIP3    H255377   3.172   6.407   2.077  0.7831 -0.5033  0.1277
11296TIP3   OH255378   4.858   6.738   3.671 -0.3536 -0.2517 -0.0494
11296TIP3    H155379   4.911   6.792   3.730 -1.8740 -0.2290  1.4022
11296TIP3    H255380   4.845   6.657   3.720 -0.7588 -0.6602 -0.8291
11297TIP3   OH255381   0.345   3.142   6.563  0.1525  0.6238 -0.7294
11297TIP3    H155382   0.362   3.113   6.653  0.2731 -1.7816 -1.4429
11297TIP3    H255383   0.270   3.201   6.570 -1.2228 -1.1568  0.7791
11298TIP3   OH255384   1.504   5.872  13.239  0.0971 -0.0187 -0.4556
11298TIP3    H155385   1.506   5.816  13.317 -1.9186 -0.6733 -0.8293
11298TIP3    H255386   1.568   5.832  13.180  1.4121  0.2967  0.6964
11299TIP3   OH255387   0.793   0.086   5.831 -0.0289 -0.4070  0.7874
11299TIP3    H155388   0.709   0.117   5.866 -1.6745 -2.8992 -0.6497
11299TIP3    H255389   0.815   0.010   5.884  0.2628 -0.9607 -0.1045
11300TIP3   OH255390   1.514   4.704  11.892  0.1572  0.0005 -0.1286
11300TIP3    H155391   1.514   4.783  11.838  1.4021  0.3881  0.4070
11300TIP3    H255392   1.422   4.680  11.900 -0.1923  1.0828 -0.7373
11301TIP3   OH255393   3.060   2.507   2.185  0.0122 -0.0428 -0.1401
11301TIP3    H155394   3.007   2.586   2.194  1.5594  0.9468  0.7087
11301TIP3    H255395   3.054   2.484   2.092 -2.1963 -0.2175  0.0034
11302TIP3   OH255396   2.868   0.788  16.020  0.5582 -0.3441  0.0904
11302TIP3    H155397   2.899   0.815  15.934  0.3780  1.7133  0.6246
11302TIP3    H255398   2.772   0.789  16.013  0.5322 -1.6076 -0.0657
11303TIP3   OH255399   6.398   3.143   1.732  0.9408 -0.3246 -0.4743
11303TIP3    H155400   6.446   3.155   1.650  0.9788  1.7651 -0.1963
11303TIP3    H255401   6.321   3.092   1.707  0.7703  0.5778 -1.9122
11304TIP3   OH255402   4.039   4.593   1.234  0.5449  0.4561  0.1746
11304TIP3    H155403   4.023   4.499   1.228  0.1701  0.5539 -0.4754
11304TIP3    H255404   4.011   4.628   1.150  1.2716  1.0722  0.1724
11305TIP3   OH255405   2.592   1.376  16.164 -0.4039  0.2227  0.1513
11305TIP3    H155406   2.569   1.401  16.253 -0.3311 -1.3434  0.6371
11305TIP3    H255407   2.662   1.311  16.174 -0.2346  0.1848 -1.0547
11306TIP3   OH255408   1.228   6.033   3.147 -0.2432  0.0704  0.3941
11306TIP3    H155409   1.290   5.962   3.130 -0.0976  0.1172  0.7109
11306TIP3    H255410   1.210   6.070   3.061 -0.9030 -0.8309  0.1280
11307TIP3   OH255411   5.250   1.876   5.160  0.1722  0.1410 -0.5498
11307TIP3    H155412   5.329   1.841   5.201 -0.8871 -0.5006  1.0274
11307TIP3    H255413   5.261   1.857   5.067  2.3038  0.9534 -0.5174
11308TIP3   OH255414   5.954   2.164   0.852  0.3006 -0.3363 -0.1415
11308TIP3    H155415   5.871   2.209   0.836  0.6474  0.6828  0.7356
11308TIP3    H255416   5.958   2.095   0.786 -0.2748  0.9084 -1.5395
11309TIP3   OH255417   5.165   5.346   4.626  0.1296  0.6175  0.1455
11309TIP3    H155418   5.070   5.356   4.626 -0.1432 -1.2780  1.5211
11309TIP3    H255419   5.188   5.340   4.719  1.6853  1.6221 -0.1467
11310TIP3   OH255420   6.035   2.530   5.215  0.0707  0.3240 -0.1226
11310TIP3    H155421   5.997   2.477   5.145 -1.0195  0.4912  0.3212
11310TIP3    H255422   6.014   2.620   5.190 -2.3940  0.2889  1.5461
11311TIP3   OH255423   3.796   0.477   3.566 -0.1015 -0.2350 -1.4109
11311TIP3    H155424   3.725   0.513   3.511 -0.9782  0.4055  0.0832
11311TIP3    H255425   3.874   0.522   3.537 -0.4845 -0.1586 -2.3635
11312TIP3   OH255426   5.157   2.247  12.939 -0.7476 -0.0075  0.1830
11312TIP3    H155427   5.136   2.160  12.903  1.1342 -1.3724  2.1302
11312TIP3    H255428   5.153   2.306  12.864 -2.3758 -1.7039 -1.1495
11313TIP3   OH255429   5.814   4.451  12.959 -0.2243 -0.0492  0.1693
11313TIP3    H155430   5.765   4.369  12.957 -0.4361  0.0885 -0.6059
11313TIP3    H255431   5.906   4.425  12.962 -0.2989 -0.3093  0.1664
11314TIP3   OH255432   5.865   2.657  12.561 -0.1141  0.1528 -0.1771
11314TIP3    H155433   5.922   2.661  12.638  0.6432 -0.4709 -0.6874
11314TIP3    H255434   5.925   2.662  12.486 -0.7480 -0.3364 -0.7321
11315TIP3   OH255435   4.211   0.481  12.662  0.0366  0.2125  0.7071
11315TIP3    H155436   4.247   0.495  12.749 -0.2240 -0.0013  0.8514
11315TIP3    H255437   4.132   0.536  12.658  0.6821  1.1269  0.1845
11316TIP3   OH255438   0.939   5.429   0.883  0.0836  0.1196 -0.4567
11316TIP3    H155439   0.996   5.368   0.930 -2.5323 -1.6224  0.6503
11316TIP3    H255440   0.953   5.408   0.791  1.5426  0.0877 -0.2610
11317TIP3   OH255441   0.902   5.562  16.523  0.0077 -0.1585 -0.5784
11317TIP3    H155442   0.926   5.524  16.439  1.2037  1.1218 -0.8611
11317TIP3    H255443   0.843   5.499  16.562  0.1414 -1.2067 -1.9870
11318TIP3   OH255444   1.532   1.650   5.422  0.0144 -0.4440 -0.0881
11318TIP3    H155445   1.549   1.614   5.335  0.8617  0.1043 -0.1553
11318TIP3    H255446   1.560   1.580   5.482 -1.0424 -1.0277 -0.2363
11319TIP3   OH255447   6.052   2.545   4.271  0.1420 -0.0591  0.0187
11319TIP3    H155448   6.041   2.590   4.354  0.3395  1.2845 -0.6549
11319TIP3    H255449   6.143   2.515   4.272 -0.0645 -0.6690  0.5791
11320TIP3   OH255450   5.172   5.511   5.814 -0.1173  0.1819 -0.2185
11320TIP3    H155451   5.241   5.447   5.794  0.1181  0.5867 -0.7597
11320TIP3    H255452   5.097   5.482   5.762  0.7894  1.7732 -2.5987
11321TIP3   OH255453   6.390   2.656  16.548 -0.3227 -0.7579  0.1334
11321TIP3    H155454   6.446   2.692  16.617 -0.5213 -0.2696  0.0400
11321TIP3    H255455   6.405   2.713  16.473 -0.3734 -1.0787 -0.1240
11322TIP3   OH255456   2.861   3.384  16.814  0.2609 -0.1970 -0.3144
11322TIP3    H155457   2.847   3.448  16.745 -0.7326 -0.1422 -0.0807
11322TIP3    H255458   2.795   3.405  16.880  1.7180  0.2827  1.0661
11323TIP3   OH255459   0.887   2.985  16.739  0.5838  0.0920 -0.0286
11323TIP3    H155460   0.916   3.037  16.814  2.2435 -0.4310 -0.2673
11323TIP3    H255461   0.879   2.896  16.774 -0.5224  0.1807 -0.0342
11324TIP3   OH255462   6.312   0.757  15.696 -0.0266  0.0676  0.2375
11324TIP3    H155463   6.391   0.811  15.692 -1.0670  1.7301  0.8772
11324TIP3    H255464   6.242   0.820  15.712 -1.2753 -1.5298  1.3423
11325TIP3   OH255465   1.499   3.384  12.361 -0.2683  0.0544  0.0987
11325TIP3    H155466   1.533   3.452  12.303 -1.1820  0.7455  0.3436
11325TIP3    H255467   1.561   3.381  12.434  2.0952 -2.3033 -1.8403
11326TIP3   OH255468   5.021   1.388   2.740 -0.0860 -0.1015 -0.0244
11326TIP3    H155469   5.021   1.338   2.659 -0.3237  0.3390 -0.3027
11326TIP3    H255470   4.938   1.437   2.738  0.8875  1.6351 -0.6196
11327TIP3   OH255471   2.985   5.335   5.505  0.6427 -1.1711  0.3924
11327TIP3    H155472   2.898   5.296   5.506 -0.8982  1.6599 -2.9421
11327TIP3    H255473   3.040   5.268   5.462 -0.4861 -2.0087  0.2041
11328TIP3   OH255474   4.066   4.133  14.504 -0.7427 -0.6621  0.3202
11328TIP3    H155475   4.103   4.061  14.555  2.3268  0.1323 -0.6282
11328TIP3    H255476   4.038   4.092  14.422  0.6654 -0.8725 -0.0760
11329TIP3   OH255477   5.709   0.970   4.643 -0.1897  0.0500 -0.1666
11329TIP3    H155478   5.783   0.981   4.703  0.7416 -0.1151 -1.2475
11329TIP3    H255479   5.667   1.056   4.641  0.6096  0.4497 -0.3395
11330TIP3   OH255480   0.222   0.484   5.699 -0.5489 -0.0583 -0.1079
11330TIP3    H155481   0.176   0.401   5.715  2.2298 -1.6454  0.3830
11330TIP3    H255482   0.202   0.538   5.776  0.7942 -1.9125  1.6598
11331TIP3   OH255483   5.135   5.461   3.327 -0.3683  0.3855  0.3021
11331TIP3    H155484   5.167   5.493   3.242 -0.3035  1.2387  0.6447
11331TIP3    H255485   5.066   5.523   3.352  0.6199  1.0249  1.5669
11332TIP3   OH255486   0.603   5.860   4.840  0.3840  0.2294  0.2329
11332TIP3    H155487   0.696   5.846   4.823  0.3934  1.3666 -0.7258
11332TIP3    H255488   0.574   5.921   4.772 -1.5581 -1.6788 -0.7627
11333TIP3   OH255489   2.582   6.177   0.865  0.3927  0.2679 -0.3531
11333TIP3    H155490   2.609   6.092   0.831  0.7854  0.5299 -0.6949
11333TIP3    H255491   2.629   6.186   0.948  0.6613  0.3324 -0.5141
11334TIP3   OH255492   4.374   5.597  17.058  0.6803 -0.5507  0.4570
11334TIP3    H155493   4.297   5.585  17.002 -0.5459  1.1757  1.6917
11334TIP3    H255494   4.360   5.681  17.100  3.4139 -0.0586  0.5222
11335TIP3   OH255495   3.158   3.614   0.111  0.4621  0.1815  0.4768
11335TIP3    H155496   3.070   3.647   0.094  0.6432  0.5416  0.2311
11335TIP3    H255497   3.216   3.679   0.072  0.8896  0.7760  2.0339
11336TIP3   OH255498   6.770   4.145  17.036  0.1694  0.4710  0.3141
11336TIP3    H155499   6.794   4.168  17.125  0.7217  0.1420  0.2578
11336TIP3    H255500   6.675   4.143  17.036  0.1698  0.4027  0.9125
11337TIP3   OH255501   6.099   3.441   4.153 -0.1800  0.5987 -0.2326
11337TIP3    H155502   6.149   3.521   4.171 -2.0914  2.4278 -2.4185
11337TIP3    H255503   6.027   3.443   4.217 -1.9602  2.4052 -2.1100
11338TIP3   OH255504   5.692   2.153  12.819 -0.0710 -0.3119  0.1571
11338TIP3    H155505   5.695   2.194  12.906  1.6072 -1.8387  0.8606
11338TIP3    H255506   5.730   2.219  12.760  0.1883  0.1504  0.8306
11339TIP3   OH255507   6.430   0.411  13.869 -0.2114  0.5456 -0.0978
11339TIP3    H155508   6.444   0.484  13.930 -0.2708 -0.5302  1.2452
11339TIP3    H255509   6.481   0.434  13.792  3.5648 -0.0878  1.9983
11340TIP3   OH255510   0.524   4.360   2.563  0.0163  0.2198 -0.4701
11340TIP3    H155511   0.594   4.340   2.625  0.4363  0.8327 -0.7374
11340TIP3    H255512   0.562   4.342   2.477  1.0334  3.6769 -0.8824
11341TIP3   OH255513   2.040   3.192  16.393  0.1828 -1.0018  0.1372
11341TIP3    H155514   2.042   3.188  16.488  0.4900  0.1866  0.1945
11341TIP3    H255515   2.083   3.111  16.365 -0.1447 -1.4868  0.9914
11342TIP3   OH255516   5.550   2.384   3.603 -0.3976 -0.1512  0.0002
11342TIP3    H155517   5.463   2.383   3.563 -0.4473 -2.1666  0.0883
11342TIP3    H255518   5.535   2.415   3.692 -0.9749 -0.2065 -0.0722
11343TIP3   OH255519   6.712   3.744  12.663 -0.3739 -0.7941  0.3160
11343TIP3    H155520   6.730   3.712  12.574 -0.5200 -1.4096  0.5051
11343TIP3    H255521   6.760   3.827  12.669  1.0706 -1.6079  0.2585
11344TIP3   OH255522   4.256   5.181  13.837 -0.5072  0.2701  0.2071
11344TIP3    H155523   4.328   5.209  13.893 -1.2194  2.4386  0.1490
11344TIP3    H255524   4.182   5.171  13.896 -0.4685 -0.7864  0.0981
11345TIP3   OH255525   3.487   2.826  16.464 -0.1501  0.1492 -0.0593
11345TIP3    H155526   3.509   2.809  16.555  1.4967 -0.8291 -0.5999
11345TIP3    H255527   3.465   2.920  16.461 -1.2970 -0.0358  1.4988
11346TIP3   OH255528   0.998   5.432   5.666  0.4404 -0.0877  0.1189
11346TIP3    H155529   0.988   5.338   5.680  0.6625 -0.2743 -0.9017
11346TIP3    H255530   0.909   5.467   5.673  0.2053 -0.5325 -0.5991
11347TIP3   OH255531   6.742   1.937   1.352  0.0421  0.6798 -0.5910
11347TIP3    H155532   6.728   1.927   1.446  0.4153 -2.5978 -0.7737
11347TIP3    H255533   6.676   1.881   1.311  1.5815 -0.1333 -2.1370
11348TIP3   OH255534   2.488   0.763   4.392 -0.2957 -0.1325  0.1731
11348TIP3    H155535   2.418   0.823   4.417  0.9878  1.1146  0.8757
11348TIP3    H255536   2.506   0.712   4.471 -1.1697 -1.2870 -0.3335
11349TIP3   OH255537   3.688   2.642  12.014  0.1426  0.5146 -0.0839
11349TIP3    H155538   3.618   2.590  12.053  0.5869 -0.7783 -0.9089
11349TIP3    H255539   3.643   2.700  11.952 -0.3506  1.0160  0.7296
11350TIP3   OH255540   6.178   5.964  16.236  0.7684  0.7159 -0.3726
11350TIP3    H155541   6.188   6.015  16.156  2.6656  0.8327 -0.1018
11350TIP3    H255542   6.184   5.873  16.208  1.1605  0.7499 -0.4035
11351TIP3   OH255543   6.176   5.420  13.421 -0.4243  0.0638  0.0543
11351TIP3    H155544   6.149   5.503  13.381 -0.3060  0.2966  0.4444
11351TIP3    H255545   6.095   5.381  13.454 -0.5350 -0.1740 -0.4862
11352TIP3   OH255546   0.472   5.265  14.791 -0.0811  0.1474 -0.1235
11352TIP3    H155547   0.451   5.260  14.698  1.7710 -1.8969 -0.5230
11352TIP3    H255548   0.528   5.342  14.800  0.5671 -0.2173 -0.9207
11353TIP3   OH255549   6.487   0.105   2.742 -0.6290  0.4469  0.4265
11353TIP3    H155550   6.542   0.183   2.745  0.1439  0.0039 -1.2245
11353TIP3    H255551   6.453   0.096   2.831  1.0100  1.4192  1.1879
11354TIP3   OH255552   1.957   2.291  15.825 -0.1200  0.0502  0.4613
11354TIP3    H155553   2.030   2.322  15.879 -0.4558 -0.1051  1.0093
11354TIP3    H255554   1.921   2.371  15.785  0.6187  0.0783 -0.1581
11355TIP3   OH255555   2.011   0.252   4.441 -0.0235  0.1066  0.0877
11355TIP3    H155556   2.097   0.222   4.470  0.2978 -1.8020 -2.4786
11355TIP3    H255557   2.030   0.314   4.370 -0.7437 -0.1897 -0.3771
11356TIP3   OH255558   4.407   6.182   5.552 -0.1813 -0.0467  0.6255
11356TIP3    H155559   4.363   6.259   5.588  1.8180  1.1257  0.7282
11356TIP3    H255560   4.444   6.138   5.628 -1.3041 -1.1547  0.5658
11357TIP3   OH255561   0.248   6.210   2.990  0.1697 -0.1986  0.1439
11357TIP3    H155562   0.247   6.288   2.934 -1.2947  0.0043  0.4156
11357TIP3    H255563   0.284   6.240   3.073  0.1739  0.0501  0.0526
11358TIP3   OH255564   6.786   5.550  12.917  0.3371 -0.0228  0.4755
11358TIP3    H155565   6.767   5.643  12.923 -0.9381 -0.2670  0.6284
11358TIP3    H255566   6.702   5.510  12.893  0.9047 -1.1091  0.2148
11359TIP3   OH255567   0.420   2.614  17.161 -0.0180 -0.5728  0.4808
11359TIP3    H155568   0.485   2.554  17.199  1.1142 -0.0568 -0.5578
11359TIP3    H255569   0.456   2.637  17.076  0.1892  2.4824  1.2731
11360TIP3   OH255570   6.450   3.631   1.591  0.2073 -0.6222  0.6481
11360TIP3    H155571   6.382   3.564   1.584 -1.9961  1.4380  1.0336
11360TIP3    H255572   6.443   3.664   1.681  1.0840  0.2866  0.4131
11361TIP3   OH255573   4.833   2.514  16.747 -0.3306  0.8037  0.6141
11361TIP3    H155574   4.886   2.485  16.674 -1.8374 -0.5240 -0.0063
11361TIP3    H255575   4.775   2.440  16.766 -1.8029  2.0857  1.3736
11362TIP3   OH255576   3.385   0.399   5.816 -0.3336 -0.0443 -0.2636
11362TIP3    H155577   3.424   0.313   5.799 -1.9365 -0.5050 -2.0758
11362TIP3    H255578   3.456   0.461   5.799  0.8993 -0.9787  1.2497
11363TIP3   OH255579   3.737   0.907   5.877 -0.1757  0.2909  0.4164
11363TIP3    H155580   3.772   0.939   5.794  0.2496 -0.2251  0.3886
11363TIP3    H255581   3.695   0.983   5.917  0.7343  0.8576  0.3092
11364TIP3   OH255582   5.331   4.238  13.686  0.1657 -0.4651  0.1238
11364TIP3    H155583   5.270   4.242  13.761  0.8086  0.7949  0.6091
11364TIP3    H255584   5.413   4.272  13.721  0.1246  1.4687 -1.4753
11365TIP3   OH255585   5.281   4.016  12.515  0.5343  0.6836  0.5451
11365TIP3    H155586   5.213   3.988  12.576 -0.4127  0.8124 -0.4186
11365TIP3    H255587   5.248   3.989  12.429  1.7349  0.6954  0.0613
11366TIP3   OH255588   0.657   1.922   4.041 -0.1170 -0.2652 -0.8748
11366TIP3    H155589   0.614   1.901   4.124  1.5257 -2.7675 -0.5508
11366TIP3    H255590   0.749   1.938   4.065 -0.0022  1.0503 -2.0105
11367TIP3   OH255591   0.575   4.668   1.194  0.1226  0.1669 -0.3069
11367TIP3    H155592   0.635   4.732   1.157 -0.4771 -0.2326 -2.0881
11367TIP3    H255593   0.488   4.708   1.186 -0.1129 -0.3025 -0.1638
11368TIP3   OH255594   3.989   2.562  11.612 -0.2003  0.3774  0.1012
11368TIP3    H155595   4.016   2.629  11.550 -0.2610 -0.2545 -0.6209
11368TIP3    H255596   3.901   2.537  11.584  1.2879 -2.9804 -2.3281
11369TIP3   OH255597   5.868   2.535  16.340 -0.1231 -0.1547  0.0210
11369TIP3    H155598   5.922   2.462  16.370 -0.1539  0.6308  2.1494
11369TIP3    H255599   5.925   2.612  16.349 -1.6582  0.7856  2.9426
11370TIP3   OH255600   1.420   1.177   2.173  0.1481  0.0904 -0.0942
11370TIP3    H155601   1.467   1.104   2.215  0.0801 -0.3091 -0.7090
11370TIP3    H255602   1.490   1.229   2.132  0.0862 -0.3787 -0.8131
11371TIP3   OH255603   6.194   2.935   4.738 -0.4790  0.3757 -0.3660
11371TIP3    H155604   6.143   2.939   4.819  3.0526 -0.2677  2.1526
11371TIP3    H255605   6.283   2.956   4.766  0.5808  2.5285 -4.5867
11372TIP3   OH255606   1.007   2.368   5.411  0.1293 -0.4436 -0.3271
11372TIP3    H155607   0.984   2.407   5.327 -0.4570  2.4130  1.0349
11372TIP3    H255608   1.057   2.435   5.456 -1.4828 -0.9315  2.4669
11373TIP3   OH255609   3.322   2.865  16.722 -0.1072  0.3954 -0.0340
11373TIP3    H155610   3.283   2.856  16.809  0.6918  1.6083  0.4936
11373TIP3    H255611   3.368   2.782  16.708  2.6030  1.3259  2.2389
11374TIP3   OH255612   1.960   3.716  15.441 -0.9864 -0.0740 -0.4089
11374TIP3    H155613   2.038   3.729  15.495  0.1279 -0.2915 -1.8872
11374TIP3    H255614   1.969   3.627  15.406 -1.2259  0.3484 -1.5972
11375TIP3   OH255615   1.085   6.423   5.227 -0.2446  0.0257 -0.0802
11375TIP3    H155616   1.077   6.453   5.317 -1.4238  0.8000 -0.4269
11375TIP3    H255617   1.081   6.503   5.174 -0.3190 -0.4807 -0.8597
11376TIP3   OH255618   0.978   0.451  15.866 -0.1620 -0.0010  0.3632
11376TIP3    H155619   0.903   0.502  15.896 -1.1102 -0.6122 -0.8965
11376TIP3    H255620   1.054   0.506  15.884 -1.1251  1.7626 -0.7366
11377TIP3   OH255621   2.676   1.933   1.851 -0.5959 -0.3832 -0.2337
11377TIP3    H155622   2.645   1.945   1.941 -0.9664  1.2076 -0.5398
11377TIP3    H255623   2.636   2.005   1.802  0.4032 -0.6349 -1.4691
11378TIP3   OH255624   4.475   4.946   1.324 -0.4078 -0.2137 -0.3775
11378TIP3    H155625   4.469   4.920   1.416  2.0147  2.4397  0.6822
11378TIP3    H255626   4.556   4.906   1.293 -0.7246 -0.3292 -1.0559
11379TIP3   OH255627   3.348   2.582  14.363 -0.3539 -0.4114 -0.0090
11379TIP3    H155628   3.409   2.631  14.308 -0.0878 -1.2781 -0.5075
11379TIP3    H255629   3.402   2.514  14.403 -1.0694 -1.4763 -0.8091
11380TIP3   OH255630   4.456   0.127  12.165 -0.5084  0.2552 -0.0140
11380TIP3    H155631   4.518   0.065  12.205 -0.3308  0.8908  0.7142
11380TIP3    H255632   4.508   0.176  12.102  0.2518  2.0971  1.9192
11381TIP3   OH255633   5.848   3.615  11.282 -0.5307  0.0615  0.2231
11381TIP3    H155634   5.906   3.646  11.212  0.3559 -0.3693  0.7365
11381TIP3    H255635   5.879   3.527  11.301 -1.0811 -0.0101  0.8224
11382TIP3   OH255636   2.456   4.425   2.839 -0.4070  0.4785 -0.4773
11382TIP3    H155637   2.412   4.416   2.924  0.9008 -1.6669  0.0493
11382TIP3    H255638   2.541   4.465   2.860  0.9681 -2.3076 -0.3104
11383TIP3   OH255639   6.741   3.905   0.680 -0.0387 -0.6549 -0.5554
11383TIP3    H155640   6.792   3.872   0.606 -0.1392 -1.5916 -0.2097
11383TIP3    H255641   6.669   3.954   0.639  0.6171 -0.0761 -1.0532
11384TIP3   OH255642   6.244   5.535   1.649  0.6102 -0.3190 -0.1666
11384TIP3    H155643   6.270   5.627   1.636 -1.7508  0.2821 -1.0584
11384TIP3    H255644   6.180   5.518   1.580 -1.3250 -1.6431  1.8104
11385TIP3   OH255645   2.084   5.528   3.151  0.4729 -0.3171  0.1457
11385TIP3    H155646   2.026   5.602   3.168 -0.3369 -0.9191  0.0635
11385TIP3    H255647   2.172   5.566   3.144  0.4324  0.3373  2.5686
11386TIP3   OH255648   6.667   4.272   3.515  0.3897 -0.5651  0.4818
11386TIP3    H155649   6.694   4.215   3.443  1.6192  1.2701 -0.5768
11386TIP3    H255650   6.741   4.271   3.576  0.6887  0.3743  0.1467
11387TIP3   OH255651   6.470   1.377   3.440  0.1334  0.5414 -0.0646
11387TIP3    H155652   6.475   1.410   3.350 -1.3517  2.4005  0.4660
11387TIP3    H255653   6.552   1.330   3.453 -0.2015 -1.0086 -2.8269
11388TIP3   OH255654   3.296   3.824  16.585  0.0803 -0.0972  0.4028
11388TIP3    H155655   3.305   3.729  16.581 -0.7267 -0.1318 -1.3418
11388TIP3    H255656   3.215   3.843  16.537  0.7464  1.5262 -0.1552
11389TIP3   OH255657   6.003   2.624   2.474 -0.0231 -0.0296  0.0652
11389TIP3    H155658   5.997   2.608   2.380 -0.8424  0.5975 -0.0036
11389TIP3    H255659   5.916   2.658   2.497  0.3265  0.2674  0.9594
11390TIP3   OH255660   1.934   3.974  14.612 -0.2745 -0.2638  0.5477
11390TIP3    H155661   1.952   4.022  14.692 -0.0672 -1.6415  1.3519
11390TIP3    H255662   1.847   3.938  14.625 -0.6573  0.3200 -0.2842
11391TIP3   OH255663   4.356   3.802  13.529 -0.6154  0.1605  0.6405
11391TIP3    H155664   4.402   3.843  13.455 -1.9421  1.3393  0.4292
11391TIP3    H255665   4.423   3.795  13.597  0.0633  1.2056  0.1192
11392TIP3   OH255666   3.765   1.918   0.828 -0.4602 -0.1748  0.4701
11392TIP3    H155667   3.696   1.857   0.801  0.0387 -0.8295  0.6417
11392TIP3    H255668   3.822   1.924   0.751 -0.3407 -0.1648  0.5600
11393TIP3   OH255669   6.493   4.667  13.945 -0.1082 -0.8437  0.2084
11393TIP3    H155670   6.399   4.656  13.959 -0.4270  0.6111 -0.5385
11393TIP3    H255671   6.500   4.697  13.854  0.9666  0.1754  0.6016
11394TIP3   OH255672   0.374   3.382   6.773 -0.1449  0.3524  0.2482
11394TIP3    H155673   0.320   3.455   6.802 -0.7977 -0.7864  2.0591
11394TIP3    H255674   0.431   3.363   6.848 -0.5174 -1.4403  0.1282
11395TIP3   OH255675   0.925   2.357  17.233  0.3885  0.2837 -0.4927
11395TIP3    H155676   1.017   2.337  17.250  0.3175  0.3975  0.0222
11395TIP3    H255677   0.891   2.279  17.189  0.1951 -0.6180  1.2079
11396TIP3   OH255678   0.402   4.917  16.283  0.6778 -0.2585 -0.7106
11396TIP3    H155679   0.422   5.010  16.273  0.7947 -0.3686 -1.6111
11396TIP3    H255680   0.433   4.895  16.371 -2.0433  1.2228  0.7434
11397TIP3   OH255681   1.519   3.044   4.438 -0.6963 -0.7378  0.2142
11397TIP3    H155682   1.423   3.044   4.434 -0.7570  0.7820  1.1179
11397TIP3    H255683   1.544   3.136   4.428  0.6283 -0.9935  0.9315
11398TIP3   OH255684   2.642   1.141   1.787  0.0903  0.5686  0.3983
11398TIP3    H155685   2.639   1.052   1.753 -0.6830 -0.0110  1.8880
11398TIP3    H255686   2.582   1.190   1.731 -0.5027 -0.1592  0.3846
11399TIP3   OH255687   3.743   4.073  13.809 -0.1345 -0.3100  0.1428
11399TIP3    H155688   3.822   4.102  13.853  0.2853  0.1857 -0.9000
11399TIP3    H255689   3.721   3.990  13.851  0.7926 -0.3323  0.6030
11400TIP3   OH255690   2.179   0.280  13.339 -0.1903  0.6740  0.7876
11400TIP3    H155691   2.243   0.349  13.358 -0.6060  0.8550  1.5785
11400TIP3    H255692   2.228   0.199  13.346 -0.3011  0.7425  2.5937
11401TIP3   OH255693   3.588   4.366  14.046 -0.3270 -0.1466  0.6471
11401TIP3    H155694   3.498   4.341  14.030 -1.1689  2.5296  0.6749
11401TIP3    H255695   3.620   4.303  14.110 -1.9259 -1.5557  0.1192
11402TIP3   OH255696   2.817   5.825  12.443  0.0666 -0.4106 -0.1349
11402TIP3    H155697   2.753   5.896  12.452  0.4702 -0.0446 -0.1564
11402TIP3    H255698   2.794   5.764  12.513  0.2582  0.1607  0.4283
11403TIP3   OH255699   5.990   4.337   0.601  0.2969 -0.2037  0.1245
11403TIP3    H155700   5.944   4.420   0.590  1.5924  0.3467 -1.5942
11403TIP3    H255701   5.923   4.276   0.634 -0.6583  1.5078  1.4664
11404TIP3   OH255702   0.381   2.736  11.836 -0.1269  0.1741 -0.7112
11404TIP3    H155703   0.476   2.734  11.841 -0.0910  1.3537 -0.5751
11404TIP3    H255704   0.361   2.734  11.743  0.0384 -0.0314 -0.7410
11405TIP3   OH255705   0.212   1.680   2.338 -0.3576 -0.2622  0.1768
11405TIP3    H155706   0.179   1.593   2.363  1.0344 -0.8889 -0.0721
11405TIP3    H255707   0.307   1.669   2.334 -0.2466  0.9606 -1.1092
11406TIP3   OH255708   4.307   5.190   2.683  0.5487 -0.1329  0.5784
11406TIP3    H155709   4.243   5.119   2.694  1.9480 -1.8694 -1.6249
11406TIP3    H255710   4.387   5.146   2.653  1.6828  2.3261 -0.2631
11407TIP3   OH255711   5.940   1.724   4.153 -0.1712 -0.5884  0.3465
11407TIP3    H155712   6.004   1.680   4.209  1.5242 -1.7690 -2.3118
11407TIP3    H255713   5.855   1.698   4.187  0.7813 -2.0090  1.7607
11408TIP3   OH255714   5.931   0.475  14.272 -0.0814  0.3365  0.3375
11408TIP3    H155715   5.872   0.428  14.213 -0.7034 -0.4701  1.5632
11408TIP3    H255716   5.902   0.566  14.268  2.0207  1.0592 -3.1650
11409TIP3   OH255717   4.829   6.555   2.058 -0.3162 -0.0085 -0.6310
11409TIP3    H155718   4.799   6.580   2.146 -0.7227  0.3880 -0.8752
11409TIP3    H255719   4.760   6.587   2.000  1.4326  2.6144 -1.4029
11410TIP3   OH255720   3.234   1.596  11.688 -0.6049  0.5292  0.9784
11410TIP3    H155721   3.277   1.633  11.765  1.1076  1.1189 -0.1978
11410TIP3    H255722   3.237   1.665  11.623  1.8672 -1.2784 -1.0049
11411TIP3   OH255723   2.960   5.308   3.286 -0.0799  0.5096 -0.2703
11411TIP3    H155724   2.906   5.381   3.254 -0.6514  0.2122  0.0011
11411TIP3    H255725   2.918   5.230   3.250  1.4112  0.3831 -1.8375
11412TIP3   OH255726   0.828   1.503  15.701 -0.3361  0.3845  0.1477
11412TIP3    H155727   0.779   1.425  15.674  0.0232  0.3112 -0.3040
11412TIP3    H255728   0.920   1.481  15.684 -0.3187  1.3310 -1.1048
11413TIP3   OH255729   6.507   4.251   5.473 -0.1823  0.1350 -0.0110
11413TIP3    H155730   6.574   4.267   5.539 -1.9593  1.1107  1.6415
11413TIP3    H255731   6.528   4.314   5.403 -0.7172  2.2174  1.5870
11414TIP3   OH255732   6.616   5.010  12.071  0.5828 -0.8910  0.2166
11414TIP3    H155733   6.541   5.067  12.052  2.9064  2.0963 -0.9644
11414TIP3    H255734   6.621   5.009  12.166  0.1539  0.5532  0.2858
11415TIP3   OH255735   4.788   5.902   6.032  0.7418  0.0718 -0.0448
11415TIP3    H155736   4.810   5.980   5.980  1.7636 -0.6711 -0.7680
11415TIP3    H255737   4.758   5.838   5.968  0.4645 -0.3346  0.4825
11416TIP3   OH255738   6.450   0.494   4.424 -0.0564  0.2444 -0.1872
11416TIP3    H155739   6.536   0.453   4.425  0.0536  0.4659 -0.4090
11416TIP3    H255740   6.463   0.577   4.471 -0.1566  0.2593 -0.1861
11417TIP3   OH255741   5.994   2.371  10.987  0.3102  0.0471 -0.7994
11417TIP3    H155742   5.937   2.327  10.924 -0.0391 -1.0603  0.2615
11417TIP3    H255743   6.053   2.424  10.933 -0.2660 -0.5292 -2.0296
11418TIP3   OH255744   1.373   6.466  14.346 -0.2012  0.5186  0.3900
11418TIP3    H155745   1.450   6.438  14.296 -0.6442  0.2086 -0.1243
11418TIP3    H255746   1.298   6.439  14.292 -0.8299 -2.5187  2.5637
11419TIP3   OH255747   4.677   1.931   0.056 -0.0419 -0.3954  0.2426
11419TIP3    H155748   4.586   1.961   0.060 -0.0258  0.0634 -1.7303
11419TIP3    H255749   4.712   1.949   0.143 -1.5744  0.2868  0.7598
11420TIP3   OH255750   4.808   0.465   1.533  0.1854  0.5987 -0.0142
11420TIP3    H155751   4.745   0.524   1.574 -1.5153 -0.9319 -0.3201
11420TIP3    H255752   4.787   0.379   1.568  2.2918  0.0495  0.0413
11421TIP3   OH255753   1.221   5.888  11.870 -0.0219 -0.7151  0.1314
11421TIP3    H155754   1.276   5.893  11.949 -0.9521  1.1206  0.7088
11421TIP3    H255755   1.211   5.794  11.854  1.8489 -1.1168  0.9933
11422TIP3   OH255756   2.481   4.463  17.217  0.0494 -0.8170  0.2575
11422TIP3    H155757   2.506   4.543  17.171  0.8248 -1.7914 -1.1125
11422TIP3    H255758   2.530   4.466  17.299  1.0247 -0.4371 -0.3113
11423TIP3   OH255759   4.865   2.096   0.795  0.0284 -0.1323  0.2539
11423TIP3    H155760   4.845   2.010   0.831 -1.7557  0.4972  0.8530
11423TIP3    H255761   4.869   2.153   0.872  0.4998  0.4545 -0.1978
11424TIP3   OH255762   1.631   2.810  16.339  0.2568  0.1586  0.0714
11424TIP3    H155763   1.678   2.751  16.281  2.6938  2.0489 -0.0207
11424TIP3    H255764   1.680   2.892  16.336 -0.6319  0.9584  3.2879
11425TIP3   OH255765   1.204   6.625  15.118  0.4181 -0.1443 -0.2846
11425TIP3    H155766   1.137   6.692  15.129 -1.8111 -2.3461  0.3916
11425TIP3    H255767   1.219   6.591  15.206 -1.5921 -3.2045 -0.9464
11426TIP3   OH255768   3.185   4.029  16.042  0.0398  0.5458 -0.2416
11426TIP3    H155769   3.228   4.013  16.126 -1.1366 -1.1931  0.0939
11426TIP3    H255770   3.256   4.038  15.979  0.9224  0.3390  0.7020
11427TIP3   OH255771   0.867   3.507  11.097 -0.1690  0.0660 -0.3295
11427TIP3    H155772   0.853   3.413  11.086  0.0925 -0.0309  0.1521
11427TIP3    H255773   0.870   3.542  11.008  1.9855 -0.7033 -0.6068
11428TIP3   OH255774   6.765   2.001  11.392  0.9630 -0.1206 -0.1684
11428TIP3    H155775   6.748   1.980  11.300 -0.6144  0.6688 -0.0984
11428TIP3    H255776   6.837   2.065  11.389 -0.0771  1.0688 -1.0061
11429TIP3   OH255777   5.110   3.616   2.608 -0.2563  0.3454 -0.0005
11429TIP3    H155778   5.154   3.537   2.576 -1.7699 -1.0439  1.1981
11429TIP3    H255779   5.179   3.664   2.654  0.6615 -0.3292 -0.6313
11430TIP3   OH255780   1.594   5.347  16.548  0.7187 -0.4681 -0.4523
11430TIP3    H155781   1.676   5.349  16.499 -0.0057 -2.1219 -1.8338
11430TIP3    H255782   1.531   5.392  16.492 -0.0317 -2.0278 -0.9235
11431TIP3   OH255783   1.240   4.542  12.697  0.2188  0.8715  0.1880
11431TIP3    H155784   1.262   4.477  12.631  1.1586  1.1225  0.2462
11431TIP3    H255785   1.186   4.606  12.650  1.9648  1.7625 -0.7170
11432TIP3   OH255786   1.366   5.471   0.612 -0.4598 -0.0874  0.6410
11432TIP3    H155787   1.449   5.516   0.597 -1.1086  2.0045  2.7955
11432TIP3    H255788   1.303   5.517   0.557 -0.7400  0.2452  1.2405
11433TIP3   OH255789   4.330   1.693  11.730  1.1192  0.1408  0.0207
11433TIP3    H155790   4.247   1.670  11.688  1.7823 -1.1686 -0.6412
11433TIP3    H255791   4.312   1.688  11.824  0.5150 -0.3852 -0.1172
11434TIP3   OH255792   5.764   3.961  15.674  0.5004 -0.0861  0.0450
11434TIP3    H155793   5.748   3.874  15.638 -0.6055  1.2427 -3.0506
11434TIP3    H255794   5.810   4.008  15.605 -0.7698  2.3839  0.7240
11435TIP3   OH255795   5.449   5.663  15.267  0.0334  0.2228  0.3503
11435TIP3    H155796   5.532   5.616  15.270  0.2104  0.5101 -0.0485
11435TIP3    H255797   5.388   5.605  15.313  0.1321 -0.6385 -0.5588
11436TIP3   OH255798   0.674   5.765   0.680  0.0187 -0.1873 -0.3868
11436TIP3    H155799   0.670   5.699   0.611  0.4017 -0.9125  0.2690
11436TIP3    H255800   0.743   5.734   0.739  2.8982  2.6260 -1.9590
11437TIP3   OH255801   2.248   3.000   1.173  0.2903 -0.1677 -0.0976
11437TIP3    H155802   2.171   3.039   1.214  0.0934  1.4604 -1.8834
11437TIP3    H255803   2.301   2.967   1.246  0.1848  2.9791  1.5385
11438TIP3   OH255804   4.394   0.515  16.426  0.2535 -0.1936 -0.1122
11438TIP3    H155805   4.397   0.449  16.357  2.1879 -0.1602 -0.0943
11438TIP3    H255806   4.348   0.589  16.385  1.6639 -0.0434 -1.5340
11439TIP3   OH255807   2.893   3.099   5.126  0.5254 -0.2057 -0.4817
11439TIP3    H155808   2.972   3.053   5.098  0.3649  0.0464 -1.3776
11439TIP3    H255809   2.849   3.123   5.045  1.1600  2.5187 -0.1210
11440TIP3   OH255810   5.027   6.670   4.929  0.2983  0.1465 -0.1066
11440TIP3    H155811   4.978   6.649   5.008 -0.7220 -1.2368 -1.0617
11440TIP3    H255812   5.011   6.763   4.914 -0.1825  0.2217  0.8421
11441TIP3   OH255813   3.315   2.019   0.727  0.4742 -0.2878 -0.3249
11441TIP3    H155814   3.255   2.093   0.732  0.6673 -0.1251 -0.4368
11441TIP3    H255815   3.292   1.975   0.645 -0.1660 -0.8048  0.1138
11442TIP3   OH255816   6.537   6.635  16.507 -0.5930  0.0571  0.1823
11442TIP3    H155817   6.510   6.705  16.447 -0.4121  0.4869  0.5987
11442TIP3    H255818   6.456   6.587  16.524 -0.2159 -1.7899 -2.5572
11443TIP3   OH255819   4.441   5.336  10.756  0.7596  0.4150  0.4329
11443TIP3    H155820   4.460   5.322  10.663  1.6225  0.9125  0.5238
11443TIP3    H255821   4.431   5.247  10.791 -0.5687  0.2447 -0.3156
11444TIP3   OH255822   2.504   5.762  16.110  0.3308  0.5475 -0.0562
11444TIP3    H155823   2.550   5.763  16.026  0.2033  2.2566 -0.1424
11444TIP3    H255824   2.543   5.689  16.158  0.5221 -0.3576 -1.5124
11445TIP3   OH255825   0.230   4.432  13.347 -0.2691  0.0828  0.1715
11445TIP3    H155826   0.229   4.338  13.334 -1.3789 -0.6281  4.1806
11445TIP3    H255827   0.138   4.458  13.349 -0.1401  0.6090  2.1002
11446TIP3   OH255828   5.948   6.615   0.069  0.7315  0.0697  0.0802
11446TIP3    H155829   5.883   6.685   0.067 -0.8840 -1.3668 -0.1538
11446TIP3    H255830   5.985   6.614  -0.019 -0.1660 -0.1594 -0.3094
11447TIP3   OH255831   1.733   2.605   3.757  0.5317  0.0473  0.0418
11447TIP3    H155832   1.695   2.690   3.776  3.1993  0.9518  1.9292
11447TIP3    H255833   1.713   2.590   3.664 -2.3931  1.3633  0.3652
11448TIP3   OH255834   0.035   5.337  15.910 -0.2474  0.3909  0.4753
11448TIP3    H155835   0.022   5.242  15.906  4.5844 -0.4961  0.4895
11448TIP3    H255836   0.036   5.357  16.003 -1.2897  0.5045  0.4726
11449TIP3   OH255837   1.749   0.128  12.234 -0.1605  0.5130  0.0703
11449TIP3    H155838   1.812   0.094  12.170 -1.1003 -1.2780  0.0137
11449TIP3    H255839   1.793   0.202  12.275  1.9048 -0.5404 -0.1234
11450TIP3   OH255840   3.263   4.709   1.877  0.2678 -0.6158 -0.5091
11450TIP3    H155841   3.232   4.644   1.814 -0.7180 -0.0988 -0.5664
11450TIP3    H255842   3.343   4.670   1.913 -0.0729 -1.6709 -0.8472
11451TIP3   OH255843   6.596   0.312  12.355 -0.1779  0.2900  0.9735
11451TIP3    H155844   6.688   0.336  12.340 -0.2400 -0.0089  0.0499
11451TIP3    H255845   6.593   0.217  12.343 -0.8318  0.4498 -0.3061
11452TIP3   OH255846   6.024   1.416   3.750  0.3851 -0.2461  0.5675
11452TIP3    H155847   5.978   1.355   3.694  1.1773  0.9592 -1.5152
11452TIP3    H255848   6.105   1.436   3.702  0.5428  1.7555  1.5730
11453TIP3   OH255849   5.495   1.673   3.932  0.0541  0.4331 -0.1678
11453TIP3    H155850   5.419   1.637   3.887  0.1965 -0.1637  0.0607
11453TIP3    H255851   5.534   1.734   3.868  0.0673 -0.1606 -0.7381
11454TIP3   OH255852   0.398   0.862   3.817  0.1100  0.1164 -0.0815
11454TIP3    H155853   0.396   0.837   3.909  0.9547  1.4051  0.3125
11454TIP3    H255854   0.351   0.945   3.814  0.9293  0.5697 -0.6489
11455TIP3   OH255855   3.462   2.833   4.713  0.0601 -0.3081  0.1466
11455TIP3    H155856   3.436   2.867   4.628 -0.4938 -1.3089 -0.0969
11455TIP3    H255857   3.474   2.739   4.699 -1.8634 -0.8228  1.5847
11456TIP3   OH255858   2.239   6.695  13.052 -0.6714 -0.6352  0.3589
11456TIP3    H155859   2.265   6.776  13.096  0.4059 -1.5890  1.5692
11456TIP3    H255860   2.194   6.645  13.120 -1.9998 -0.7554 -0.5904
11457TIP3   OH255861   1.938   0.912  14.959  0.1606  0.1209  0.3968
11457TIP3    H155862   1.902   1.000  14.954  2.3151  1.0420 -0.0036
11457TIP3    H255863   1.876   0.857  14.911  0.4586  2.0305 -2.4102
11458TIP3   OH255864   0.311   6.626  17.227  0.0716  0.0512 -0.4111
11458TIP3    H155865   0.387   6.684  17.232  0.6160 -0.6885  0.0515
11458TIP3    H255866   0.345   6.544  17.191 -0.6111 -0.1138 -0.6871
11459TIP3   OH255867   4.013   0.821   1.531  0.6905  0.1632  0.1628
11459TIP3    H155868   4.064   0.767   1.472 -0.7473 -2.4836  1.1906
11459TIP3    H255869   3.933   0.771   1.547 -0.4881  2.3529  1.6614
11460TIP3   OH255870   4.265   5.098  16.573 -0.1016 -0.6268 -0.1987
11460TIP3    H155871   4.232   5.109  16.663  0.5278 -1.4234  0.1383
11460TIP3    H255872   4.240   5.180  16.529 -1.5063 -0.7304  0.3468
11461TIP3   OH255873   0.823   2.016  13.820 -0.2116 -0.4691  0.4048
11461TIP3    H155874   0.824   2.100  13.773 -0.8191 -0.9064 -0.4230
11461TIP3    H255875   0.849   2.038  13.909  0.5161  0.4599 -0.0174
11462TIP3   OH255876   2.131   2.096   1.041 -0.2631 -0.0292 -0.1061
11462TIP3    H155877   2.169   2.083   0.954 -0.2239 -0.1501 -0.0715
11462TIP3    H255878   2.140   2.011   1.084  1.0244  0.4227  0.5458
11463TIP3   OH255879   2.659   0.402  12.873 -0.3461 -0.7306  0.1539
11463TIP3    H155880   2.700   0.315  12.876 -1.8166 -1.4525  0.2560
11463TIP3    H255881   2.607   0.401  12.793  0.9985  0.7506 -0.8065
11464TIP3   OH255882   6.346   4.624  16.003  0.1205 -0.5874  0.1188
11464TIP3    H155883   6.370   4.571  16.079 -3.1042 -0.3722  1.4576
11464TIP3    H255884   6.283   4.688  16.037 -1.6598 -0.6131 -2.7661
11465TIP3   OH255885   2.239   4.424  13.546 -0.3454  0.5359  0.1514
11465TIP3    H155886   2.232   4.404  13.639 -0.1932  0.3697  0.1277
11465TIP3    H255887   2.331   4.409  13.525 -0.1487  1.6037  0.2080
11466TIP3   OH255888   0.460   5.223  15.935 -0.0465  0.2031 -0.3260
11466TIP3    H155889   0.404   5.157  15.975  0.1674  0.6554  0.7514
11466TIP3    H255890   0.401   5.295  15.913 -0.4472 -0.6854 -2.3850
11467TIP3   OH255891   4.391   5.042  15.683  0.4155  0.8211 -0.2338
11467TIP3    H155892   4.297   5.038  15.703  0.7870  1.1227  1.8560
11467TIP3    H255893   4.416   4.951  15.668 -0.4020  0.8505 -1.9538
11468TIP3   OH255894   6.173   4.099   5.533 -0.3246  0.0707  0.8153
11468TIP3    H155895   6.180   4.053   5.616  0.8537 -1.6603 -0.1847
11468TIP3    H255896   6.081   4.087   5.506 -0.3204 -0.7094  1.1266
11469TIP3   OH255897   3.062   3.914  13.913 -0.3530  0.1692 -0.1323
11469TIP3    H155898   3.084   3.987  13.854  0.5737 -0.0754 -0.1100
11469TIP3    H255899   2.987   3.872  13.872 -0.2681  0.5318 -0.6782
11470TIP3   OH255900   4.380   6.109  12.606 -0.1037  0.2696  0.3427
11470TIP3    H155901   4.435   6.134  12.680  2.0189 -1.4498 -0.5451
11470TIP3    H255902   4.360   6.017  12.622 -1.5955  0.4946 -0.0906
11471TIP3   OH255903   3.614   3.515   1.943 -0.0022  0.1123 -0.0273
11471TIP3    H155904   3.520   3.532   1.936 -0.6598 -2.4533  1.2053
11471TIP3    H255905   3.626   3.429   1.902  1.3720 -0.6356  1.8051
11472TIP3   OH255906   4.780   2.441   2.535  0.3385 -0.0993  0.5999
11472TIP3    H155907   4.752   2.532   2.543  0.6694 -0.0065  0.7026
11472TIP3    H255908   4.709   2.398   2.487 -0.3274 -0.0356  1.5012
11473TIP3   OH255909   0.217   0.655  14.011 -0.0018 -0.4195 -0.6391
11473TIP3    H155910   0.187   0.660  13.921 -0.4436 -2.1800 -0.6199
11473TIP3    H255911   0.245   0.564  14.023  1.5964  0.1733  0.5318
11474TIP3   OH255912   5.621   2.491   0.654 -0.0745 -0.0048  0.2974
11474TIP3    H155913   5.534   2.511   0.687  0.0182 -0.5348  0.8988
11474TIP3    H255914   5.629   2.542   0.573  0.3641  2.9007  1.9966
11475TIP3   OH255915   6.272   4.431  12.648  0.2196 -0.3825 -0.6478
11475TIP3    H155916   6.246   4.511  12.603  1.2790  0.3613  0.0389
11475TIP3    H255917   6.279   4.455  12.740  0.9740 -1.1458 -0.4911
11476TIP3   OH255918   5.288   1.809  15.744 -0.3590  0.0416 -0.3870
11476TIP3    H155919   5.277   1.720  15.709  0.7327 -0.0668 -0.4983
11476TIP3    H255920   5.360   1.845  15.694 -0.7816  0.9989 -0.3230
11477TIP3   OH255921   4.504   1.060  17.113 -0.3387 -0.3197 -0.5197
11477TIP3    H155922   4.560   1.124  17.158  1.6223 -1.0184 -1.7997
11477TIP3    H255923   4.421   1.106  17.100 -0.1192  0.7723  1.4862
11478TIP3   OH255924   6.392   2.872   0.075  0.5281 -0.4979 -0.0412
11478TIP3    H155925   6.419   2.850   0.164  1.3488  0.2459 -0.0888
11478TIP3    H255926   6.309   2.827   0.063  0.4951 -0.7522  1.0401
11479TIP3   OH255927   2.696   2.335  12.084  0.4517 -0.5669  0.2411
11479TIP3    H155928   2.776   2.376  12.052  0.2703 -1.7176 -1.8592
11479TIP3    H255929   2.631   2.405  12.082  1.1174  0.0954  0.9079
11480TIP3   OH255930   3.323   6.574  16.341  0.2305 -0.6760 -0.2289
11480TIP3    H155931   3.290   6.505  16.398  1.2496 -1.2072 -0.2571
11480TIP3    H255932   3.349   6.644  16.401 -1.6788  0.1210 -0.2463
11481TIP3   OH255933   3.565   1.264  16.895 -0.0814  0.4249 -0.0853
11481TIP3    H155934   3.655   1.294  16.880 -0.5927  3.0445  1.4917
11481TIP3    H255935   3.575   1.172  16.920  2.1741  0.6688  0.1571
11482TIP3   OH255936   6.350   4.517   5.458 -0.4228  0.0857 -0.1137
11482TIP3    H155937   6.433   4.533   5.413  0.5159 -0.0943  1.4903
11482TIP3    H255938   6.375   4.484   5.544 -2.1782 -0.4329  0.2385
11483TIP3   OH255939   3.125   3.927  12.962 -0.6975 -0.2094 -0.0427
11483TIP3    H155940   3.057   3.927  13.029  0.9928  1.7278  1.8096
11483TIP3    H255941   3.095   3.992  12.898 -0.9516  0.0944  0.3730
11484TIP3   OH255942   6.046   6.681  13.782 -0.4617  0.1607  0.5970
11484TIP3    H155943   6.078   6.594  13.806  1.2129  0.3473 -0.8069
11484TIP3    H255944   6.100   6.741  13.833 -0.1239  0.4206 -0.0577
11485TIP3   OH255945   1.520   1.352  15.566  0.1714  0.0744  0.3624
11485TIP3    H155946   1.585   1.334  15.634  0.5324 -0.1233 -0.0316
11485TIP3    H255947   1.498   1.444  15.577  0.6707  0.1957  0.3681
11486TIP3   OH255948   2.922   4.705  16.888  0.0416 -0.4414 -0.0457
11486TIP3    H155949   2.981   4.779  16.903  0.6852 -0.9320 -0.1434
11486TIP3    H255950   2.865   4.735  16.817  1.1582 -0.5211 -1.0052
11487TIP3   OH255951   4.338   1.343  16.604  0.1147 -0.1688 -0.3524
11487TIP3    H155952   4.251   1.305  16.617  0.0548 -0.0614 -0.4387
11487TIP3    H255953   4.398   1.275  16.634  0.0007 -0.2381 -0.2808
11488TIP3   OH255954   6.251   6.754  14.165 -0.2490  0.0044  0.2194
11488TIP3    H155955   6.282   6.673  14.205  0.2205 -0.1046 -0.3651
11488TIP3    H255956   6.213   6.727  14.081 -1.7809  0.1514  0.8212
11489TIP3   OH255957   5.974   5.421  13.751 -0.0777 -0.2192 -0.3723
11489TIP3    H155958   5.951   5.505  13.791  0.4388 -0.4376  0.3945
11489TIP3    H255959   6.069   5.415  13.760 -0.1934 -1.2373  0.2875
11490TIP3   OH255960   1.862   0.636  10.425  0.0220  0.2753 -0.1214
11490TIP3    H155961   1.900   0.560  10.468 -0.7582 -0.6519 -1.0322
11490TIP3    H255962   1.837   0.694  10.497 -1.3569 -1.2849  0.7378
11491TIP3   OH255963   4.069   4.012  13.180 -0.0534 -0.5828  0.2053
11491TIP3    H155964   4.153   4.036  13.140 -0.7181 -0.8433 -1.4372
11491TIP3    H255965   4.049   4.084  13.238  0.9037 -0.1075 -0.0283
11492TIP3   OH255966   3.333   5.463   6.436  0.2496  0.3687  0.0805
11492TIP3    H155967   3.256   5.464   6.378  0.7718  0.2682 -0.6199
11492TIP3    H255968   3.326   5.380   6.483  0.6250 -0.2601 -0.9417
11493TIP3   OH255969   1.595   0.042  15.535  0.0873  0.1911  0.0220
11493TIP3    H155970   1.668   0.049  15.473  0.6134 -0.7886  0.5226
11493TIP3    H255971   1.524   0.091  15.493  0.8237  0.6049 -0.7727
11494TIP3   OH255972   4.058   0.710  12.636  0.2187  0.5828 -0.0982
11494TIP3    H155973   4.023   0.776  12.696 -1.1174 -0.2074  0.0179
11494TIP3    H255974   4.023   0.735  12.550 -2.4063 -1.3038  0.2995
11495TIP3   OH255975   6.269   4.836   3.051  0.1454  0.5134  0.3459
11495TIP3    H155976   6.325   4.909   3.078  2.3568 -0.3228 -1.6859
11495TIP3    H255977   6.225   4.868   2.972  1.2882 -0.3750 -0.6781
11496TIP3   OH255978   6.653   4.488   6.287 -0.0934  0.3745  0.0294
11496TIP3    H155979   6.699   4.565   6.253  1.9900  0.1181  1.9995
11496TIP3    H255980   6.715   4.416   6.275 -1.4234 -0.7283 -0.4333
11497TIP3   OH255981   3.144   3.064  14.218  0.0250 -0.0909  0.4918
11497TIP3    H155982   3.101   2.997  14.271  0.7629 -1.0739 -0.1308
11497TIP3    H255983   3.072   3.117  14.184 -0.6773 -1.3781 -0.0939
11498TIP3   OH255984   4.630   2.276   1.436  0.0287 -0.4281  0.2513
11498TIP3    H155985   4.697   2.234   1.490 -0.2705  0.1674  1.1216
11498TIP3    H255986   4.586   2.204   1.391  0.6859 -0.8917  0.3405
11499TIP3   OH255987   1.589   2.329  13.661 -0.4731  0.6907 -0.0389
11499TIP3    H155988   1.556   2.292  13.743 -1.0147  1.0372 -0.0957
11499TIP3    H255989   1.680   2.299  13.656 -1.2934 -1.9230 -0.8216
11500TIP3   OH255990   4.886   0.829  15.261 -0.6757  0.3215 -0.2579
11500TIP3    H155991   4.889   0.742  15.221 -1.6161  0.4868 -0.7086
11500TIP3    H255992   4.950   0.825  15.332 -1.3164 -1.0235  0.2755
11501TIP3   OH255993   4.824   1.076   2.621  0.2272  0.0101 -0.0801
11501TIP3    H155994   4.772   1.108   2.695  0.0542 -0.4943  0.0185
11501TIP3    H255995   4.811   0.981   2.622 -1.0778  0.1182 -1.7106
11502TIP3   OH255996   0.944   0.901   2.688 -0.0641 -0.0307 -0.1535
11502TIP3    H155997   0.917   0.989   2.662 -0.4374 -0.2159 -0.4083
11502TIP3    H255998   1.031   0.890   2.648 -0.5309 -0.2264 -1.1513
11503TIP3   OH255999   5.795   1.941  12.004  0.2500  0.8007 -0.0540
11503TIP3    H156000   5.727   1.947  11.938  1.1078 -1.6018 -1.2762
11503TIP3    H256001   5.767   1.868  12.060  2.4142 -1.2985 -1.5001
11504TIP3   OH256002   1.510   0.355  16.194 -0.0580  0.3049  0.0847
11504TIP3    H156003   1.425   0.348  16.150  0.0510  1.7697 -0.3914
11504TIP3    H256004   1.569   0.388  16.127  0.4800  1.0377  0.9023
11505TIP3   OH256005   2.103   2.242   5.450 -0.6084  0.1036 -0.1074
11505TIP3    H156006   2.095   2.311   5.515 -0.8945 -0.6087  0.6242
11505TIP3    H256007   2.048   2.271   5.377 -2.1521 -0.1528  0.9106
11506TIP3   OH256008   5.357   0.712   2.530 -0.1582 -0.3002 -0.0239
11506TIP3    H156009   5.292   0.741   2.466 -0.7086 -0.5731  0.4018
11506TIP3    H256010   5.386   0.627   2.496  1.2231  0.5520 -1.0999
11507TIP3   OH256011   0.351   0.304   3.321 -0.6238  0.3651 -0.2443
11507TIP3    H156012   0.352   0.239   3.251  2.5945  1.6252 -1.6003
11507TIP3    H256013   0.410   0.268   3.387 -0.9302  0.7156  0.2183
11508TIP3   OH256014   0.754   2.667  15.366  0.2884 -0.6302 -0.6508
11508TIP3    H156015   0.674   2.639  15.411 -0.3830  0.3596 -1.1695
11508TIP3    H256016   0.810   2.701  15.436  0.5787 -1.9994 -0.1894
11509TIP3   OH256017   1.464   2.940  11.332 -0.2318  0.0540 -0.7292
11509TIP3    H156018   1.498   3.004  11.270  1.0893 -0.3700 -0.4741
11509TIP3    H256019   1.520   2.864  11.321 -0.0996 -0.1108  0.8244
11510TIP3   OH256020   0.371   0.263   3.013  0.0715  0.2586  0.1486
11510TIP3    H156021   0.391   0.314   2.935  1.2890 -1.5854 -0.8269
11510TIP3    H256022   0.276   0.269   3.022 -0.1805 -0.0619 -1.9127
11511TIP3   OH256023   2.166   3.850  14.836 -0.2882  0.0411  0.6048
11511TIP3    H156024   2.249   3.880  14.798 -0.1033 -1.0888  0.0467
11511TIP3    H256025   2.103   3.857  14.764 -0.0958 -1.4347  0.2474
11512TIP3   OH256026   2.808   0.040  16.362  0.2049 -0.5316  0.1530
11512TIP3    H156027   2.903   0.047  16.373  0.3580 -0.3412 -1.1171
11512TIP3    H256028   2.794   0.056  16.269 -1.0757 -0.6157  0.3190
11513TIP3   OH256029   0.146   2.924   2.104  0.1080  0.2802 -0.6760
11513TIP3    H156030   0.164   2.996   2.164  0.3533  1.0532 -1.6598
11513TIP3    H256031   0.065   2.948   2.060 -0.5660 -0.7125 -0.0430
11514TIP3   OH256032   1.494   0.785   2.611 -0.4152 -0.3952 -0.8654
11514TIP3    H156033   1.436   0.717   2.577  0.2633 -0.8256 -1.1928
11514TIP3    H256034   1.555   0.801   2.539  0.8009 -1.0367 -0.0052
11515TIP3   OH256035   1.091   1.888   2.098 -0.3234  0.0948  0.5846
11515TIP3    H156036   1.108   1.870   2.191 -0.0339 -0.0660  0.4991
11515TIP3    H256037   1.063   1.804   2.062 -0.6043  0.1958  0.5633
11516TIP3   OH256038   2.625   0.733  13.198  0.1380 -0.4840 -0.1010
11516TIP3    H156039   2.591   0.643  13.204  0.4760 -0.6088 -0.0654
11516TIP3    H256040   2.699   0.727  13.138  0.5336 -0.3389  0.3655
11517TIP3   OH256041   2.394   6.085   3.103  0.4637  0.2289 -0.1661
11517TIP3    H156042   2.341   6.165   3.102  0.5443  0.3029  0.7991
11517TIP3    H256043   2.422   6.074   3.012 -0.7219  0.5071 -0.5858
11518TIP3   OH256044   2.272   1.355   2.291  0.0583  0.4931 -0.4864
11518TIP3    H156045   2.258   1.377   2.199  0.6098  0.4177 -0.5957
11518TIP3    H256046   2.368   1.355   2.301  0.0330 -0.4157 -0.1360
11519TIP3   OH256047   3.489   1.854  14.135 -0.1555 -0.1827 -0.1020
11519TIP3    H156048   3.459   1.918  14.199  0.9626  1.2268 -0.9459
11519TIP3    H256049   3.478   1.897  14.050 -2.4860 -2.3453 -1.0281
11520TIP3   OH256050   5.210   4.455  13.152 -0.5328  0.4109  0.3658
11520TIP3    H156051   5.142   4.444  13.087  1.2213  0.1119 -1.5319
11520TIP3    H256052   5.240   4.545  13.141  2.3446 -0.6657 -2.0827
11521TIP3   OH256053   1.232   1.044   1.924 -0.0229  0.2708  0.2116
11521TIP3    H156054   1.299   1.011   1.983 -0.2173 -1.4498 -0.4898
11521TIP3    H256055   1.280   1.098   1.861  0.6574 -0.6092 -0.0351
11522TIP3   OH256056   0.688   4.103   4.097  0.2329  0.2685  0.1673
11522TIP3    H156057   0.701   4.052   4.017 -0.3478  2.0431 -1.1206
11522TIP3    H256058   0.731   4.186   4.080 -0.2499  0.8329  1.5607
11523TIP3   OH256059   2.356   2.687  14.817 -0.3383 -0.0503 -1.1405
11523TIP3    H156060   2.438   2.687  14.867  0.9994  0.7855 -3.2211
11523TIP3    H256061   2.294   2.735  14.873  1.0474  0.7441 -0.2294
11524TIP3   OH256062   3.102   6.405  13.833  0.0293 -0.1830 -1.1722
11524TIP3    H156063   3.106   6.459  13.912  2.0484  0.3075 -1.5576
11524TIP3    H256064   3.114   6.467  13.761 -1.6105 -0.6468 -1.8930
11525TIP3   OH256065   5.899   3.174   2.639 -0.5712  0.4282 -0.1488
11525TIP3    H156066   5.814   3.214   2.658 -0.5930 -0.3133  1.4496
11525TIP3    H256067   5.919   3.122   2.716  0.1705 -1.4241 -1.5054
11526TIP3   OH256068   1.683   2.385  16.282  0.2877 -0.2323 -0.1097
11526TIP3    H156069   1.720   2.473  16.288 -0.8585  0.2114  0.6848
11526TIP3    H256070   1.727   2.336  16.351 -2.0366  0.8625  2.3012
11527TIP3   OH256071   3.627   6.657   1.808  0.3613 -0.1325  0.1148
11527TIP3    H156072   3.656   6.711   1.882  0.9261 -0.8719  0.4470
11527TIP3    H256073   3.651   6.567   1.833 -1.7806 -0.7307  0.1775
11528TIP3   OH256074   0.342   0.020   4.981 -0.5818 -0.1354  0.0005
11528TIP3    H156075   0.270   0.009   5.043 -0.2088  0.2953  0.5183
11528TIP3    H256076   0.332   0.110   4.949  0.3359  0.2836  0.8630
11529TIP3   OH256077   6.355   1.383   0.079 -0.0638 -0.5364 -0.5521
11529TIP3    H156078   6.429   1.378   0.140 -1.2210  0.2071  0.9724
11529TIP3    H256079   6.359   1.472   0.044 -3.3077  1.7587  3.8248
11530TIP3   OH256080   0.481   0.324   2.008 -0.3725  0.3056 -0.4919
11530TIP3    H156081   0.509   0.267   2.080  0.5435  1.4161  0.0622
11530TIP3    H256082   0.507   0.277   1.929 -0.2856 -0.3784 -0.0685
11531TIP3   OH256083   0.167   4.792  16.618 -0.2386 -0.5232 -0.2981
11531TIP3    H156084   0.132   4.714  16.574 -3.3177 -0.3957  1.6271
11531TIP3    H256085   0.100   4.859  16.604  1.1024  1.0050  0.3522
11532TIP3   OH256086   0.240   1.193  10.553  0.6433 -0.0136  0.1218
11532TIP3    H156087   0.246   1.165  10.645  1.6569 -0.8919 -0.1815
11532TIP3    H256088   0.328   1.225  10.533  0.4312  0.1565 -0.5544
11533TIP3   OH256089   4.436   4.936   5.689 -0.0676 -0.0956  0.2246
11533TIP3    H156090   4.390   4.967   5.611  0.0338  0.5252  0.4074
11533TIP3    H256091   4.499   4.873   5.656 -0.3367 -0.1777 -0.1447
11534TIP3   OH256092   0.363   3.919   0.765 -0.6066 -0.2756  0.4361
11534TIP3    H156093   0.351   3.829   0.735  0.6230 -0.2756 -0.1182
11534TIP3    H256094   0.428   3.956   0.705 -1.0485  0.9680  0.6923
11535TIP3   OH256095   6.105   6.156   2.965  0.7752 -0.3301  0.1906
11535TIP3    H156096   6.146   6.192   2.887  1.0952 -2.0372 -0.4715
11535TIP3    H256097   6.153   6.075   2.983 -2.6216 -2.9048 -1.1095
11536TIP3   OH256098   4.633   4.638   0.004  0.8657 -0.0446 -0.9512
11536TIP3    H156099   4.639   4.572   0.073  1.9722  1.1662  0.1701
11536TIP3    H256100   4.721   4.677   0.000  0.6197  0.4337 -2.5416
11537TIP3   OH256101   1.906   6.148  13.925 -0.0835 -0.0844  0.2454
11537TIP3    H156102   1.858   6.096  13.990 -1.1232  1.0879  0.4491
11537TIP3    H256103   1.963   6.084  13.882 -1.4561 -1.4477  0.3305
11538TIP3   OH256104   4.564   0.165  16.342  0.2363 -0.1618  0.1263
11538TIP3    H156105   4.555   0.201  16.430 -1.6476 -0.3435  0.0493
11538TIP3    H256106   4.496   0.208  16.291  0.3118 -1.1670 -0.8703
11539TIP3   OH256107   3.208   5.533  15.244  0.2657  0.7334 -0.4191
11539TIP3    H156108   3.181   5.625  15.238 -1.3891  0.1944 -2.5950
11539TIP3    H256109   3.168   5.501  15.325 -0.5839  1.5252 -0.5087
11540TIP3   OH256110   4.180   4.657  16.608 -0.1883 -0.5605  0.2774
11540TIP3    H156111   4.144   4.743  16.587  0.4469 -0.4570 -0.4471
11540TIP3    H256112   4.204   4.620  16.523  1.2277 -0.7003  0.7170
11541TIP3   OH256113   0.820   2.703   0.482  0.4523  0.1579 -0.0175
11541TIP3    H156114   0.773   2.712   0.565  1.2537  0.1819  0.4475
11541TIP3    H256115   0.912   2.709   0.507  0.7098 -0.2055 -0.8698
11542TIP3   OH256116   4.688   1.134  13.545  0.5318  0.0620  0.0734
11542TIP3    H156117   4.763   1.114  13.489  0.5919  0.4844 -0.0005
11542TIP3    H256118   4.619   1.161  13.485  0.2153 -0.6297  0.1180
11543TIP3   OH256119   3.658   4.298  15.317 -0.3487 -0.4232  0.2165
11543TIP3    H156120   3.715   4.224  15.296 -0.5520 -0.7404  0.7421
11543TIP3    H256121   3.696   4.372  15.271 -1.0160 -1.1651 -1.6157
11544TIP3   OH256122   2.042   0.460   3.561 -0.3795 -0.8742 -0.6996
11544TIP3    H156123   2.040   0.556   3.567  2.8765 -0.7779  1.1376
11544TIP3    H256124   2.058   0.443   3.469  2.5390  0.6472 -0.6105
11545TIP3   OH256125   2.992   0.829  15.775 -0.7760 -0.0757  0.1656
11545TIP3    H156126   2.921   0.780  15.735 -1.5174  2.0578 -1.3375
11545TIP3    H256127   3.002   0.906  15.719 -0.4829  2.1118  2.9907
11546TIP3   OH256128   3.731   5.453  15.568 -0.8701  0.3558  0.2705
11546TIP3    H156129   3.652   5.409  15.598 -1.8016  1.8449  0.1208
11546TIP3    H256130   3.714   5.546  15.584  0.6668  0.7430 -0.1893
11547TIP3   OH256131   0.019   1.404  14.574  0.4542 -0.5969 -0.6212
11547TIP3    H156132   0.048   1.330  14.628  0.0470 -0.6752 -0.5068
11547TIP3    H256133  -0.071   1.383  14.552 -0.3623  0.8353  1.1221
11548TIP3   OH256134   2.421   6.693   6.082 -0.5473 -0.8583 -0.1625
11548TIP3    H156135   2.438   6.732   5.996 -0.3800 -1.2734 -0.3233
11548TIP3    H256136   2.342   6.737   6.114  0.9767  1.3872  0.7514
11549TIP3   OH256137   1.314   1.199  12.320  0.2398 -0.3656 -0.0926
11549TIP3    H156138   1.268   1.237  12.395 -1.0428  1.2134 -1.5944
11549TIP3    H256139   1.406   1.219  12.336 -0.1262  0.9468  0.5319
11550TIP3   OH256140   5.264   4.736  15.679  0.6219 -0.1552 -0.3857
11550TIP3    H156141   5.350   4.724  15.721  0.4777 -0.6428 -0.2258
11550TIP3    H256142   5.203   4.689  15.735 -0.0261  1.5246  0.3974
11551TIP3   OH256143   0.119   3.154  12.502  0.2588  0.3803 -0.2119
11551TIP3    H156144   0.155   3.224  12.557  0.9217 -0.7419  0.8356
11551TIP3    H256145   0.029   3.181  12.484 -0.2939  0.3768  2.1890
11552TIP3   OH256146   1.193   4.325   0.431 -0.1444  0.0452 -0.3116
11552TIP3    H156147   1.134   4.308   0.358  0.8462  1.1718 -1.4089
11552TIP3    H256148   1.200   4.240   0.476 -0.8743 -0.6362 -1.4369
11553TIP3   OH256149   5.059   6.350  15.775  0.4890 -0.2919  0.8318
11553TIP3    H156150   4.979   6.328  15.822  0.8728  0.5345  1.9097
11553TIP3    H256151   5.105   6.267  15.765  0.0236 -0.5963  1.1938
11554TIP3   OH256152   4.304   0.709   1.545 -0.0203 -0.0982  0.4880
11554TIP3    H156153   4.355   0.727   1.466 -0.1817  0.6858  0.5565
11554TIP3    H256154   4.341   0.768   1.611 -1.1616  0.6469  0.4829
11555TIP3   OH256155   0.057   2.370   4.774  0.2804  0.5118  0.9074
11555TIP3    H156156   0.078   2.280   4.751  0.0971  0.7584 -0.2487
11555TIP3    H256157  -0.030   2.365   4.814 -0.0935  0.2796  0.0760
11556TIP3   OH256158   2.920   6.200  13.683  0.4029 -0.2711 -0.2137
11556TIP3    H156159   2.869   6.164  13.755  0.3506  0.8552  0.3284
11556TIP3    H256160   2.994   6.243  13.725  1.3450 -1.1454 -0.9466
11557TIP3   OH256161   3.935   2.106  11.613  0.1694 -0.5483  0.2541
11557TIP3    H156162   4.013   2.101  11.668  1.7628  0.2356 -1.7916
11557TIP3    H256163   3.914   2.015  11.593  0.0512 -0.8005  1.4647
11558TIP3   OH256164   1.943   6.596   1.450  0.1036  0.1799 -0.3574
11558TIP3    H156165   2.028   6.556   1.433 -0.7116 -1.0796 -1.6600
11558TIP3    H256166   1.937   6.669   1.388 -0.7163 -1.2184 -2.0063
11559TIP3   OH256167   0.290   1.336   5.910 -0.2907  0.4527  0.3905
11559TIP3    H156168   0.240   1.336   5.829  0.6413  0.3384 -0.2067
11559TIP3    H256169   0.225   1.348   5.979 -0.9611  2.0420 -0.4595
11560TIP3   OH256170   2.429   4.953  12.273 -1.0939 -0.1587  0.0035
11560TIP3    H156171   2.374   5.024  12.305 -2.1138 -1.1628  0.5659
11560TIP3    H256172   2.453   4.979  12.184 -1.9828  0.5921 -0.0296
11561TIP3   OH256173   3.370   4.515  12.188  0.0604  0.5402 -0.0623
11561TIP3    H156174   3.326   4.541  12.268 -2.7802  0.3121 -1.4193
11561TIP3    H256175   3.356   4.420  12.182  0.0765  0.5814 -0.9198
11562TIP3   OH256176   1.462   5.970   1.649 -0.3894  0.3231 -0.2643
11562TIP3    H156177   1.523   5.936   1.715 -0.4333  0.7308 -0.0131
11562TIP3    H256178   1.483   5.920   1.570  1.1802  1.3706 -0.5459
11563TIP3   OH256179   1.831   1.464   3.609  0.1590 -0.1496  0.1861
11563TIP3    H156180   1.825   1.507   3.524 -1.1870  1.6442  1.1175
11563TIP3    H256181   1.904   1.403   3.601  0.3728  0.3500 -2.0793
11564TIP3   OH256182   6.059   5.076   3.711 -0.5758  0.0930  0.0679
11564TIP3    H156183   6.006   5.017   3.659 -2.1232  0.2235  1.4146
11564TIP3    H256184   6.041   5.051   3.802  1.0592  0.6815  0.5831
11565TIP3   OH256185   0.965   4.247   6.279  0.3807 -0.2730  0.0623
11565TIP3    H156186   0.930   4.325   6.322 -0.2871  0.5708 -1.9244
11565TIP3    H256187   1.059   4.251   6.297  0.0278 -0.5641  2.3121
11566TIP3   OH256188   2.026   6.051   0.882 -0.4294  0.0267  0.0450
11566TIP3    H156189   1.967   6.117   0.845  0.4739  0.5260 -0.5311
11566TIP3    H256190   2.100   6.048   0.822 -0.3615 -1.3866  0.1754
11567TIP3   OH256191   2.971   3.815   0.805  0.1786 -0.1179  0.3601
11567TIP3    H156192   2.912   3.776   0.870  0.9716 -1.5667  0.2658
11567TIP3    H256193   2.937   3.903   0.791 -2.2811 -1.0536 -0.0915
11568TIP3   OH256194   4.417   2.747  13.633 -0.5786  0.2624  0.5528
11568TIP3    H156195   4.322   2.743  13.619 -0.4053  0.5821 -0.8200
11568TIP3    H256196   4.452   2.785  13.553  0.9858 -2.3180 -0.1140
11569TIP3   OH256197   0.446   3.016   2.625 -0.0609 -0.4050 -0.0089
11569TIP3    H156198   0.428   3.052   2.712 -0.8929 -1.0981  0.1209
11569TIP3    H256199   0.536   3.043   2.606  0.7528 -1.6632  1.7889
11570TIP3   OH256200   1.580   3.637   4.889  0.1467 -0.4748 -0.5117
11570TIP3    H156201   1.604   3.547   4.913 -0.6082 -0.7198 -0.6355
11570TIP3    H256202   1.518   3.664   4.957  0.3204 -0.0694 -0.5120
11571TIP3   OH256203   0.616   5.321  13.536 -0.8128 -0.1016 -0.1696
11571TIP3    H156204   0.577   5.359  13.615 -0.5035  1.0387 -0.5416
11571TIP3    H256205   0.565   5.357  13.464 -2.4561 -2.7709 -0.4604
11572TIP3   OH256206   2.595   0.493  16.751  0.6660 -0.1480  0.6244
11572TIP3    H156207   2.540   0.494  16.673  1.9607  1.0129 -0.3054
11572TIP3    H256208   2.679   0.527  16.722  0.5409  2.5113  2.9782
11573TIP3   OH256209   6.298   6.374  14.649 -0.4503  0.2782 -0.4002
11573TIP3    H156210   6.342   6.291  14.667  0.8858  0.8089 -1.0853
11573TIP3    H256211   6.233   6.354  14.582  1.5836  0.2164 -2.4457
11574TIP3   OH256212   0.043   2.791  14.846 -0.0377  0.6439  0.0952
11574TIP3    H156213   0.047   2.849  14.770  0.4632 -1.0574 -1.2452
11574TIP3    H256214  -0.044   2.751  14.841  0.0250  0.4703  0.3739
11575TIP3   OH256215   1.829   0.561   1.989 -0.3365  0.0337  0.0507
11575TIP3    H156216   1.761   0.535   1.927 -0.5241  1.5795 -0.4103
11575TIP3    H256217   1.887   0.484   1.993 -0.8217 -0.4421 -1.3254
11576TIP3   OH256218   3.907   2.239   4.812  0.4490 -0.0900  0.2617
11576TIP3    H156219   3.946   2.152   4.806  1.0637  0.2202 -0.4283
11576TIP3    H256220   3.826   2.226   4.862  0.1593 -1.1803 -0.4500
11577TIP3   OH256221   6.335   5.224  12.252 -0.3659 -0.2000 -0.2798
11577TIP3    H156222   6.298   5.243  12.165 -1.5054  0.4553  0.3322
11577TIP3    H256223   6.350   5.309  12.291 -0.8319 -0.4873  0.5583
11578TIP3   OH256224   3.324   3.056   3.849 -0.3064  0.4543 -0.1774
11578TIP3    H156225   3.376   3.118   3.799 -1.6221  0.7095 -1.2863
11578TIP3    H256226   3.383   3.025   3.918  0.9587  1.4980 -0.7534
11579TIP3   OH256227   5.876   6.768   4.853  0.3987 -0.4061  0.1662
11579TIP3    H156228   5.813   6.703   4.823  1.2297 -1.2265  0.1601
11579TIP3    H256229   5.961   6.735   4.824  0.8493  0.6378  0.2424
11580TIP3   OH256230   1.671   2.372  12.672  0.7182  0.4703  0.2911
11580TIP3    H156231   1.686   2.411  12.758 -2.3251 -2.0722  2.2040
11580TIP3    H256232   1.688   2.279  12.686 -0.6477 -0.1142 -1.6076
11581TIP3   OH256233   3.015   5.515  15.732  0.1349 -0.4911 -0.0133
11581TIP3    H156234   3.087   5.527  15.671  0.8286 -0.1737  0.8429
11581TIP3    H256235   3.052   5.463  15.804  0.8641  3.1609  2.5584
11582TIP3   OH256236   4.216   3.839   4.260 -0.5041 -0.5379  0.3077
11582TIP3    H156237   4.161   3.884   4.195  0.1903 -0.0519  0.0529
11582TIP3    H256238   4.172   3.854   4.343  0.7821  2.4429  0.5696
11583TIP3   OH256239   1.998   3.458  12.982 -0.0806  0.2628  0.2268
11583TIP3    H156240   2.031   3.526  13.041  1.7266  0.7499 -1.2233
11583TIP3    H256241   1.983   3.505  12.899  0.7261 -0.9887 -0.6630
11584TIP3   OH256242   4.777   5.663  14.932  0.2997  0.1174  0.2547
11584TIP3    H156243   4.858   5.613  14.929  1.0862  1.3881 -0.1865
11584TIP3    H256244   4.772   5.696  15.022  0.8735  0.9873 -0.0237
11585TIP3   OH256245   6.694   2.962  15.735 -0.1089  0.5742  0.3963
11585TIP3    H156246   6.779   2.939  15.770  0.0741 -0.3810 -0.5977
11585TIP3    H256247   6.713   3.009  15.654 -0.4788 -0.8724 -0.5835
11586TIP3   OH256248   2.949   0.663   5.845  0.3814  0.0848 -0.0685
11586TIP3    H156249   2.907   0.732   5.793 -0.7733  0.4498  1.2777
11586TIP3    H256250   2.880   0.599   5.860  1.4374 -1.4224 -1.2907
11587TIP3   OH256251   4.803   6.146   1.831 -0.0275  0.2174 -0.0606
11587TIP3    H156252   4.755   6.224   1.804 -0.4462  0.3469  1.0069
11587TIP3    H256253   4.816   6.097   1.750 -3.4217 -0.6276 -0.2495
11588TIP3   OH256254   5.873   0.994  11.259 -0.0551 -0.3144 -0.5269
11588TIP3    H156255   5.915   1.079  11.246 -0.7021 -0.1183 -1.4223
11588TIP3    H256256   5.782   1.008  11.230  0.4000 -1.9149 -3.0236
11589TIP3   OH256257   4.630   3.713   2.045  0.1067 -0.2391  0.3573
11589TIP3    H156258   4.591   3.638   2.090 -0.8646 -0.0159 -0.0879
11589TIP3    H256259   4.641   3.778   2.114 -0.0189 -0.4245  0.5552
11590TIP3   OH256260   6.031   5.303  17.161 -0.0155  0.1370  0.0259
11590TIP3    H156261   5.983   5.380  17.192  2.8391  1.3261  1.9537
11590TIP3    H256262   6.037   5.246  17.238  0.2321 -0.7508 -0.6353
11591TIP3   OH256263   2.311   3.849   0.982  0.3619  0.2725 -0.5769
11591TIP3    H156264   2.237   3.887   0.934 -0.2222 -1.1091 -0.8135
11591TIP3    H256265   2.353   3.924   1.024  0.0568  1.3470 -2.1080
11592TIP3   OH256266   4.521   0.404   0.820  0.4226  0.3233  0.5304
11592TIP3    H156267   4.563   0.399   0.734  1.9583  0.4454  1.2378
11592TIP3    H256268   4.482   0.318   0.834  1.9654 -0.4055  0.5660
11593TIP3   OH256269   1.204   0.200   5.016 -0.1593  0.3943 -0.4343
11593TIP3    H156270   1.237   0.118   5.053 -0.5014  0.6590  0.4978
11593TIP3    H256271   1.224   0.195   4.923  1.1891 -0.0996 -0.1408
11594TIP3   OH256272   5.717   6.500   1.469 -0.8546  0.1419 -0.2814
11594TIP3    H156273   5.625   6.507   1.494 -0.6187  0.9487  0.3751
11594TIP3    H256274   5.760   6.459   1.544 -0.1735  2.4339  0.6685
11595TIP3   OH256275   2.702   6.685  11.420 -0.1033  0.7402 -0.6232
11595TIP3    H156276   2.793   6.715  11.423  0.1962 -0.1746 -0.2283
11595TIP3    H256277   2.674   6.683  11.511  0.6218 -2.2465 -0.3459
11596TIP3   OH256278   3.722   3.910  16.022  0.0093 -0.5735 -0.4718
11596TIP3    H156279   3.752   3.935  16.110 -0.8205 -1.3270  0.0459
11596TIP3    H256280   3.788   3.946  15.963  0.0891  0.7485  0.3872
11597TIP3   OH256281   0.929   6.570   2.647  0.2420  0.1848 -0.3468
11597TIP3    H156282   0.889   6.618   2.574 -1.1642 -0.5380 -0.0909
11597TIP3    H256283   0.975   6.497   2.605  0.2471  0.3103 -0.5649
11598TIP3   OH256284   3.730   1.823   2.709 -0.3957 -0.4074 -0.1242
11598TIP3    H156285   3.662   1.765   2.674  0.1833 -0.1605 -1.7059
11598TIP3    H256286   3.701   1.841   2.799 -1.3650 -1.9270 -0.0869
11599TIP3   OH256287   6.515   6.714   0.548  0.5832 -0.7806 -0.2186
11599TIP3    H156288   6.565   6.654   0.603  0.7987 -0.7890 -0.4226
11599TIP3    H256289   6.426   6.710   0.583  1.0322  0.4795  1.2123
11600TIP3   OH256290   3.854   1.798   1.053  0.2702 -0.2110  0.5999
11600TIP3    H156291   3.839   1.854   0.976  0.9850  0.2362  0.7690
11600TIP3    H256292   3.828   1.853   1.127 -0.0154 -0.4879  0.7035
11601TIP3   OH256293   5.520   3.047  11.215  0.0408  0.3570  0.4070
11601TIP3    H156294   5.520   3.037  11.120 -0.8790 -1.1040  0.5291
11601TIP3    H256295   5.475   2.969  11.248  2.6230 -0.5561  2.1802
11602TIP3   OH256296   3.077   3.919   3.785  0.2925  0.2949 -0.0454
11602TIP3    H156297   3.002   3.923   3.725  0.8059  0.9554 -0.6590
11602TIP3    H256298   3.049   3.967   3.862 -0.5561 -0.9760  0.4707
11603TIP3   OH256299   6.261   6.351   1.901  1.0305  0.2782  0.3356
11603TIP3    H156300   6.210   6.429   1.925 -0.8339 -0.4983 -0.8437
11603TIP3    H256301   6.297   6.371   1.815  1.1120  0.0990  0.3267
11604TIP3   OH256302   5.531   6.119   5.554  0.2517 -0.0194 -0.1630
11604TIP3    H156303   5.574   6.133   5.469  0.3772 -0.3655 -0.1592
11604TIP3    H256304   5.535   6.205   5.597 -0.1348  0.2476 -0.6510
11605TIP3   OH256305   0.792   0.488   0.869  0.8742  0.2745 -0.3264
11605TIP3    H156306   0.696   0.484   0.866  0.8303  1.0815 -0.4522
11605TIP3    H256307   0.815   0.462   0.957  0.5192  0.2625 -0.2356
11606TIP3   OH256308   3.611   3.859   3.956  0.3383  0.0222 -0.1779
11606TIP3    H156309   3.642   3.877   3.867  1.0671  0.0999  0.0887
11606TIP3    H256310   3.678   3.896   4.013 -1.1811  1.9505  0.4586
11607TIP3   OH256311   2.625   2.402  14.145 -0.0027  0.1990 -0.2938
11607TIP3    H156312   2.714   2.370  14.159  0.2896  0.3237 -1.6934
11607TIP3    H256313   2.634   2.497  14.143 -0.3415  0.2584  0.5433
11608TIP3   OH256314   6.165   6.149  17.233  0.1702 -0.3381 -0.3556
11608TIP3    H156315   6.203   6.094  17.301 -1.2389 -2.0655 -0.8944
11608TIP3    H256316   6.126   6.223  17.281  2.3097  0.3980  0.3461
11609TIP3   OH256317   2.488   1.367   2.065  0.1947 -0.0457 -0.4600
11609TIP3    H156318   2.484   1.417   2.147  1.6292  0.4467 -0.6706
11609TIP3    H256319   2.534   1.424   2.004  2.2313 -1.7128 -0.6116
11610TIP3   OH256320   0.369   2.127   4.963  0.2518  0.2778  0.3482
11610TIP3    H156321   0.288   2.122   4.913  0.3227  1.2775  0.0986
11610TIP3    H256322   0.385   2.221   4.973 -0.1059  0.1341  2.8593
11611TIP3   OH256323   5.507   4.275  15.363  0.2825  0.8912  0.4008
11611TIP3    H156324   5.564   4.317  15.298  1.1978  1.9102  1.8122
11611TIP3    H256325   5.444   4.342  15.387  0.3933  0.7578  1.0775
11612TIP3   OH256326   2.485   5.492   0.189 -0.6233  0.5825 -0.0955
11612TIP3    H156327   2.485   5.396   0.191 -1.1829  0.5659  1.7534
11612TIP3    H256328   2.415   5.516   0.129 -0.4335 -0.1741 -0.6193
11613TIP3   OH256329   3.361   4.424  15.124 -0.3304  0.7712 -0.4391
11613TIP3    H156330   3.415   4.479  15.181  0.3058 -0.3301  0.0611
11613TIP3    H256331   3.271   4.442  15.151 -0.0085 -1.1689  2.3740
11614TIP3   OH256332   0.684   6.721   2.532 -0.5505  0.2401  0.2534
11614TIP3    H156333   0.610   6.763   2.487 -2.8675 -0.1292  3.3913
11614TIP3    H256334   0.745   6.793   2.550 -0.8525  0.8461 -0.9834
11615TIP3   OH256335   3.621   3.107  17.252 -0.0602  0.1007 -0.0441
11615TIP3    H156336   3.537   3.078  17.288 -0.3917 -1.7654 -2.1147
11615TIP3    H256337   3.684   3.092  17.322 -1.0153 -1.2498  0.5600
11616TIP3   OH256338   4.533   6.416   1.297  0.0216 -0.4304  0.2569
11616TIP3    H156339   4.545   6.440   1.205  0.5187 -1.0573  0.1458
11616TIP3    H256340   4.468   6.346   1.294  0.1177 -0.5243  0.3706
11617TIP3   OH256341   2.667   3.619   3.569  0.3261  0.0662 -0.4622
11617TIP3    H156342   2.635   3.687   3.510 -0.8103 -0.7966 -0.8701
11617TIP3    H256343   2.702   3.552   3.512 -1.4193 -1.0949 -0.2327
11618TIP3   OH256344   0.572   1.419  13.463  0.0260 -0.1609  0.4997
11618TIP3    H156345   0.510   1.389  13.530 -2.4526  1.5553 -0.8836
11618TIP3    H256346   0.626   1.484  13.508 -1.2496  0.5749  1.0190
11619TIP3   OH256347   4.855   0.577   5.884  0.1426 -0.1659 -0.3013
11619TIP3    H156348   4.913   0.651   5.903 -1.3529  0.7942  0.8342
11619TIP3    H256349   4.899   0.528   5.815  1.7382  1.1439 -0.2593
11620TIP3   OH256350   5.786   1.398   5.567  0.2863  0.1010  0.1380
11620TIP3    H156351   5.759   1.344   5.493 -0.9547  1.2519 -0.2866
11620TIP3    H256352   5.838   1.468   5.527  2.7675 -1.2609  0.7879
11621TIP3   OH256353   5.602   0.818  14.436 -0.0336 -0.0356  0.3518
11621TIP3    H156354   5.608   0.731  14.476  3.2057 -0.3300 -0.4842
11621TIP3    H256355   5.656   0.874  14.492 -0.6599  1.0598 -0.0906
11622TIP3   OH256356   5.813   2.079   5.976  0.4264 -0.2986  0.1952
11622TIP3    H156357   5.878   2.088   6.045  1.2277 -0.5656 -0.5096
11622TIP3    H256358   5.861   2.040   5.902  0.4450  2.9033 -1.6651
11623TIP3   OH256359   3.378   5.445  11.456 -0.3097 -0.1796 -0.2092
11623TIP3    H156360   3.335   5.374  11.502  1.6680 -1.4781 -0.2313
11623TIP3    H256361   3.461   5.408  11.426  0.8947  2.1706 -0.0705
11624TIP3   OH256362   2.499   4.094   2.687  0.4874 -0.1613  0.5455
11624TIP3    H156363   2.522   4.174   2.639 -3.0057  1.2195  0.9021
11624TIP3    H256364   2.483   4.029   2.618  2.0737 -0.2090  0.1929
11625TIP3   OH256365   6.057   2.099   4.845 -0.2051 -0.1498 -0.2494
11625TIP3    H156366   5.986   2.035   4.843  0.6223 -1.0872 -1.9478
11625TIP3    H256367   6.137   2.047   4.852  0.3906  0.8339  0.7094
11626TIP3   OH256368   6.000   3.705  12.216 -0.8067 -0.3808 -0.2807
11626TIP3    H156369   6.018   3.732  12.126 -1.3195 -0.9131 -0.5492
11626TIP3    H256370   5.911   3.736  12.233 -0.6617 -0.1678  0.0882
11627TIP3   OH256371   3.301   0.572   0.554  0.2010 -0.2034 -0.2426
11627TIP3    H156372   3.371   0.621   0.596  0.3733 -0.6303 -0.0289
11627TIP3    H256373   3.227   0.580   0.613 -0.0886  0.6616 -0.7032
11628TIP3   OH256374   2.463   3.836  14.025  0.2117  0.2372 -0.6350
11628TIP3    H156375   2.429   3.862  13.939  0.4667 -0.4212 -0.9427
11628TIP3    H256376   2.397   3.778  14.060 -0.8690  2.0570  0.5147
11629TIP3   OH256377   2.104   3.896  11.440  0.5040  0.7226  0.2840
11629TIP3    H156378   2.162   3.841  11.387 -1.2026 -1.0434  0.1429
11629TIP3    H256379   2.040   3.835  11.476 -1.3380  2.5870  0.3328
11630TIP3   OH256380   0.030   4.360   4.070  0.8552 -0.4213 -0.2658
11630TIP3    H156381   0.014   4.429   4.135  0.4877  1.0262 -1.8288
11630TIP3    H256382   0.089   4.400   4.006  1.3278 -1.8592 -0.7738
11631TIP3   OH256383   5.831   6.046  16.195  0.6357 -0.1119 -0.4428
11631TIP3    H156384   5.806   6.026  16.285  2.6127 -0.8765 -0.0063
11631TIP3    H256385   5.901   6.111  16.205  0.6931 -0.0154 -1.4471
11632TIP3   OH256386   1.022   4.860  14.952  0.1482 -0.3854  0.1042
11632TIP3    H156387   1.068   4.815  14.880 -0.0204 -0.3089 -0.0529
11632TIP3    H256388   0.995   4.790  15.011  0.2023 -0.4586  0.0430
11633TIP3   OH256389   4.242   5.063   5.488  0.0161 -0.0438  0.0020
11633TIP3    H156390   4.236   5.156   5.511  0.5852 -0.6016  2.8362
11633TIP3    H256391   4.274   5.063   5.398  2.0825  2.5242  0.5880
11634TIP3   OH256392   4.086   5.478  14.258  0.9425  0.0899 -0.3544
11634TIP3    H156393   4.163   5.493  14.202  0.3013  0.5695 -1.1334
11634TIP3    H256394   4.012   5.489  14.199  0.2641 -0.0680  0.4591
11635TIP3   OH256395   6.810   5.456   2.260  0.5307  0.2312 -0.2402
11635TIP3    H156396   6.849   5.376   2.226  1.0156 -0.4699  1.8229
11635TIP3    H256397   6.726   5.463   2.215  0.6883 -1.1900 -0.7973
11636TIP3   OH256398   4.858   3.351   1.047  0.0890  0.2176  0.1700
11636TIP3    H156399   4.902   3.292   1.108  0.7564  0.0996 -0.4123
11636TIP3    H256400   4.929   3.396   1.002 -0.4145  1.2753  0.4188
11637TIP3   OH256401   3.922   2.907   2.155 -0.3085 -0.2444 -0.4234
11637TIP3    H156402   3.886   2.994   2.170 -0.0003 -0.3554  1.1031
11637TIP3    H256403   3.867   2.848   2.206  1.2730 -0.5536  1.0181
11638TIP3   OH256404   0.936   6.727  15.883 -0.5623  0.4580  0.0737
11638TIP3    H156405   0.980   6.645  15.906 -1.3371 -0.4659 -1.5293
11638TIP3    H256406   0.890   6.754  15.962  0.5080 -0.1093  0.9123
11639TIP3   OH256407   2.412   3.281  13.882 -0.1403 -0.3899 -0.0283
11639TIP3    H156408   2.508   3.277  13.873 -0.2469 -1.3716 -0.9904
11639TIP3    H256409   2.380   3.281  13.792 -1.0233  2.5943  0.1625
11640TIP3   OH256410   5.987   4.509  11.583 -0.1449 -0.2605  0.1169
11640TIP3    H156411   6.050   4.579  11.567 -0.5909  0.2945  0.7388
11640TIP3    H256412   5.903   4.553  11.589 -0.8536 -1.1507 -2.2569
11641TIP3   OH256413   2.549   6.699   2.411  0.9312 -0.1114  0.2112
11641TIP3    H156414   2.489   6.668   2.478  0.2281  1.6492  0.4209
11641TIP3    H256415   2.604   6.623   2.393 -2.9992 -2.7740 -1.9964
11642TIP3   OH256416   2.809   6.066  15.860 -0.2752 -0.4775 -0.0260
11642TIP3    H156417   2.870   5.993  15.849  0.1299 -0.0899 -0.4045
11642TIP3    H256418   2.790   6.068  15.954  1.0772  0.0099  0.2518
11643TIP3   OH256419   6.565   3.731  17.046  0.6078  0.1031  0.1351
11643TIP3    H156420   6.594   3.816  17.079  2.1273 -0.7550  1.1579
11643TIP3    H256421   6.505   3.697  17.113  0.3244  0.1869 -0.0736
11644TIP3   OH256422   6.118   2.288  16.007  0.0392  0.1364 -0.1362
11644TIP3    H156423   6.082   2.373  16.035 -1.6674 -0.4816 -0.3476
11644TIP3    H256424   6.070   2.268  15.927  0.9258 -0.7194 -0.4619
11645TIP3   OH256425   3.813   4.915   2.967 -0.8238 -0.1425  0.0394
11645TIP3    H156426   3.867   4.893   3.043 -0.0200 -1.6825 -0.9170
11645TIP3    H256427   3.740   4.853   2.971 -0.8515 -0.1370 -0.3809
11646TIP3   OH256428   6.558   3.833  11.513  0.4800 -0.4629  0.1016
11646TIP3    H156429   6.627   3.769  11.495  1.0046 -0.4080  1.6950
11646TIP3    H256430   6.491   3.783  11.560 -0.3655 -0.4022 -0.9944
11647TIP3   OH256431   6.642   1.115   2.758  1.0630  0.1536 -0.1066
11647TIP3    H156432   6.674   1.090   2.671  0.2082  1.2342 -0.7503
11647TIP3    H256433   6.692   1.194   2.780  0.5600  0.4585 -0.0563
11648TIP3   OH256434   6.262   2.826   1.995  0.0031 -0.0787 -0.2766
11648TIP3    H156435   6.252   2.732   2.014  1.2737 -0.2955 -0.5991
11648TIP3    H256436   6.246   2.869   2.079 -1.5598 -0.5014 -0.3374
11649TIP3   OH256437   6.412   1.828  16.023  0.2513 -0.6450 -0.3977
11649TIP3    H156438   6.365   1.778  16.090  0.1275 -0.4367 -0.3297
11649TIP3    H256439   6.499   1.843  16.060 -0.5744  1.6541  0.8201
11650TIP3   OH256440   2.734   2.059  12.157  0.0461  0.3298 -0.7174
11650TIP3    H156441   2.809   2.033  12.102  1.0368  1.4570  0.0683
11650TIP3    H256442   2.728   2.154  12.147 -1.3723  0.2496 -0.8479
11651TIP3   OH256443   6.255   1.151   4.597 -0.4981 -0.1715 -0.3877
11651TIP3    H156444   6.294   1.079   4.648  0.8151  1.2686  0.7198
11651TIP3    H256445   6.244   1.114   4.509 -2.0519 -2.4665  0.6640
11652TIP3   OH256446   4.471   0.337  12.717 -0.2308 -0.7070 -0.1107
11652TIP3    H156447   4.482   0.415  12.771  0.6987 -0.8309 -0.1129
11652TIP3    H256448   4.533   0.274  12.753 -0.9473 -1.4482 -0.1285
11653TIP3   OH256449   1.362   0.941  16.735 -0.3444 -0.5195 -0.5263
11653TIP3    H156450   1.336   0.855  16.766 -1.2546 -0.2868 -0.6014
11653TIP3    H256451   1.437   0.925  16.678 -0.7161 -1.3026 -0.8079
11654TIP3   OH256452   1.313   3.567   5.463  0.6539  0.6228 -0.0947
11654TIP3    H156453   1.264   3.525   5.534 -0.8293 -0.5409 -1.7176
11654TIP3    H256454   1.385   3.507   5.446  0.5046  0.4598 -0.1562
11655TIP3   OH256455   3.312   2.932  14.004  0.1182 -0.3639 -0.3157
11655TIP3    H156456   3.281   2.954  14.092 -0.3850 -0.3541 -0.4904
11655TIP3    H256457   3.292   2.839  13.994  1.9102 -0.8422  0.2832
11656TIP3   OH256458   5.896   2.004   6.920  0.0721  0.0789 -0.4275
11656TIP3    H156459   5.845   2.082   6.901  1.4584  1.2718  0.5205
11656TIP3    H256460   5.981   2.037   6.949  0.7363 -1.7863 -0.0828
11657TIP3   OH256461   2.661   3.803   0.460 -0.0775 -0.0973  0.2559
11657TIP3    H156462   2.568   3.807   0.435  0.4931 -1.8773 -2.5666
11657TIP3    H256463   2.697   3.733   0.406  3.2792  1.5687  0.1128
11658TIP3   OH256464   3.004   0.218   3.582 -0.0343  0.4684  0.0159
11658TIP3    H156465   2.926   0.208   3.528 -1.5823  1.3543  1.9672
11658TIP3    H256466   3.066   0.155   3.547 -1.4343  0.0790 -1.9068
11659TIP3   OH256467   2.073   5.585   5.048 -0.2715  0.0326 -0.0326
11659TIP3    H156468   2.142   5.607   5.110 -0.0318 -1.7587  0.3967
11659TIP3    H256469   2.007   5.653   5.060  0.5833  0.7299  0.8833
11660TIP3   OH256470   2.007   5.839  17.221 -0.4110 -0.6519 -0.1320
11660TIP3    H156471   2.095   5.838  17.183  0.0827 -0.6176  0.9891
11660TIP3    H256472   2.006   5.766  17.283 -0.3674  0.7409  1.6016
11661TIP3   OH256473   3.383   1.752   0.847 -0.0286  0.1906  0.1542
11661TIP3    H156474   3.466   1.706   0.830 -0.0702  0.4371 -0.7627
11661TIP3    H256475   3.371   1.808   0.770 -1.1016  0.0805  0.2351
11662TIP3   OH256476   1.359   0.276  16.680  0.1223  0.0261  0.1206
11662TIP3    H156477   1.427   0.243  16.738  1.2183  1.8609 -0.0560
11662TIP3    H256478   1.296   0.319  16.739 -0.1569 -0.4224  0.1579
11663TIP3   OH256479   6.404   2.101   4.827  0.3100 -0.4658  0.1705
11663TIP3    H156480   6.387   2.169   4.763 -1.2750 -1.4573 -0.5188
11663TIP3    H256481   6.389   2.144   4.912 -2.1708 -0.2858 -0.2911
11664TIP3   OH256482   1.855   1.973  12.255  0.2405  0.2831 -0.4122
11664TIP3    H156483   1.887   1.978  12.165  3.3206 -2.8940  0.2944
11664TIP3    H256484   1.811   1.888  12.261 -0.7510  0.8517  0.8729
11665TIP3   OH256485   0.227   3.044  17.297 -0.0410  0.0323 -0.0593
11665TIP3    H156486   0.160   3.102  17.260 -0.2965 -0.7753 -0.9100
11665TIP3    H256487   0.216   2.961  17.250 -0.6870 -1.2205  2.1067
11666TIP3   OH256488   5.385   3.487   0.509 -0.7542  0.2745  0.4583
11666TIP3    H156489   5.345   3.573   0.523 -2.3022  0.0278 -1.8793
11666TIP3    H256490   5.315   3.435   0.469  0.9730 -1.2186 -0.7445
11667TIP3   OH256491   6.284   6.049   0.189  0.3648 -0.2904 -0.4803
11667TIP3    H156492   6.232   5.973   0.217 -1.0430  1.1828  1.1336
11667TIP3    H256493   6.334   6.073   0.266  0.8436  0.3869 -0.9971
11668TIP3   OH256494   5.208   6.097  17.197  1.2196 -1.0272  0.4575
11668TIP3    H156495   5.119   6.063  17.187  0.9729  0.1263 -1.9004
11668TIP3    H256496   5.200   6.169  17.259  0.1642  0.1176 -0.9554
11669TIP3   OH256497   1.705   2.472  11.134 -0.2839 -0.2825  0.4181
11669TIP3    H156498   1.789   2.518  11.135  1.0852 -2.6062  1.2460
11669TIP3    H256499   1.710   2.412  11.059 -0.1464 -2.1098  1.8044
11670TIP3   OH256500   1.117   3.602  11.189 -0.2364 -0.2157  0.2583
11670TIP3    H156501   1.107   3.615  11.283 -1.2659 -1.3018  0.3232
11670TIP3    H256502   1.028   3.597  11.156  0.1133 -0.5033 -0.6753
11671TIP3   OH256503   6.648   1.444   0.582 -0.0925 -0.6260  0.0999
11671TIP3    H156504   6.710   1.516   0.577 -0.4360 -0.4239 -2.0638
11671TIP3    H256505   6.664   1.405   0.668 -0.0782  2.1638  1.4837
11672TIP3   OH256506   4.257   0.406  16.940  0.7727  1.0757 -0.5357
11672TIP3    H156507   4.216   0.320  16.953  1.3192  1.1494  2.4601
11672TIP3    H256508   4.200   0.451  16.879  0.7798 -1.5739 -2.7129
11673TIP3   OH256509   2.567   4.235  12.438  0.9116  0.0163 -0.3823
11673TIP3    H156510   2.604   4.159  12.394  0.6713 -0.5287  0.3447
11673TIP3    H256511   2.495   4.263  12.382  1.6474  0.3418 -1.1786
11674TIP3   OH256512   1.893   6.601  11.109  0.1769  0.2967  0.3399
11674TIP3    H156513   1.812   6.590  11.059 -0.0822 -2.3422  1.2298
11674TIP3    H256514   1.962   6.604  11.043 -0.4251  0.1554 -0.3047
11675TIP3   OH256515   5.310   2.955   3.050 -0.4079 -0.7144  0.0105
11675TIP3    H156516   5.311   3.050   3.040  0.5375 -0.5407  1.4006
11675TIP3    H256517   5.339   2.922   2.965 -1.7189  0.1755 -0.8209
11676TIP3   OH256518   3.572   1.710  11.372 -0.5048  0.1799 -0.1426
11676TIP3    H156519   3.566   1.804  11.391 -1.0700  0.3118 -0.9102
11676TIP3    H256520   3.604   1.671  11.453 -0.7878  0.9727  0.3614
11677TIP3   OH256521   0.669   5.381  16.289 -0.2381 -0.8091 -0.2577
11677TIP3    H156522   0.764   5.386  16.280 -0.2665  0.1334 -0.0904
11677TIP3    H256523   0.637   5.464  16.254 -1.0628 -1.4593 -1.0901
11678TIP3   OH256524   4.688   1.025   1.156  0.0941 -0.1050 -0.6853
11678TIP3    H156525   4.719   1.115   1.170 -1.5342  0.5228 -0.8885
11678TIP3    H256526   4.752   0.986   1.096  1.1966  0.6815 -0.0602
11679TIP3   OH256527   6.157   3.403   3.847  0.0980 -0.3185  0.2037
11679TIP3    H156528   6.170   3.308   3.838  2.6896 -0.1061  0.9774
11679TIP3    H256529   6.099   3.411   3.923 -0.0954 -1.2677  0.1787
11680TIP3   OH256530   3.983   5.676   4.396 -0.3480  0.1475  0.2556
11680TIP3    H156531   3.968   5.601   4.453  2.2482 -0.4859  0.2311
11680TIP3    H256532   3.946   5.750   4.444 -1.0466 -0.8101  1.2557
11681TIP3   OH256533   5.875   2.053   3.911 -0.0867  0.3679  0.2573
11681TIP3    H156534   5.890   2.032   3.818  0.1980 -0.1297  0.4100
11681TIP3    H256535   5.954   2.022   3.955  0.2044  1.4904  0.5478
11682TIP3   OH256536   0.169   0.464  10.527 -0.7252  0.2409  0.7518
11682TIP3    H156537   0.109   0.500  10.592 -2.1727  0.4327 -0.6132
11682TIP3    H256538   0.193   0.538  10.472  0.0581 -0.0081  0.7500
11683TIP3   OH256539   5.713   1.492  11.404  0.4169 -0.0530 -0.1126
11683TIP3    H156540   5.747   1.576  11.373  0.1149  0.6267  1.3343
11683TIP3    H256541   5.792   1.443  11.430  0.4636  0.7586  1.3700
11684TIP3   OH256542   3.999   5.898   4.728  0.1329  0.1586 -0.1704
11684TIP3    H156543   4.055   5.974   4.742  1.3588 -0.5892 -0.8346
11684TIP3    H256544   4.055   5.835   4.683 -1.4596 -0.3357 -1.5750
11685TIP3   OH256545   5.759   6.802  16.974  0.1898  0.8444  0.2831
11685TIP3    H156546   5.736   6.859  16.900  0.3160  0.1171 -0.3324
11685TIP3    H256547   5.775   6.717  16.934 -2.7260 -0.3855  1.4802
11686TIP3   OH256548   3.625   1.074   2.743  0.2940 -0.8203  0.9127
11686TIP3    H156549   3.556   1.135   2.767 -0.9779 -1.6865 -0.3251
11686TIP3    H256550   3.699   1.098   2.797 -0.9144  0.2947  2.1390
11687TIP3   OH256551   3.296   1.879  11.255 -0.4228  0.1852  0.3296
11687TIP3    H156552   3.209   1.894  11.217 -0.1143  1.5904  0.1243
11687TIP3    H256553   3.328   1.967  11.277  0.3728 -0.4163  1.7023
11688TIP3   OH256554   4.544   4.353  16.286  0.2577 -0.1868 -0.3147
11688TIP3    H156555   4.593   4.435  16.284  0.3869 -0.2533 -2.6799
11688TIP3    H256556   4.465   4.370  16.235 -0.5967 -1.0437  0.6600
11689TIP3   OH256557   2.935   4.594  15.680  0.1092  0.3655 -0.5156
11689TIP3    H156558   2.980   4.576  15.763  0.1464 -1.5315 -0.9145
11689TIP3    H256559   2.867   4.527  15.674 -0.6036  1.1507 -1.5210
11690TIP3   OH256560   4.034   2.097   3.138 -0.3454 -0.2604  0.2842
11690TIP3    H156561   4.102   2.038   3.169  0.4499 -0.5489 -1.8729
11690TIP3    H256562   3.968   2.095   3.207  0.9979 -1.3549  1.6130
11691TIP3   OH256563   6.207   5.610   0.692 -0.0537 -0.4271  0.0325
11691TIP3    H156564   6.217   5.590   0.785  0.1943  0.1014  0.1249
11691TIP3    H256565   6.195   5.525   0.650  1.3120 -0.8093  0.3609
11692TIP3   OH256566   1.768   5.246   3.973  0.0959  0.1728  0.5210
11692TIP3    H156567   1.757   5.276   4.063 -2.2080  1.4146 -0.0981
11692TIP3    H256568   1.829   5.309   3.934  0.4952  0.0864  1.0035
11693TIP3   OH256569   6.129   6.254  13.501  0.5611 -0.0493  0.4281
11693TIP3    H156570   6.201   6.193  13.487 -0.2793 -0.5866 -2.0918
11693TIP3    H256571   6.144   6.325  13.438 -0.3234  0.6013  0.9182
11694TIP3   OH256572   5.489   1.231  11.645 -0.7738 -0.1705 -0.1895
11694TIP3    H156573   5.452   1.316  11.620  0.3139  0.4441  0.2049
11694TIP3    H256574   5.573   1.227  11.600 -0.5549 -0.7803  0.2638
11695TIP3   OH256575   5.018   4.074  16.633 -0.1479  0.1562 -0.5187
11695TIP3    H156576   4.968   4.005  16.677 -1.3264  0.6406 -1.0586
11695TIP3    H256577   4.969   4.154  16.650 -0.1049  0.5022 -1.9015
11696TIP3   OH256578   3.911   5.553   3.470  0.0288  0.5268 -0.1181
11696TIP3    H156579   3.905   5.465   3.509 -0.0337  0.2358 -0.7711
11696TIP3    H256580   3.995   5.587   3.501  0.0264  0.2549  0.1864
11697TIP3   OH256581   0.887   4.222  12.504 -0.5637  0.2516  0.1246
11697TIP3    H156582   0.958   4.161  12.487 -1.1009 -0.2659 -0.3197
11697TIP3    H256583   0.916   4.304  12.466  0.5182  0.5106  1.4426
11698TIP3   OH256584   1.223   2.621   3.260  0.2335  0.1147 -0.2786
11698TIP3    H156585   1.298   2.666   3.300  0.9354 -1.6603  0.4756
11698TIP3    H256586   1.149   2.679   3.277  0.9615  0.6044  1.4098
11699TIP3   OH256587   2.206   0.778   2.420  0.4854 -0.0343 -0.4615
11699TIP3    H156588   2.254   0.735   2.490  1.2493 -0.3480 -1.1701
11699TIP3    H256589   2.203   0.870   2.447  1.4557 -0.0160 -0.3885
11700TIP3   OH256590   6.391   5.180  16.403 -0.3178  0.1688  0.3694
11700TIP3    H156591   6.420   5.089  16.392  0.4985  0.3738  0.7374
11700TIP3    H256592   6.387   5.215  16.314  0.4908  0.1001  0.2927
11701TIP3   OH256593   2.319   2.692  15.624  0.1474 -0.4980  0.2239
11701TIP3    H156594   2.368   2.655  15.697  1.8407 -0.4876 -0.8468
11701TIP3    H256595   2.352   2.782  15.616 -1.6338  0.2465  0.8149
11702TIP3   OH256596   2.973   2.517  16.359 -0.5494  0.2307  0.2330
11702TIP3    H156597   3.030   2.591  16.381  1.5852 -1.6016  1.2907
11702TIP3    H256598   3.015   2.477  16.283 -2.1624  0.5406 -0.8646
11703TIP3   OH256599   1.152   3.391   4.525 -0.6333 -0.6579 -0.3395
11703TIP3    H156600   1.206   3.414   4.601 -1.3927  0.5473 -0.1238
11703TIP3    H256601   1.162   3.297   4.514  0.3891 -0.6586  0.5573
11704TIP3   OH256602   3.275   2.800  11.787  0.0208 -0.3060  0.6395
11704TIP3    H156603   3.216   2.743  11.837  0.6915 -1.1620  0.4596
11704TIP3    H256604   3.231   2.811  11.703 -0.0950 -0.5751  0.6629
11705TIP3   OH256605   2.854   4.551  12.291 -0.4185 -0.0217  0.2852
11705TIP3    H156606   2.896   4.636  12.284  0.1401 -0.2152  1.0387
11705TIP3    H256607   2.924   4.488  12.271 -0.9198 -0.3004 -0.6483
11706TIP3   OH256608   0.250   6.123  14.573  0.0099  0.8748  0.6777
11706TIP3    H156609   0.233   6.029  14.566 -1.3348  1.1136  0.4846
11706TIP3    H256610   0.317   6.130  14.641  1.7589 -0.3588 -0.8096
11707TIP3   OH256611   1.744   4.803   4.232 -0.3129 -0.4271 -0.8919
11707TIP3    H156612   1.809   4.773   4.168  1.1769  0.0207  0.3533
11707TIP3    H256613   1.681   4.732   4.237 -0.2082 -0.6699 -2.4988
11708TIP3   OH256614   0.030   6.002  12.251 -0.7469 -0.1886  0.0205
11708TIP3    H156615   0.057   5.941  12.183  1.2159 -1.5198  1.8675
11708TIP3    H256616   0.103   6.004  12.312 -1.2566  3.0841  0.7205
11709TIP3   OH256617   1.109   6.768   2.412 -0.6743 -0.0640 -0.0295
11709TIP3    H156618   1.090   6.693   2.356 -1.0778  0.2383 -0.3019
11709TIP3    H256619   1.137   6.836   2.352 -3.1964  0.9700 -0.1300
11710TIP3   OH256620   4.851   4.909   5.090  0.0764 -0.3351  0.1885
11710TIP3    H156621   4.829   4.988   5.138  0.4926  0.0275 -0.2062
11710TIP3    H256622   4.928   4.933   5.039 -0.6982 -0.5258 -1.1161
11711TIP3   OH256623   1.163   4.041   4.912  0.0125  0.6243  0.1951
11711TIP3    H156624   1.092   3.978   4.927 -0.3546  0.9312 -0.1966
11711TIP3    H256625   1.118   4.119   4.878  0.6889  0.1662 -1.9362
11712TIP3   OH256626   2.389   5.868   3.286 -0.0812  0.1769  0.0306
11712TIP3    H156627   2.422   5.952   3.255 -0.0825 -0.0578 -0.6029
11712TIP3    H256628   2.437   5.852   3.368  0.3802  0.4885 -0.1783
11713TIP3   OH256629   1.070   0.359  16.721  0.2618  0.1302  0.1544
11713TIP3    H156630   1.028   0.402  16.796  0.8184  0.5857  0.2163
11713TIP3    H256631   1.020   0.279  16.709  0.3487 -0.1054  1.2051
11714TIP3   OH256632   6.275   0.226   4.642  0.1672 -0.0744  0.2241
11714TIP3    H156633   6.213   0.272   4.698  1.6461 -2.0495  3.7400
11714TIP3    H256634   6.337   0.294   4.615 -2.6086  1.6742 -2.3682
11715TIP3   OH256635   0.604   6.184  11.517  0.0975  0.1837 -0.3413
11715TIP3    H156636   0.577   6.155  11.604 -0.4383  1.8230  0.0848
11715TIP3    H256637   0.696   6.157  11.510  0.4505  0.8890  1.1600
11716TIP3   OH256638   4.617   1.864   5.701  0.3128  0.4504  0.1536
11716TIP3    H156639   4.592   1.956   5.715 -1.4140 -0.0764  0.7681
11716TIP3    H256640   4.653   1.836   5.785 -1.4581 -0.0919  0.7803
11717TIP3   OH256641   0.979   0.187  11.442  0.9062 -0.2635  0.0657
11717TIP3    H156642   0.974   0.216  11.533  0.2542  1.4626 -0.4966
11717TIP3    H256643   0.890   0.162  11.420  1.3812 -2.5110  0.4233
11718TIP3   OH256644   3.831   4.139   5.156 -0.0206  0.1012 -0.0908
11718TIP3    H156645   3.924   4.118   5.155 -0.1880 -0.6942 -1.1161
11718TIP3    H256646   3.808   4.147   5.064 -0.4093  3.0007  0.1848
11719TIP3   OH256647   5.824   6.242  11.116 -0.4040 -0.1138  0.0241
11719TIP3    H156648   5.858   6.194  11.192 -0.3542  0.0753  0.1219
11719TIP3    H256649   5.756   6.299  11.151 -1.0739 -0.7536 -0.2323
11720TIP3   OH256650   1.130   3.928  17.161 -0.3336  0.3483  0.1587
11720TIP3    H156651   1.079   3.872  17.102 -0.9263  0.6941  0.3357
11720TIP3    H256652   1.109   3.895  17.249 -0.7758  0.9215  0.2682
11721TIP3   OH256653   6.783   6.449   2.703  0.0920  0.2495 -0.3003
11721TIP3    H156654   6.840   6.465   2.628 -0.5098  2.0551 -0.4340
11721TIP3    H256655   6.836   6.474   2.779  0.9233 -2.1802 -0.0089
11722TIP3   OH256656   2.965   2.870  10.990  0.2844 -0.3907  0.2550
11722TIP3    H156657   2.904   2.808  11.031 -0.9507  0.4497 -0.2677
11722TIP3    H256658   3.051   2.833  11.008 -0.3043 -1.0778  1.9080
11723TIP3   OH256659   3.287   1.586   2.762 -0.0563 -0.0456  0.3115
11723TIP3    H156660   3.230   1.536   2.703 -0.5775  0.9160 -0.0180
11723TIP3    H256661   3.300   1.528   2.837  1.4118 -1.7086 -1.1237
11724TIP3   OH256662   0.887   1.607  15.303  0.0746 -0.0963 -0.4806
11724TIP3    H156663   0.915   1.680  15.247  2.1087  0.1302  0.7023
11724TIP3    H256664   0.894   1.642  15.392  0.1749 -1.4496  0.0644
11725TIP3   OH256665   6.301   2.279  14.939  0.5035 -0.1390 -0.5826
11725TIP3    H156666   6.387   2.242  14.918  0.6313  0.1607 -0.6094
11725TIP3    H256667   6.261   2.297  14.855  0.1434 -0.8827 -0.5700
11726TIP3   OH256668   3.118   2.240   0.723  0.7143  0.3733  0.4506
11726TIP3    H156669   3.082   2.272   0.640  0.5087  1.5688  0.9769
11726TIP3    H256670   3.195   2.295   0.739  0.8938 -0.0117  0.9286
11727TIP3   OH256671   3.726   3.985  17.260 -0.1565  0.1803  0.5789
11727TIP3    H156672   3.739   3.971  17.354  0.6455 -2.2464  0.1874
11727TIP3    H256673   3.649   3.933  17.239  0.6782 -0.7196 -0.3666
11728TIP3   OH256674   1.193   3.263   0.627  0.1326  0.5674  0.0458
11728TIP3    H156675   1.264   3.325   0.643 -0.1572  1.1170 -0.7452
11728TIP3    H256676   1.238   3.179   0.614  0.5547  0.6884  0.6709
11729TIP3   OH256677   2.255   6.575   1.972 -0.1111 -0.1592 -0.6890
11729TIP3    H156678   2.339   6.620   1.982  0.7371 -1.9877  1.2467
11729TIP3    H256679   2.253   6.546   1.881  0.5026  1.4374 -1.2494
11730TIP3   OH256680   2.503   6.498  13.693 -0.0790  0.5954  0.3738
11730TIP3    H156681   2.529   6.560  13.761 -3.3030  2.4843  0.0847
11730TIP3    H256682   2.448   6.434  13.738  1.4351 -0.8531  0.2626
11731TIP3   OH256683   3.592   5.966   4.711  0.7713  0.7650  0.0284
11731TIP3    H156684   3.592   6.032   4.642 -0.1047 -0.5715 -1.3222
11731TIP3    H256685   3.521   5.906   4.687  2.1502 -1.2118  0.6354
11732TIP3   OH256686   4.498   4.937   0.149  0.0282 -0.2419  0.7391
11732TIP3    H156687   4.446   4.857   0.151  1.1016 -0.9776  0.2130
11732TIP3    H256688   4.497   4.969   0.239  0.6277 -1.5522  1.2407
11733TIP3   OH256689   1.339   3.197  15.209  0.7457 -0.0112  0.2092
11733TIP3    H156690   1.347   3.102  15.219  1.7210  0.0552  0.1595
11733TIP3    H256691   1.381   3.216  15.126 -1.7593  0.1931 -1.0927
11734TIP3   OH256692   0.104   2.275  12.349 -0.0741 -0.4488 -0.1276
11734TIP3    H156693   0.180   2.333  12.360 -0.3653 -0.1805  0.5277
11734TIP3    H256694   0.124   2.225  12.270  1.3066 -1.1697  0.6299
11735TIP3   OH256695   5.024   2.415  14.418 -0.4586 -0.0178 -0.2596
11735TIP3    H156696   4.950   2.465  14.385 -0.2221  1.6375  1.5289
11735TIP3    H256697   4.986   2.334  14.454 -1.9874  2.0698  3.3817
11736TIP3   OH256698   1.186   1.113  15.815 -0.4128 -0.7126 -0.2604
11736TIP3    H156699   1.192   1.132  15.722 -2.2316  0.5297 -0.1799
11736TIP3    H256700   1.275   1.128  15.848 -0.4154  2.2916 -1.2443
11737TIP3   OH256701   6.119   1.898   6.026 -0.7359 -0.0526  0.5438
11737TIP3    H156702   6.204   1.912   6.069  1.2305  0.7289 -3.1822
11737TIP3    H256703   6.118   1.805   6.004 -1.3458 -0.2702  1.4431
11738TIP3   OH256704   5.892   3.413   1.970 -0.4480  1.1667  0.4436
11738TIP3    H156705   5.833   3.376   2.035 -0.2346  1.4061  0.7776
11738TIP3    H256706   5.968   3.353   1.971 -1.0281  0.3913 -0.5756
11739TIP3   OH256707   0.521   1.413   6.233  0.5071  0.0914  0.0283
11739TIP3    H156708   0.438   1.443   6.194  0.2975 -0.6244 -0.0849
11739TIP3    H256709   0.496   1.337   6.285  1.3199 -1.0797 -1.2323
11740TIP3   OH256710   5.082   0.685  14.987  0.6584 -0.5669  0.1267
11740TIP3    H156711   5.147   0.625  15.023 -0.0792 -0.5208  1.6123
11740TIP3    H256712   5.060   0.648  14.902  0.6382 -2.1068  0.7650
11741TIP3   OH256713   2.367   2.912  13.876 -0.3660  0.4658  0.0453
11741TIP3    H156714   2.368   3.001  13.911  3.0799  0.5083  0.1776
11741TIP3    H256715   2.310   2.917  13.799 -1.8882  2.2367  1.1945
11742TIP3   OH256716   3.426   3.496   5.687  0.3568  0.4891 -0.3500
11742TIP3    H156717   3.448   3.575   5.736  2.3199 -0.5174  0.4857
11742TIP3    H256718   3.484   3.499   5.611 -0.7994  0.6890 -1.2571
11743TIP3   OH256719   0.243   1.516   0.909 -0.9796 -0.5540 -0.3262
11743TIP3    H156720   0.175   1.524   0.975 -1.2857 -2.2345 -0.3862
11743TIP3    H256721   0.205   1.460   0.841  0.4819 -1.6692 -0.2939
11744TIP3   OH256722   2.813   6.605  10.618  0.0849 -0.3870  0.0958
11744TIP3    H156723   2.860   6.666  10.674  0.3772 -1.6734  1.3176
11744TIP3    H256724   2.724   6.604  10.654  0.4162 -1.6404  0.9540
11745TIP3   OH256725   0.638   6.180  12.295  0.7485 -0.0036  0.0099
11745TIP3    H156726   0.603   6.100  12.333  1.4247 -0.8620 -1.0953
11745TIP3    H256727   0.730   6.160  12.279  1.0493  1.1790  0.1684
11746TIP3   OH256728   1.787   4.955   3.657 -0.1841 -0.2277 -0.0098
11746TIP3    H156729   1.864   5.010   3.642  0.1323 -0.9904 -1.3879
11746TIP3    H256730   1.815   4.867   3.632 -1.3785 -0.5932 -0.1417
11747TIP3   OH256731   4.596   0.679   1.512 -0.3394 -0.0157 -0.5008
11747TIP3    H156732   4.587   0.719   1.425  2.3155 -1.4309 -1.5410
11747TIP3    H256733   4.647   0.742   1.562 -2.2682  1.0160  0.2805
11748TIP3   OH256734   3.374   4.065  12.798  0.1073 -0.0146  0.1329
11748TIP3    H156735   3.349   4.001  12.732  0.1898  1.9725 -1.9375
11748TIP3    H256736   3.470   4.068  12.794  0.2184 -0.8522  1.3779
11749TIP3   OH256737   2.929   6.710   4.273 -0.1596  0.6531  0.1410
11749TIP3    H156738   2.851   6.745   4.231 -0.2661 -0.3699 -0.5307
11749TIP3    H256739   3.001   6.759   4.234 -0.2978  0.0530 -0.8799
11750TIP3   OH256740   6.238   2.685  15.492  0.4669  0.2453 -0.5198
11750TIP3    H156741   6.236   2.637  15.574  1.2590 -0.9673 -1.1681
11750TIP3    H256742   6.196   2.768  15.511 -0.7916 -0.6282  0.7039
11751TIP3   OH256743   2.215   4.785  14.478  0.3577 -0.0537  0.2617
11751TIP3    H156744   2.144   4.808  14.418 -0.1462 -0.6391  0.6181
11751TIP3    H256745   2.254   4.706  14.440  0.4226 -0.0831  0.3885
11752TIP3   OH256746   0.512   5.873  14.690  0.5681 -0.1710  1.0042
11752TIP3    H156747   0.469   5.874  14.604 -0.0076 -1.6544  1.2360
11752TIP3    H256748   0.501   5.962  14.723 -1.4819 -0.2193  0.6205
11753TIP3   OH256749   4.675   6.194   1.074 -0.2171  0.6072 -0.7176
11753TIP3    H156750   4.633   6.141   1.141  0.6216  0.7603 -0.0509
11753TIP3    H256751   4.603   6.227   1.020 -0.7271 -1.7171 -1.5770
11754TIP3   OH256752   1.735   5.739   2.809 -1.7596  0.5761  0.2688
11754TIP3    H156753   1.725   5.813   2.869 -0.6619  0.1186  1.0488
11754TIP3    H256754   1.742   5.663   2.866  0.5121  0.2598 -0.3568
11755TIP3   OH256755   6.731   0.662   0.514  0.3435 -0.8930 -0.0294
11755TIP3    H156756   6.672   0.586   0.520  0.6450 -1.0308  5.0514
11755TIP3    H256757   6.814   0.631   0.551  1.5401  1.1118 -0.8791
11756TIP3   OH256758   2.292   1.311  14.296  0.3269 -0.0027  0.0928
11756TIP3    H156759   2.317   1.314  14.389  1.4917 -1.0996 -0.1495
11756TIP3    H256760   2.347   1.378  14.255  0.0529  0.2511  0.1358
11757TIP3   OH256761   1.043   2.003   1.536  0.2575 -0.0674  0.6385
11757TIP3    H156762   0.947   2.009   1.535  0.2754  1.0364 -1.5936
11757TIP3    H256763   1.066   1.987   1.444  2.1840 -1.3903  1.3050
11758TIP3   OH256764   2.686   2.540   0.952 -0.2000  0.3542 -0.1377
11758TIP3    H156765   2.702   2.452   0.987 -0.2544 -0.0498 -1.0893
11758TIP3    H256766   2.601   2.533   0.908 -1.0017  1.3366  1.1929
11759TIP3   OH256767   0.938   4.495  16.951  0.2948  0.8597  0.3248
11759TIP3    H156768   0.960   4.480  17.043 -0.5688 -1.3503  0.2219
11759TIP3    H256769   1.014   4.462  16.903 -0.6301 -1.1630  0.1740
11760TIP3   OH256770   5.663   0.015  14.829 -0.0347  0.5693 -0.1075
11760TIP3    H156771   5.576   0.036  14.863  0.6987  1.6038  1.2128
11760TIP3    H256772   5.723   0.065  14.884  1.5577 -1.7201  0.3773
11761TIP3   OH256773   2.219   5.789  16.092 -0.3631  0.2570 -0.3560
11761TIP3    H156774   2.314   5.789  16.099 -0.3347 -0.3215 -0.6401
11761TIP3    H256775   2.202   5.806  16.000 -0.4940 -0.8773 -0.5567
11762TIP3   OH256776   1.142   5.600   2.957 -0.5538  0.4677 -0.0716
11762TIP3    H156777   1.108   5.516   2.988  0.3293 -0.5550 -1.7079
11762TIP3    H256778   1.198   5.631   3.028  0.6154 -1.2990 -0.1441
11763TIP3   OH256779   5.481   5.923   1.880 -0.0979  0.7375  0.1354
11763TIP3    H156780   5.474   5.940   1.786  0.7746 -0.3664 -0.1529
11763TIP3    H256781   5.400   5.959   1.917 -0.6985  0.7172 -1.1095
11764TIP3   OH256782   3.110   2.985   2.966  0.1494  0.2706 -0.1458
11764TIP3    H156783   3.204   2.984   2.945  0.1054  0.5977 -0.3704
11764TIP3    H256784   3.105   3.033   3.049  0.5733 -3.0363  1.9675
11765TIP3   OH256785   4.802   6.629   2.482  0.2146 -0.4741 -0.1512
11765TIP3    H156786   4.728   6.588   2.526  0.0385  0.5328  0.5190
11765TIP3    H256787   4.870   6.562   2.482 -0.4714 -1.1879 -0.1921
11766TIP3   OH256788   3.668   5.922   0.994  0.5088  0.1694  0.5815
11766TIP3    H156789   3.608   5.920   0.920  1.8042 -0.1384 -0.4895
11766TIP3    H256790   3.755   5.918   0.955  1.3380  2.6809  1.9851
11767TIP3   OH256791   0.949   6.639   1.754  0.3149 -0.4851 -0.1766
11767TIP3    H156792   0.959   6.718   1.700  1.3097 -1.3474 -1.3210
11767TIP3    H256793   0.922   6.571   1.692  0.1272 -1.2020  0.6744
11768TIP3   OH256794   6.457   4.558   4.174 -0.1596  0.2791 -0.3593
11768TIP3    H156795   6.408   4.491   4.221 -2.2642  2.3266  0.5691
11768TIP3    H256796   6.533   4.512   4.139 -2.2818 -2.9523 -1.1712
11769TIP3   OH256797   3.015   2.458  14.603 -0.0705 -0.3595  0.7356
11769TIP3    H156798   3.103   2.449  14.640  0.9475 -0.3852 -1.5233
11769TIP3    H256799   2.973   2.527  14.655  1.7919  0.6556  0.9501
11770TIP3   OH256800   0.974   6.674  17.209 -0.9406  0.6244 -0.4286
11770TIP3    H156801   0.883   6.656  17.237 -0.5526  0.7253  0.9920
11770TIP3    H256802   0.999   6.751  17.259 -0.5695  1.5391 -1.9929
11771TIP3   OH256803   0.564   2.316  13.793 -0.1717 -0.3120 -0.1661
11771TIP3    H156804   0.611   2.234  13.781 -0.1398 -0.2284 -0.6531
11771TIP3    H256805   0.590   2.369  13.718  0.7676  0.6097  0.7801
11772TIP3   OH256806   3.698   3.616  17.079  0.0771  0.1313  0.0427
11772TIP3    H156807   3.774   3.568  17.112 -0.9707 -0.1703  2.1574
11772TIP3    H256808   3.695   3.593  16.986  1.2330 -1.6798  0.3898
11773TIP3   OH256809   6.295   4.326   4.752 -0.2153 -0.5684 -0.1316
11773TIP3    H156810   6.270   4.401   4.807  0.4754  0.1409 -0.7548
11773TIP3    H256811   6.222   4.316   4.691  0.3516  0.6218 -1.0589
11774TIP3   OH256812   3.959   1.390   3.151 -0.0079  0.1082 -0.5395
11774TIP3    H156813   3.991   1.480   3.155 -0.4195  0.2800 -1.0163
11774TIP3    H256814   4.000   1.354   3.071  0.9590 -0.4484  0.1848
11775TIP3   OH256815   4.574   4.192   2.270 -0.7703  0.3392  0.0404
11775TIP3    H156816   4.480   4.171   2.272 -0.8216  0.5564  1.6192
11775TIP3    H256817   4.615   4.115   2.232 -1.7121  0.8937 -2.2571
11776TIP3   OH256818   5.820   2.914   2.182  0.1786 -0.1467  0.6482
11776TIP3    H156819   5.900   2.924   2.233 -0.4849 -0.7957  1.8479
11776TIP3    H256820   5.757   2.973   2.224  0.3688  1.4520 -1.1338
11777TIP3   OH256821   3.874   0.228   1.898  0.3840 -0.2129  0.0421
11777TIP3    H156822   3.792   0.243   1.852 -0.2824 -0.5737  1.0748
11777TIP3    H256823   3.853   0.242   1.990  1.1760 -1.5024  0.4509
11778TIP3   OH256824   1.955   6.315  15.526 -0.3607  0.2060 -0.1884
11778TIP3    H156825   1.932   6.392  15.473  0.9620 -1.4331 -3.4109
11778TIP3    H256826   2.038   6.338  15.567 -0.0905  0.5969 -0.9328
11779TIP3   OH256827   3.305   4.658   1.566  0.1138 -0.1506  0.3221
11779TIP3    H156828   3.244   4.730   1.581  1.1032  1.0485 -1.0882
11779TIP3    H256829   3.252   4.588   1.528 -0.6110  0.3709  0.3487
11780TIP3   OH256830   0.971   5.356  14.989 -0.4153 -0.1264  0.1902
11780TIP3    H156831   0.919   5.368  15.069 -2.8053 -1.9602 -0.9552
11780TIP3    H256832   0.914   5.384  14.918  1.3725  0.7444 -0.9905
11781TIP3   OH256833   5.564   3.895   2.916 -0.1004  0.1897  0.2800
11781TIP3    H156834   5.596   3.913   2.827 -1.1541  2.1291  0.2476
11781TIP3    H256835   5.496   3.961   2.931 -1.2552 -1.2839  1.8504
11782TIP3   OH256836   2.459   6.784   2.026  0.1048  0.2759 -0.1791
11782TIP3    H156837   2.538   6.731   2.026 -0.2850 -0.3901 -2.3873
11782TIP3    H256838   2.491   6.874   2.029  0.9127  0.0098 -0.5752
11783TIP3   OH256839   0.088   4.944   5.303 -0.1120  0.0212  0.2203
11783TIP3    H156840   0.078   5.033   5.269  1.1818  0.1506  0.1198
11783TIP3    H256841   0.135   4.897   5.234  0.1352 -0.4600  0.7090
11784TIP3   OH256842   4.475   3.738   1.318  0.3171 -0.1962  0.6098
11784TIP3    H156843   4.450   3.646   1.312  1.1073 -0.3504 -0.5432
11784TIP3    H256844   4.412   3.784   1.263 -0.0417 -0.0431  1.1397
11785TIP3   OH256845   5.030   4.439   0.496 -0.0300  0.0275  0.1363
11785TIP3    H156846   5.036   4.524   0.540  1.1618  1.0820 -1.9190
11785TIP3    H256847   4.983   4.457   0.415  0.0291 -1.3328 -0.2239
11786TIP3   OH256848   5.182   1.733  13.765  0.3049  0.2906  0.6649
11786TIP3    H156849   5.097   1.720  13.723 -0.0606 -0.6354  1.6400
11786TIP3    H256850   5.236   1.774  13.697 -0.7777  0.4749 -0.1185
11787TIP3   OH256851   1.557   5.812   4.729 -0.3415  0.0385 -0.0359
11787TIP3    H156852   1.515   5.729   4.750  0.0390 -0.0076  0.5372
11787TIP3    H256853   1.648   5.802   4.757 -0.2998  0.6646  0.0748
11788TIP3   OH256854   4.879   4.443   3.564  0.2929  0.5003  0.3530
11788TIP3    H156855   4.862   4.441   3.658  0.4625 -2.0009  0.3782
11788TIP3    H256856   4.948   4.379   3.550  0.2969  0.8497 -1.4907
11789TIP3   OH256857   4.854   3.002   3.739  0.0024  0.1202  0.2580
11789TIP3    H156858   4.944   2.976   3.718 -0.3411 -0.7730 -0.1774
11789TIP3    H256859   4.836   2.961   3.823  0.1572  0.7113  0.5885
11790TIP3   OH256860   6.015   6.002  14.697 -0.0130 -0.1698 -0.2668
11790TIP3    H156861   5.993   6.055  14.621  1.0530 -1.0419 -1.2182
11790TIP3    H256862   5.971   5.918  14.681  0.9486 -0.6665 -0.3981
11791TIP3   OH256863   1.333   6.659   3.650 -0.3361 -0.2167  0.3640
11791TIP3    H156864   1.380   6.644   3.732  0.7483 -0.0293 -0.2054
11791TIP3    H256865   1.338   6.575   3.604  1.6005  0.4316 -0.7468
11792TIP3   OH256866   5.336   2.865   1.200 -0.3491 -0.1498 -0.0465
11792TIP3    H156867   5.338   2.917   1.280  1.1336 -0.6737  0.2865
11792TIP3    H256868   5.311   2.777   1.229 -1.3843  0.0155 -0.3998
11793TIP3   OH256869   3.756   1.256  16.284 -0.2805  0.0375  0.2266
11793TIP3    H156870   3.843   1.217  16.279 -0.3515 -0.3131  1.3906
11793TIP3    H256871   3.696   1.182  16.294 -0.4512  0.3629  2.0605
11794TIP3   OH256872   1.319   0.275   5.500  0.0349 -0.6583  0.2575
11794TIP3    H156873   1.295   0.183   5.496 -2.6858  0.0198 -1.9876
11794TIP3    H256874   1.246   0.317   5.546  1.6223  0.3691  2.0312
11795TIP3   OH256875   1.908   4.529   2.456 -0.7106  0.5008  0.0843
11795TIP3    H156876   2.003   4.544   2.466 -0.7728  1.9954 -1.2719
11795TIP3    H256877   1.901   4.434   2.443  0.7507  0.5140 -1.1637
11796TIP3   OH256878   1.828   1.858  15.947  0.2272  0.1371 -0.0456
11796TIP3    H156879   1.819   1.907  16.029  3.1639 -2.4261  2.0130
11796TIP3    H256880   1.901   1.900  15.902  1.8796 -1.3464  1.1064
11797TIP3   OH256881   2.155   6.661  13.641  0.1148  0.5114 -0.6531
11797TIP3    H156882   2.172   6.748  13.679 -0.8053 -0.0468  1.1352
11797TIP3    H256883   2.238   6.637  13.599  1.1037  1.3119  0.7484
11798TIP3   OH256884   3.145   5.019  13.711  0.1208  0.0330  0.8597
11798TIP3    H156885   3.108   4.990  13.795  2.0773  1.8914  2.4564
11798TIP3    H256886   3.239   5.012  13.722  0.7856  5.4094  0.9783
11799TIP3   OH256887   5.526   4.506  12.579 -0.1904  0.1209 -0.2431
11799TIP3    H156888   5.472   4.429  12.561 -1.4743  0.6494  1.1394
11799TIP3    H256889   5.502   4.568  12.510 -0.4335 -0.1057 -0.3662
11800TIP3   OH256890   1.339   4.186  11.228  0.1176 -0.1737  0.1047
11800TIP3    H156891   1.310   4.251  11.292 -1.0667 -0.3053 -0.2900
11800TIP3    H256892   1.431   4.170  11.251  0.4772  1.7135  0.1298
11801TIP3   OH256893   4.882   0.979   1.456 -0.0766  0.0123  0.2230
11801TIP3    H156894   4.956   0.919   1.453 -0.0906  0.0433 -1.4774
11801TIP3    H256895   4.890   1.032   1.377 -0.4837  1.7739  1.3090
11802TIP3   OH256896   4.120   6.751   4.207 -0.0067 -0.3266 -0.2560
11802TIP3    H156897   4.080   6.813   4.268  0.0478  0.7477 -1.2748
11802TIP3    H256898   4.203   6.791   4.181  0.6430 -1.4275  0.0192
11803TIP3   OH256899   1.215   4.747  13.770  0.2106 -0.7296 -0.3720
11803TIP3    H156900   1.191   4.728  13.679  1.8272 -0.9276 -0.7816
11803TIP3    H256901   1.151   4.812  13.799 -1.2145 -1.7159 -1.1734
11804TIP3   OH256902   4.570   2.530  14.016 -0.1243 -0.3307 -0.1558
11804TIP3    H156903   4.479   2.515  13.989 -0.0084 -0.1771 -0.6519
11804TIP3    H256904   4.622   2.492  13.945  0.2876 -3.2078  1.5080
11805TIP3   OH256905   5.311   6.361  10.875 -0.9056  0.5849  0.0392
11805TIP3    H156906   5.246   6.299  10.907  0.2853 -0.5329  0.4007
11805TIP3    H256907   5.374   6.368  10.947  0.2717  0.3008 -0.9354
11806TIP3   OH256908   1.746   3.248   0.443 -0.1228  0.2024  0.4662
11806TIP3    H156909   1.729   3.341   0.457 -2.0235 -0.2503  1.5384
11806TIP3    H256910   1.666   3.214   0.402  0.7084 -0.8916 -0.3373
11807TIP3   OH256911   1.880   0.543   3.001 -0.0582  0.4524 -0.7035
11807TIP3    H156912   1.834   0.509   2.925  1.9496 -0.5677 -1.5262
11807TIP3    H256913   1.946   0.477   3.021  1.0885  1.8609  0.3681
11808TIP3   OH256914   4.563   0.828   4.553 -0.5786  0.1662 -0.1221
11808TIP3    H156915   4.627   0.761   4.531  1.7068  2.0492  0.4263
11808TIP3    H256916   4.552   0.878   4.472 -0.0322  0.8686  0.2293
11809TIP3   OH256917   6.338   5.175   3.995  0.6440  0.4210  0.0577
11809TIP3    H156918   6.350   5.261   3.955 -0.2740  0.6475  0.2681
11809TIP3    H256919   6.275   5.189   4.065 -0.2428 -0.5943 -0.5030
11810TIP3   OH256920   6.551   0.611   2.899 -0.0779 -0.1860 -0.3998
11810TIP3    H156921   6.495   0.639   2.972  1.4222  0.4647  0.5430
11810TIP3    H256922   6.578   0.522   2.923  0.7656  0.1866  0.0902
11811TIP3   OH256923   1.944   4.938   2.400 -0.4122 -0.2347  0.0688
11811TIP3    H156924   2.031   4.909   2.373 -0.4844 -0.6217  0.2459
11811TIP3    H256925   1.957   5.026   2.433 -0.2985  0.2104 -1.1143
11812TIP3   OH256926   4.099   2.609   2.091 -0.0111  0.9170 -0.1705
11812TIP3    H156927   4.106   2.689   2.143 -0.5583  0.4710  0.6146
11812TIP3    H256928   4.047   2.634   2.015  0.4056  1.4703 -0.2787
11813TIP3   OH256929   6.204   4.913   1.657 -0.1806 -0.1222 -0.3741
11813TIP3    H156930   6.173   5.000   1.631 -1.2656 -0.9940 -2.1555
11813TIP3    H256931   6.219   4.921   1.752  2.6868  2.8229 -0.8864
11814TIP3   OH256932   6.660   1.012  15.239  0.4139  0.1550  0.3159
11814TIP3    H156933   6.736   1.065  15.264 -0.6933  1.2613  1.4536
11814TIP3    H256934   6.644   0.956  15.315 -0.8081  1.0014  0.7029
11815TIP3   OH256935   5.408   1.966  13.228  0.3443  0.4524  0.3030
11815TIP3    H156936   5.376   2.041  13.177 -1.8841  0.5436  1.6527
11815TIP3    H256937   5.465   1.918  13.168 -0.6888  1.5205 -1.6566
11816TIP3   OH256938   5.562   2.823   1.446 -0.0665  0.3570 -0.8690
11816TIP3    H156939   5.485   2.865   1.408 -0.3643 -0.6446 -1.4187
11816TIP3    H256940   5.568   2.739   1.401  1.1230  0.2485 -0.5492
11817TIP3   OH256941   4.847   3.369   6.728 -0.1092 -0.8809 -0.2569
11817TIP3    H156942   4.782   3.396   6.792  0.8709 -1.8074  1.1834
11817TIP3    H256943   4.820   3.281   6.702 -1.3001  0.0084 -2.2512
11818TIP3   OH256944   6.283   3.388  12.826 -0.5023  0.2807  1.6259
11818TIP3    H156945   6.237   3.325  12.770  0.2784  0.1512  1.1136
11818TIP3    H256946   6.291   3.467  12.773  3.1513 -0.8409  0.1446
11819TIP3   OH256947   5.263   3.925   4.650  0.8944  0.5921  0.2215
11819TIP3    H156948   5.323   3.920   4.577  0.5826  1.6191 -0.1328
11819TIP3    H256949   5.181   3.957   4.612 -0.1038 -1.4019  0.5781
11820TIP3   OH256950   6.683   3.411  10.686 -0.1279 -0.3923  0.0254
11820TIP3    H156951   6.750   3.433  10.622 -0.7025  0.7572 -0.2134
11820TIP3    H256952   6.615   3.366  10.636 -0.8886  1.0989 -0.3541
11821TIP3   OH256953   6.316   4.920   5.471  0.1314 -0.0729 -0.4664
11821TIP3    H156954   6.350   4.873   5.546  1.2127  0.7781 -0.3921
11821TIP3    H256955   6.394   4.959   5.430 -0.3892 -0.7525 -2.1894
11822TIP3   OH256956   4.338   5.383   2.455  0.1356  0.0704 -0.7365
11822TIP3    H156957   4.348   5.291   2.480 -0.0346  0.4381  0.8314
11822TIP3    H256958   4.358   5.385   2.362  2.7982 -1.1427 -0.3018
11823TIP3   OH256959   2.940   0.989   2.087  0.2062 -0.6758 -0.6401
11823TIP3    H156960   2.920   1.015   2.177 -3.2266  0.1017 -1.5131
11823TIP3    H256961   2.957   0.895   2.092  3.1543 -0.1761  1.1538
11824TIP3   OH256962   2.509   1.096   4.981  0.2957 -0.6417 -0.0886
11824TIP3    H156963   2.486   1.038   5.054  2.6386  0.2720  1.4666
11824TIP3    H256964   2.436   1.159   4.977 -0.5394 -1.5396  0.5080
11825TIP3   OH256965   5.789   1.515  12.961  0.1739 -0.1706 -0.0019
11825TIP3    H156966   5.803   1.422  12.973 -0.6347 -0.3600 -0.4312
11825TIP3    H256967   5.776   1.526  12.866 -0.4226  0.2686  0.1210
11826TIP3   OH256968   0.533   5.842  12.588 -0.0423 -0.0616  0.1546
11826TIP3    H156969   0.578   5.891  12.520  0.0051  1.2404  1.0799
11826TIP3    H256970   0.552   5.750  12.569  3.3191  0.3836  0.6787
11827TIP3   OH256971   5.387   4.388  10.467 -0.1308  0.0848 -0.1656
11827TIP3    H156972   5.314   4.329  10.488  0.1225 -0.7999 -1.6211
11827TIP3    H256973   5.458   4.359  10.524 -0.6795  0.4700  0.7345
11828TIP3   OH256974   1.972   3.376   5.436  0.3246  0.3722 -0.4184
11828TIP3    H156975   1.982   3.281   5.434 -2.8892 -0.1450  1.1722
11828TIP3    H256976   1.986   3.401   5.527 -2.3130  0.7977 -0.0386
11829TIP3   OH256977   3.627   0.490   6.066 -0.1125  0.5681  0.0347
11829TIP3    H156978   3.680   0.419   6.103 -0.3871 -0.3344 -1.2219
11829TIP3    H256979   3.556   0.502   6.129 -0.7251 -1.1087 -0.2798
11830TIP3   OH256980   2.460   0.445  14.657  0.2932  0.1040 -0.7131
11830TIP3    H156981   2.409   0.462  14.578 -0.9200 -0.9081 -0.1923
11830TIP3    H256982   2.516   0.370  14.634 -0.0630 -0.1935 -0.6311
11831TIP3   OH256983   6.371   4.052   4.519 -0.2226 -0.3702 -0.4005
11831TIP3    H156984   6.279   4.029   4.506 -0.5167 -0.4421  1.4846
11831TIP3    H256985   6.399   3.998   4.594  1.4871 -0.6610 -1.1843
11832TIP3   OH256986   4.812   2.260  14.184 -0.2220  0.1964  0.7551
11832TIP3    H156987   4.752   2.190  14.159 -0.8809  1.4293 -1.3590
11832TIP3    H256988   4.827   2.246  14.278  0.9446 -3.6952  0.1916
11833TIP3   OH256989   5.728   5.463   3.622  0.0591 -0.0824  0.2829
11833TIP3    H156990   5.749   5.530   3.557 -2.2839  1.4622  1.0168
11833TIP3    H256991   5.640   5.433   3.598 -0.6248  0.1048  2.3541
11834TIP3   OH256992   2.478   6.075  10.752  0.6973  1.2426  0.3359
11834TIP3    H156993   2.538   6.003  10.733  0.4790  1.1442  0.0122
11834TIP3    H256994   2.536   6.148  10.778  1.0826  1.6300 -1.4782
11835TIP3   OH256995   2.669   4.224  15.740 -0.0441  0.3125  0.0724
11835TIP3    H156996   2.738   4.227  15.805  0.5424  0.6366 -0.5469
11835TIP3    H256997   2.677   4.138  15.699 -0.1370  0.2713  0.1413
11836TIP3   OH256998   0.124   0.640  13.727  0.2533 -0.1567 -0.7865
11836TIP3    H156999   0.110   0.558  13.680  1.7464  0.6972 -2.8809
11836TIP3    H257000   0.045   0.691  13.712  0.2950 -0.3020 -1.5374
11837TIP3   OH257001   5.093   3.193  11.815  0.0131 -0.0508  0.4289
11837TIP3    H157002   5.123   3.177  11.726 -1.3067 -2.3570  0.3319
11837TIP3    H257003   5.173   3.209  11.865  1.0373 -1.5635 -0.6416
11838TIP3   OH257004   4.448   6.208   0.905  0.2251  0.2794  0.6238
11838TIP3    H157005   4.440   6.181   0.813  1.2398  0.1090  0.5731
11838TIP3    H257006   4.470   6.127   0.951  0.7434  0.5487  0.8581
11839TIP3   OH257007   5.360   2.541  15.132 -0.2372  0.2368  0.3305
11839TIP3    H157008   5.439   2.495  15.160 -0.2951  1.3613  2.5283
11839TIP3    H257009   5.305   2.473  15.093  2.4523 -0.3017 -2.9783
11840TIP3   OH257010   0.292   5.900   4.206  0.2419 -0.2615 -0.3823
11840TIP3    H157011   0.222   5.835   4.208 -0.1354  0.1325  1.9343
11840TIP3    H257012   0.255   5.973   4.155 -2.4953  1.3183  3.3641
11841TIP3   OH257013   4.253   3.446   0.285 -0.6871 -0.2175 -0.3828
11841TIP3    H157014   4.158   3.460   0.286 -0.9069 -1.5605  0.2244
11841TIP3    H257015   4.263   3.351   0.283  0.6216 -0.2084  1.8777
11842TIP3   OH257016   4.245   4.454  12.898  0.2348  0.4553  0.3158
11842TIP3    H157017   4.186   4.441  12.973 -2.1784  1.6428 -1.2773
11842TIP3    H257018   4.322   4.498  12.936 -0.5741  0.3332  2.2105
11843TIP3   OH257019   5.356   1.222   3.156  0.3951  0.0805 -0.4021
11843TIP3    H157020   5.394   1.247   3.240  0.4379  0.5863 -0.5671
11843TIP3    H257021   5.274   1.177   3.179 -0.3791  1.5680 -0.1146
11844TIP3   OH257022   1.796   1.539  16.140 -0.7237  0.0107  0.4199
11844TIP3    H157023   1.890   1.557  16.136 -0.9615  1.8456  1.7630
11844TIP3    H257024   1.756   1.625  16.158 -2.8945 -0.2212 -2.4524
11845TIP3   OH257025   4.226   2.637  15.536  0.1472  0.2792  0.3341
11845TIP3    H157026   4.238   2.545  15.559 -0.1393  1.0303  3.9794
11845TIP3    H257027   4.306   2.680  15.565  0.1099  1.2842 -0.9546
11846TIP3   OH257028   3.886   1.185   6.422 -0.3140  0.4241  0.7139
11846TIP3    H157029   3.860   1.277   6.413 -0.9259  0.1932 -0.1168
11846TIP3    H257030   3.831   1.139   6.358  1.1544 -0.3009 -0.0759
11847TIP3   OH257031   1.436   1.340   0.774  0.4239 -0.2996 -0.3453
11847TIP3    H157032   1.410   1.409   0.834 -0.0136  0.5020 -1.4131
11847TIP3    H257033   1.531   1.333   0.785  0.5711  0.9006 -0.6308
11848TIP3   OH257034   2.639   3.994  12.317  0.2807 -0.3057  0.4192
11848TIP3    H157035   2.645   3.920  12.378  1.0501 -0.5650  0.0337
11848TIP3    H257036   2.555   3.980  12.272  0.7481 -1.3662 -0.1707
11849TIP3   OH257037   0.847   1.244   3.773  0.5842  0.7301 -0.2672
11849TIP3    H157038   0.853   1.180   3.844  0.5516 -1.7951 -2.3887
11849TIP3    H257039   0.927   1.297   3.783  1.5295 -0.7631  0.5855
11850TIP3   OH257040   3.615   6.457  16.463 -0.6533 -0.0547 -0.4064
11850TIP3    H157041   3.537   6.409  16.433 -1.7743  1.7574 -0.5508
11850TIP3    H257042   3.582   6.515  16.532  0.8344 -0.1497  0.4071
11851TIP3   OH257043   3.936   4.123  13.998 -0.3288 -0.1900  0.2419
11851TIP3    H157044   3.863   4.142  14.058  1.3054  0.6183  2.1119
11851TIP3    H257045   3.978   4.046  14.036  0.8170  0.4145  0.2464
11852TIP3   OH257046   3.022   3.500   2.437 -0.5374 -0.4303 -0.4606
11852TIP3    H157047   3.032   3.537   2.524 -1.4949 -0.7538 -0.2112
11852TIP3    H257048   2.981   3.415   2.451 -0.8268 -0.4282 -1.2320
11853TIP3   OH257049   0.691   3.163  16.604 -0.4052 -0.2965 -0.0865
11853TIP3    H157050   0.731   3.130  16.685 -3.2137  0.9835  2.0066
11853TIP3    H257051   0.738   3.245  16.586 -0.4007 -0.0708  0.8850
11854TIP3   OH257052   2.864   1.096  12.206  0.0054 -0.1119 -0.3867
11854TIP3    H157053   2.950   1.068  12.237 -0.2992  0.3061  0.8855
11854TIP3    H257054   2.802   1.045  12.257 -0.5165  0.5454 -0.3476
11855TIP3   OH257055   2.621   4.628  15.219  0.5964 -0.1222 -0.0319
11855TIP3    H157056   2.635   4.723  15.216  0.6196 -0.0481  1.4721
11855TIP3    H257057   2.702   4.590  15.186  1.0556  0.3869  0.4832
11856TIP3   OH257058   6.580   6.444  11.707 -0.0695 -0.5260 -0.5497
11856TIP3    H157059   6.544   6.492  11.782 -0.8755 -2.4890  0.4050
11856TIP3    H257060   6.545   6.355  11.718  3.2111 -1.9802 -0.9109
11857TIP3   OH257061   2.149   6.397  13.523  0.2661 -0.8124  0.1129
11857TIP3    H157062   2.128   6.434  13.609 -1.0686  0.1116 -0.5826
11857TIP3    H257063   2.154   6.303  13.539 -0.1695 -0.6784  1.1772
11858TIP3   OH257064   0.745   1.551   0.093 -0.4019  0.1036  0.3323
11858TIP3    H157065   0.707   1.558   0.006  0.3249 -0.6374 -0.0664
11858TIP3    H257066   0.672   1.567   0.153 -1.0730 -0.1050 -0.4116
11859TIP3   OH257067   5.419   2.864   0.488  0.0153 -0.3157 -0.0804
11859TIP3    H157068   5.502   2.913   0.493 -0.3060  0.2171  0.0548
11859TIP3    H257069   5.392   2.853   0.579 -0.0265 -0.5605 -0.1220
11860TIP3   OH257070   4.391   6.692   4.775 -0.2274 -0.2971  0.2247
11860TIP3    H157071   4.331   6.637   4.826  0.9396 -0.4819  1.4570
11860TIP3    H257072   4.342   6.772   4.757 -1.8143 -1.5316 -1.2347
11861TIP3   OH257073   0.802   6.065   4.204  0.2128  0.1068  0.4946
11861TIP3    H157074   0.871   6.036   4.145 -0.2028  1.7810 -0.8864
11861TIP3    H257075   0.721   6.033   4.165  0.0051  0.4003  0.6770
11862TIP3   OH257076   0.619   2.208   4.232 -0.4426 -0.0196  0.6736
11862TIP3    H157077   0.622   2.113   4.240 -0.8381  0.0486  1.8094
11862TIP3    H257078   0.587   2.238   4.317  2.1464  1.2770  1.3046
11863TIP3   OH257079   2.786   2.582  13.714  0.0241  0.6483 -0.0902
11863TIP3    H157080   2.769   2.570  13.807 -1.1530 -1.1255 -0.4686
11863TIP3    H257081   2.746   2.666  13.693 -3.6856 -0.8216  0.2389
11864TIP3   OH257082   3.127   5.699  13.504 -0.4919 -0.5063 -0.0329
11864TIP3    H157083   3.171   5.695  13.419  0.6798 -2.8897  0.5983
11864TIP3    H257084   3.107   5.792  13.516  2.0660  0.3376 -1.5331
11865TIP3   OH257085   6.214   4.395  17.272  0.6169  0.0862 -0.5556
11865TIP3    H157086   6.176   4.307  17.270 -2.4336  1.3018 -1.3787
11865TIP3    H257087   6.265   4.400  17.191 -0.2974 -0.4771 -1.1803
11866TIP3   OH257088   3.030   5.621  17.123 -0.0602  0.5497 -0.0917
11866TIP3    H157089   3.063   5.535  17.098  0.2150 -0.1637  2.4223
11866TIP3    H257090   2.960   5.602  17.185 -0.6014  2.1533 -0.1609
11867TIP3   OH257091   5.096   0.152   1.151  0.2070  0.2436  0.2605
11867TIP3    H157092   5.072   0.122   1.238 -0.1241  2.9795  1.2325
11867TIP3    H257093   5.075   0.246   1.152  1.5828  0.6713 -2.2597
11868TIP3   OH257094   2.265   5.916   5.522  0.0055 -0.0783 -0.0542
11868TIP3    H157095   2.202   5.987   5.514  0.0097 -0.1726 -1.0174
11868TIP3    H257096   2.350   5.958   5.508  0.0017 -0.2887 -0.7104
11869TIP3   OH257097   3.193   4.898  16.858 -0.1146  0.6420 -0.0619
11869TIP3    H157098   3.164   4.902  16.767 -1.9095  1.0991  0.4938
11869TIP3    H257099   3.173   4.984  16.894 -0.6526  0.0495  1.1076
11870TIP3   OH257100   1.471   4.246  16.090  0.1946  0.2659 -0.6199
11870TIP3    H157101   1.489   4.185  16.161 -0.3555  2.2690  1.3335
11870TIP3    H257102   1.548   4.239  16.033  1.5067 -0.0900  1.1135
11871TIP3   OH257103   4.609   5.782   0.692  0.0467 -0.0998  0.3795
11871TIP3    H157104   4.660   5.862   0.694 -1.9223  1.2169  0.3225
11871TIP3    H257105   4.621   5.748   0.603  0.3535  0.4990  0.1855
11872TIP3   OH257106   0.962   1.898  16.608 -0.1072 -0.4646  0.5691
11872TIP3    H157107   1.007   1.814  16.614  0.1177 -0.3196  0.9583
11872TIP3    H257108   0.986   1.932  16.522 -1.1256 -1.3128 -0.0750
11873TIP3   OH257109   1.382   6.188  16.267  0.1843 -0.3569  0.2680
11873TIP3    H157110   1.315   6.255  16.254 -0.5416 -0.5817  2.4306
11873TIP3    H257111   1.442   6.226  16.331  0.6032 -1.1997  0.3940
11874TIP3   OH257112   5.307   1.580   3.351 -0.7652  0.2020 -0.0416
11874TIP3    H157113   5.338   1.548   3.267 -0.1673 -0.0603  0.2726
11874TIP3    H257114   5.233   1.522   3.372  0.2654 -0.9740  0.4890
11875TIP3   OH257115   3.471   0.551   4.996 -0.2887  0.1284  0.3362
11875TIP3    H157116   3.523   0.485   5.043 -0.5018 -0.5355 -0.3320
11875TIP3    H257117   3.394   0.503   4.966  0.2278  0.3108 -1.3826
11876TIP3   OH257118   6.625   4.992  13.539 -0.1420  0.0831  0.4172
11876TIP3    H157119   6.539   4.962  13.566 -2.2717 -0.9401 -5.8466
11876TIP3    H257120   6.681   4.915  13.547 -0.9593 -0.5127  0.5012
11877TIP3   OH257121   2.834   5.503   5.286  0.2494  0.0008  0.0466
11877TIP3    H157122   2.890   5.468   5.217 -0.7229 -0.7121 -0.4105
11877TIP3    H257123   2.751   5.521   5.242 -0.0256  0.5896  0.8019
11878TIP3   OH257124   3.624   4.501  16.621  0.6683 -0.1909 -0.2535
11878TIP3    H157125   3.680   4.432  16.587  1.0410 -0.1896  0.3423
11878TIP3    H257126   3.684   4.560  16.667  0.2484  0.1058 -0.0779
11879TIP3   OH257127   5.610   6.645   4.786  0.4238  0.3327 -0.0212
11879TIP3    H157128   5.604   6.562   4.739  2.2712  0.4034 -0.4819
11879TIP3    H257129   5.569   6.627   4.871 -2.6723  0.1067 -1.4254
11880TIP3   OH257130   1.843   4.787   1.061 -0.1240  0.3989 -0.5463
11880TIP3    H157131   1.751   4.762   1.055 -0.7324  2.0614  0.9845
11880TIP3    H257132   1.877   4.733   1.133  0.0359  0.0026 -0.9135
11881TIP3   OH257133   1.302   2.358  11.701 -0.4858  0.4459 -0.3293
11881TIP3    H157134   1.312   2.451  11.725  0.6446 -0.1219  1.6511
11881TIP3    H257135   1.387   2.319  11.722 -0.8994 -1.0358 -1.2656
11882TIP3   OH257136   1.008   2.506   0.146 -0.0396 -0.3406  0.1236
11882TIP3    H157137   1.073   2.562   0.104 -2.1602  0.7577 -1.9553
11882TIP3    H257138   0.971   2.454   0.075 -0.8934 -1.5433  1.3771
11883TIP3   OH257139   2.985   1.282  15.823  0.0683 -0.0798 -0.0051
11883TIP3    H157140   3.014   1.332  15.900 -1.8089  0.3884  0.4586
11883TIP3    H257141   2.961   1.196  15.859  0.0598 -0.1669 -0.2225
11884TIP3   OH257142   4.550   0.147   1.481  0.0484  0.1035 -0.7771
11884TIP3    H157143   4.468   0.183   1.513  0.1861 -0.2971  0.0291
11884TIP3    H257144   4.593   0.221   1.437  0.0723  0.7991  0.3714
11885TIP3   OH257145   3.532   2.597   2.668  0.0404 -0.1433 -0.0088
11885TIP3    H157146   3.457   2.614   2.611  1.0302 -2.0412 -1.9843
11885TIP3    H257147   3.589   2.674   2.656  0.1106 -0.3966 -1.4073
11886TIP3   OH257148   3.034   1.901  15.061 -0.3174  0.0538 -0.4504
11886TIP3    H157149   3.052   1.814  15.025  1.0280 -0.2608  0.8743
11886TIP3    H257150   3.097   1.959  15.019 -0.3590  0.1503 -0.3807
11887TIP3   OH257151   0.407   5.217   1.310 -0.1970  0.4969 -0.2708
11887TIP3    H157152   0.416   5.285   1.243  2.9088 -0.1836 -0.7220
11887TIP3    H257153   0.494   5.212   1.350 -0.7938 -2.0254  0.9115
11888TIP3   OH257154   0.443   1.657   0.572 -0.0946  0.8343 -0.4633
11888TIP3    H157155   0.439   1.751   0.584  0.2384  0.7615  0.2516
11888TIP3    H257156   0.536   1.638   0.560 -0.0980  0.5410 -0.0717
11889TIP3   OH257157   4.237   1.545  15.577  0.2116 -0.0513  0.4131
11889TIP3    H157158   4.324   1.528  15.542  0.7461  0.4073  1.4510
11889TIP3    H257159   4.250   1.618  15.638 -0.8788 -0.0535  0.6649
11890TIP3   OH257160   3.815   4.444  14.530 -0.4007 -0.2917 -0.2196
11890TIP3    H157161   3.893   4.441  14.585 -0.2648  1.2678 -0.2804
11890TIP3    H257162   3.763   4.517  14.565 -1.1981 -0.4594 -0.9960
11891TIP3   OH257163   4.448   5.486   2.220 -0.0471 -0.1604 -0.2986
11891TIP3    H157164   4.538   5.455   2.208 -0.2300 -0.3467 -1.2726
11891TIP3    H257165   4.458   5.571   2.262  0.4757 -1.2835  1.9666
11892TIP3   OH257166   2.223   3.853   6.349  0.1931  0.1103 -0.0885
11892TIP3    H157167   2.317   3.862   6.367  0.8781 -0.8263 -2.7753
11892TIP3    H257168   2.204   3.922   6.286 -1.1719  0.7905  0.9880
11893TIP3   OH257169   2.086   5.117  16.697  0.3229 -0.3343 -0.4007
11893TIP3    H157170   2.136   5.163  16.765  2.1798  0.0526 -1.9333
11893TIP3    H257171   2.056   5.186  16.638 -0.4694 -0.7398 -0.4818
11894TIP3   OH257172   3.293   5.398   4.044 -0.2166 -0.0614  0.2812
11894TIP3    H157173   3.227   5.431   3.983  1.7131 -0.4050 -2.1799
11894TIP3    H257174   3.367   5.458   4.033  0.8601 -1.2398  0.8966
11895TIP3   OH257175   2.748   4.194  15.340  0.7359  0.5058  0.0225
11895TIP3    H157176   2.794   4.164  15.262 -1.2437 -3.0405 -0.0223
11895TIP3    H257177   2.663   4.222  15.309  0.2947  0.0392  0.7703
11896TIP3   OH257178   5.340   4.519   2.791  0.0973 -0.4384 -0.0558
11896TIP3    H157179   5.328   4.458   2.864  1.0523  0.0636  0.5497
11896TIP3    H257180   5.435   4.517   2.774  0.5073  2.3065  1.3095
11897TIP3   OH257181   3.865   4.521   1.715 -0.2006 -0.6424  0.0943
11897TIP3    H157182   3.880   4.577   1.639  0.5651 -0.3035  0.4892
11897TIP3    H257183   3.774   4.493   1.706 -0.9997  1.6156  0.4981
11898TIP3   OH257184   1.075   2.780  15.323  0.2337  0.3001 -0.4102
11898TIP3    H157185   1.143   2.839  15.292 -0.3531  1.1074 -0.1714
11898TIP3    H257186   0.993   2.821  15.296 -0.1671 -0.8056 -0.9447
11899TIP3   OH257187   4.796   4.018  13.306  0.0081 -0.4674 -0.2272
11899TIP3    H157188   4.867   4.046  13.364 -0.6827  1.8160 -0.4061
11899TIP3    H257189   4.746   3.956  13.359 -1.1421  2.2330  2.0906
11900TIP3   OH257190   0.704   3.411  10.501  0.5452  0.6159 -0.3612
11900TIP3    H157191   0.782   3.425  10.446 -0.0644  0.3891 -1.2952
11900TIP3    H257192   0.632   3.403  10.439 -0.1408  0.2065  0.4756
11901TIP3   OH257193   4.167   5.672  12.630  0.3055 -0.2523  0.6577
11901TIP3    H157194   4.207   5.737  12.572 -2.5156 -1.1185 -2.6094
11901TIP3    H257195   4.157   5.716  12.714  2.7441  1.8162 -0.0238
11902TIP3   OH257196   3.126   5.034  12.295  0.0389  0.0057  0.3509
11902TIP3    H157197   3.132   5.002  12.385  1.2568  1.2849  0.7664
11902TIP3    H257198   3.201   5.094  12.286 -0.1590  0.0356 -1.4584
11903TIP3   OH257199   3.614   1.555   4.359  0.1003 -0.3728  0.4639
11903TIP3    H157200   3.538   1.528   4.306 -1.7152  1.5325  1.9162
11903TIP3    H257201   3.596   1.646   4.382  2.8293  0.1133  0.9969
11904TIP3   OH257202   6.415   2.954   4.900 -0.7050  0.0622  0.2039
11904TIP3    H157203   6.422   2.874   4.951 -1.0420 -0.0669  0.0531
11904TIP3    H257204   6.490   3.007   4.927  0.0526 -0.6895 -0.3853
11905TIP3   OH257205   2.248   0.397   3.746  0.1800 -0.0651  0.2368
11905TIP3    H157206   2.289   0.373   3.664 -0.4417  0.5069 -0.2580
11905TIP3    H257207   2.160   0.428   3.721  0.5285  1.6172  0.9104
11906TIP3   OH257208   0.679   3.368   1.451  0.4707 -0.1503 -0.0694
11906TIP3    H157209   0.686   3.290   1.507  2.3597  0.4084  0.5412
11906TIP3    H257210   0.702   3.336   1.363  0.2383 -0.4832 -0.0105
11907TIP3   OH257211   4.095   2.115  12.024  0.3448  0.5323  0.0659
11907TIP3    H157212   4.094   2.204  12.058  0.4761  0.9879 -1.0963
11907TIP3    H257213   4.127   2.123  11.934  0.1194 -0.6549 -0.1424
11908TIP3   OH257214   3.183   1.998   0.448  0.1633 -1.0877  0.0849
11908TIP3    H157215   3.155   1.968   0.361 -1.0736 -2.9388  1.0315
11908TIP3    H257216   3.246   2.067   0.431  0.7508 -2.1119 -2.2974
11909TIP3   OH257217   2.514   4.927  14.503 -0.2125 -0.2169  0.4307
11909TIP3    H157218   2.463   4.946  14.424 -0.9763 -0.3983  0.8741
11909TIP3    H257219   2.531   4.833  14.498 -1.1392 -0.4290  0.9798
11910TIP3   OH257220   1.995   0.273   3.957 -0.5196  0.3815 -0.2366
11910TIP3    H157221   2.087   0.251   3.940 -0.5586  0.7709 -1.0294
11910TIP3    H257222   1.946   0.216   3.897 -0.6250  2.4737 -2.2803
11911TIP3   OH257223   1.385   2.743  11.512 -0.4433  0.6582 -0.0525
11911TIP3    H157224   1.401   2.817  11.454  0.7618 -0.4650 -1.2343
11911TIP3    H257225   1.388   2.666  11.455 -1.5553 -0.3315  1.1416
11912TIP3   OH257226   1.883   5.325  10.324  0.6613 -0.0992 -0.0226
11912TIP3    H157227   1.917   5.296  10.409  0.9363  0.5633  0.0965
11912TIP3    H257228   1.906   5.418  10.319 -2.2569  0.7407  0.6285
11913TIP3   OH257229   1.595   1.144   5.510 -0.2436  0.3220  0.2422
11913TIP3    H157230   1.509   1.115   5.477  0.5286  0.3548 -1.9854
11913TIP3    H257231   1.630   1.068   5.556 -0.5762 -0.4145 -0.6981
11914TIP3   OH257232   1.234   2.926  12.157 -0.1889  0.2492 -0.1299
11914TIP3    H157233   1.181   2.999  12.126 -0.0257 -0.2660 -1.7404
11914TIP3    H257234   1.295   2.909  12.086 -0.5051 -1.7124  0.0060
11915TIP3   OH257235   5.086   4.143   2.863 -0.1021 -0.4398  0.2087
11915TIP3    H157236   5.039   4.224   2.841  0.2181 -0.8216 -2.0807
11915TIP3    H257237   5.100   4.099   2.779  0.7404 -2.3426  1.2726
11916TIP3   OH257238   6.099   0.044   3.659 -0.0144  0.2239  0.2528
11916TIP3    H157239   6.031   0.095   3.701 -0.8807 -0.2002 -0.5910
11916TIP3    H257240   6.058  -0.040   3.639  0.8783 -0.1926  0.0976
11917TIP3   OH257241   1.874   5.331  12.077  0.1060 -0.1930  0.0457
11917TIP3    H157242   1.812   5.268  12.038 -1.0541  1.9869 -1.8517
11917TIP3    H257243   1.955   5.318  12.029 -1.0789  1.9015 -2.8094
11918TIP3   OH257244   2.083   2.865  12.433  0.1559  0.0327 -0.5251
11918TIP3    H157245   2.139   2.925  12.384 -0.3785  0.2921 -0.8339
11918TIP3    H257246   2.018   2.836  12.369 -0.7824  0.6663  0.1112
11919TIP3   OH257247   3.365   3.866  13.825 -0.4879  0.2939  0.0391
11919TIP3    H157248   3.301   3.934  13.804 -2.1967 -1.6545 -1.5061
11919TIP3    H257249   3.332   3.788  13.780  2.5402 -1.0304 -0.0904
11920TIP3   OH257250   1.082   1.161  14.673 -0.1803  0.4437 -0.4017
11920TIP3    H157251   1.017   1.099  14.707 -0.0760  1.1042  1.0881
11920TIP3    H257252   1.146   1.170  14.743 -1.0708  3.4762  0.1542
11921TIP3   OH257253   2.920   3.532  16.189 -0.8511  0.3556  0.0110
11921TIP3    H157254   2.988   3.567  16.132  1.8443 -2.2008  1.3938
11921TIP3    H257255   2.841   3.531  16.134  0.9661  0.3895 -2.8020
11922TIP3   OH257256   3.421   2.135  15.698  0.6388 -0.4235  0.7121
11922TIP3    H157257   3.433   2.093  15.783 -0.0997  0.3609  1.2113
11922TIP3    H257258   3.510   2.139  15.661  0.7528 -2.2494  0.7067
11923TIP3   OH257259   0.155   4.008   4.964 -0.1906  0.0801  0.3765
11923TIP3    H157260   0.167   3.925   4.919  1.8921  0.0485  0.8938
11923TIP3    H257261   0.133   4.070   4.895  0.8843 -0.3868 -0.4067
11924TIP3   OH257262   5.725   1.572  16.227 -0.1944 -0.4324  0.3858
11924TIP3    H157263   5.659   1.548  16.162  0.1748 -1.1166  0.2569
11924TIP3    H257264   5.674   1.597  16.305 -0.6980  1.9399 -0.6348
11925TIP3   OH257265   1.750   5.977  16.836 -0.3362  0.0075  0.9950
11925TIP3    H157266   1.759   5.883  16.847 -1.8155 -0.0921  1.6596
11925TIP3    H257267   1.698   5.987  16.756  0.0686  0.2698  0.7629
11926TIP3   OH257268   0.355   1.300  11.130  0.0409  0.2554  0.1150
11926TIP3    H157269   0.379   1.310  11.038  3.2147 -0.7389  0.7179
11926TIP3    H257270   0.419   1.239  11.165 -2.2157 -0.8866  2.6102
11927TIP3   OH257271   6.280   4.090  10.824  0.1629  0.6448 -0.5339
11927TIP3    H157272   6.297   4.161  10.885 -0.9967 -0.3513  1.0326
11927TIP3    H257273   6.341   4.021  10.848 -1.5702 -0.4941  0.8846
11928TIP3   OH257274   6.273   1.216  17.103  0.4376 -0.4258  0.8534
11928TIP3    H157275   6.314   1.212  17.189 -0.0757 -0.3558  1.1011
11928TIP3    H257276   6.299   1.134  17.061  0.7698 -0.4168  1.0325
11929TIP3   OH257277   3.823   0.684   2.994 -0.0600 -0.2846  0.0407
11929TIP3    H157278   3.863   0.771   2.997 -2.2129  0.7892 -0.7603
11929TIP3    H257279   3.856   0.640   3.073  1.0891  1.2301  0.4449
11930TIP3   OH257280   1.637   4.555  11.371  0.2873 -0.2896  0.1452
11930TIP3    H157281   1.730   4.568  11.354  0.5353  1.5159  2.4313
11930TIP3    H257282   1.613   4.625  11.431 -2.3235 -1.3154  0.4442
11931TIP3   OH257283   0.080   0.224   4.715 -0.6207 -0.0782  0.6616
11931TIP3    H157284   0.172   0.202   4.730 -0.4456  0.8410  1.0183
11931TIP3    H257285   0.075   0.248   4.622 -0.6714 -0.8801  0.4476
11932TIP3   OH257286   0.318   6.142  12.346  0.0990  0.0841 -0.1787
11932TIP3    H157287   0.396   6.173  12.391 -0.2403 -0.1869  0.6225
11932TIP3    H257288   0.245   6.169  12.402 -0.4023  0.4616 -0.9871
11933TIP3   OH257289   6.160   6.753  12.135  0.7011 -0.2467  0.8329
11933TIP3    H157290   6.089   6.801  12.092 -1.0374 -1.5707  2.0842
11933TIP3    H257291   6.228   6.819  12.148 -0.9615  1.5085  1.0946
11934TIP3   OH257292   1.979   2.486   3.713  0.0629 -0.0555 -0.3766
11934TIP3    H157293   2.044   2.491   3.783 -1.3197 -1.7846  1.1145
11934TIP3    H257294   1.913   2.551   3.737 -0.3092 -0.5050 -0.1630
11935TIP3   OH257295   5.047   5.981   4.772 -0.4697  0.1564  0.1323
11935TIP3    H157296   5.052   6.029   4.690  0.2487  0.1556  0.1685
11935TIP3    H257297   4.985   5.910   4.755 -0.3622  0.1851 -0.3875
11936TIP3   OH257298   5.195   5.611  12.277  0.2281 -0.1137  0.9451
11936TIP3    H157299   5.229   5.522  12.269 -0.8034 -0.3899 -0.9454
11936TIP3    H257300   5.163   5.616  12.367 -0.5160 -1.9819  0.8310
11937TIP3   OH257301   0.288   1.336  12.097 -0.1725 -0.2225  0.3028
11937TIP3    H157302   0.197   1.306  12.104 -0.0527 -0.8396 -0.6400
11937TIP3    H257303   0.311   1.321  12.006  0.5853  0.8195  0.3158
11938TIP3   OH257304   2.013   2.918  11.646  0.0178  0.3498 -0.0541
11938TIP3    H157305   2.100   2.927  11.607  0.5254 -0.3460  0.8868
11938TIP3    H257306   2.003   2.825  11.664 -1.2863  0.2897 -0.9235
11939TIP3   OH257307   2.170   3.526   0.542 -0.0696 -0.3290 -0.4816
11939TIP3    H157308   2.167   3.485   0.629  0.2800 -1.7604 -1.1091
11939TIP3    H257309   2.098   3.485   0.494 -1.2766  1.6133 -0.4226
11940TIP3   OH257310   1.976   6.584  15.443 -0.0350 -0.4778  0.1469
11940TIP3    H157311   1.934   6.662  15.407  1.4138 -1.0104 -2.9827
11940TIP3    H257312   2.031   6.617  15.514 -0.8402  1.0541  0.1047
11941TIP3   OH257313   2.443   6.736  12.607  0.2417 -0.1279  0.6855
11941TIP3    H157314   2.358   6.757  12.568  0.7591  1.5867  0.4118
11941TIP3    H257315   2.503   6.734  12.532  0.4358 -1.5684  0.8460
11942TIP3   OH257316   0.455   4.279   0.520  0.0492  0.6738  0.4547
11942TIP3    H157317   0.468   4.359   0.470 -1.0239 -0.1443 -1.2262
11942TIP3    H257318   0.540   4.236   0.520  0.3075  1.1847  0.2495
11943TIP3   OH257319   3.213   3.112  11.731  0.4858  0.0222  0.1151
11943TIP3    H157320   3.218   3.065  11.648 -1.7093  0.8767 -0.5603
11943TIP3    H257321   3.245   3.050  11.796 -1.9452 -2.3286 -0.7690
11944TIP3   OH257322   3.250   0.815  17.083  0.3289  0.1680  0.3420
11944TIP3    H157323   3.250   0.894  17.029 -2.3085 -0.8229 -1.2729
11944TIP3    H257324   3.226   0.846  17.170  0.7806  1.3051  0.0868
11945TIP3   OH257325   1.415   3.629   1.700 -0.0148 -0.4933  0.6217
11945TIP3    H157326   1.332   3.582   1.691 -1.0491  1.4508 -0.7639
11945TIP3    H257327   1.393   3.721   1.683  2.4691  0.0637 -0.0155
11946TIP3   OH257328   4.549   1.550   2.916 -0.0526 -0.5877 -0.0357
11946TIP3    H157329   4.605   1.494   2.861 -1.7820 -1.1765 -1.3103
11946TIP3    H257330   4.497   1.599   2.853 -1.9075 -1.0558  1.0675
11947TIP3   OH257331   3.770   3.585  15.583 -0.1192 -0.4528  0.0878
11947TIP3    H157332   3.734   3.668  15.551 -0.6292  0.2144  2.2368
11947TIP3    H257333   3.865   3.596  15.575 -0.1719  0.4824  0.6523
11948TIP3   OH257334   1.377   6.710   0.633  0.4703  0.7699 -0.1346
11948TIP3    H157335   1.342   6.799   0.629 -0.8811  0.5186  3.0377
11948TIP3    H257336   1.463   6.721   0.674  0.6004  0.6474 -0.3704
11949TIP3   OH257337   3.542   0.719   2.995  0.2057 -0.2428 -0.2460
11949TIP3    H157338   3.510   0.761   3.074  0.7753  2.1571 -1.2055
11949TIP3    H257339   3.634   0.700   3.014 -0.0865 -1.2672  0.2362
11950TIP3   OH257340   1.235   4.993   0.864 -0.1464 -0.0436 -0.0983
11950TIP3    H157341   1.288   4.915   0.845  1.1120  0.2856  1.7546
11950TIP3    H257342   1.267   5.059   0.802  0.2734 -0.4070 -0.2749
11951TIP3   OH257343   4.393   5.432   3.055 -0.3351 -0.7992  0.2445
11951TIP3    H157344   4.395   5.336   3.053  0.5058 -0.7860  0.0339
11951TIP3    H257345   4.485   5.458   3.059 -0.4816  0.0306 -1.1817
11952TIP3   OH257346   5.061   3.226  12.231  0.0924  0.7924  0.5110
11952TIP3    H157347   5.018   3.164  12.290 -2.4131  0.7031 -1.2313
11952TIP3    H257348   5.014   3.309  12.245 -0.1391  0.9185 -0.8809
11953TIP3   OH257349   6.631   2.059  10.937  0.1444  0.1195 -0.5343
11953TIP3    H157350   6.588   2.109  10.868  2.4498 -0.0603 -2.2252
11953TIP3    H257351   6.584   1.975  10.939 -0.4342  0.4155 -1.3649
11954TIP3   OH257352   3.691   2.379  12.443  0.0392 -0.2066  0.1086
11954TIP3    H157353   3.634   2.347  12.513  1.4678 -0.5205  1.1669
11954TIP3    H257354   3.757   2.433  12.487  0.2026  0.6990 -1.1600
11955TIP3   OH257355   1.474   4.310  16.503  0.3174  0.2942 -0.1385
11955TIP3    H157356   1.393   4.269  16.532  0.6429 -0.4225 -0.2132
11955TIP3    H257357   1.526   4.238  16.467 -1.0390  1.3834 -4.9454
11956TIP3   OH257358   1.464   1.034  15.578  0.0724  0.0405 -0.1401
11956TIP3    H157359   1.431   1.071  15.496 -1.0418 -1.8801 -0.6234
11956TIP3    H257360   1.522   1.102  15.613 -0.5318  1.4933 -1.7873
11957TIP3   OH257361   6.379   6.269  17.115 -0.7963  0.0916  0.2513
11957TIP3    H157362   6.290   6.237  17.126 -0.9425  0.1172 -0.7903
11957TIP3    H257363   6.425   6.237  17.193 -1.3554 -1.1945  0.0832
11958TIP3   OH257364   4.052   1.814  16.031  0.7631  0.4912  0.1610
11958TIP3    H157365   4.005   1.746  15.982  1.0504  0.7922 -0.5538
11958TIP3    H257366   4.091   1.767  16.105  1.1186 -0.1798 -0.4270
11959TIP3   OH257367   6.342   0.484   2.751 -0.6741  0.6336  0.1881
11959TIP3    H157368   6.408   0.522   2.809  0.5414  0.1042 -0.8063
11959TIP3    H257369   6.312   0.406   2.797 -0.3643  0.6951  0.5010
11960TIP3   OH257370   1.657   5.839  14.608 -0.1193  0.8748 -0.4340
11960TIP3    H157371   1.672   5.933  14.618  0.9984  0.5592  1.4288
11960TIP3    H257372   1.574   5.832  14.561  0.2532  2.7681 -1.4623
11961TIP3   OH257373   4.421   0.957  15.951 -0.2599  0.1002 -0.0614
11961TIP3    H157374   4.475   0.910  16.015 -0.2071  1.0438  0.6008
11961TIP3    H257375   4.480   0.975  15.878 -0.8265 -2.8506 -1.4010
11962TIP3   OH257376   0.529   1.091   1.373 -0.2715  0.0166  0.5462
11962TIP3    H157377   0.596   1.108   1.306 -0.5475 -1.1946 -0.0807
11962TIP3    H257378   0.532   0.996   1.386 -1.6715 -0.0391  0.6930
11963TIP3   OH257379   1.928   1.880   3.949 -0.6252  1.0300  0.0774
11963TIP3    H157380   1.865   1.951   3.939  0.1136  1.6251 -0.3680
11963TIP3    H257381   1.874   1.801   3.952 -1.6189  1.7147  2.5670
11964TIP3   OH257382   6.027   4.872   4.610 -0.7765  0.0149  0.1997
11964TIP3    H157383   5.944   4.893   4.567  0.2572  0.2670 -1.7895
11964TIP3    H257384   6.007   4.794   4.662 -2.5852  0.8979  0.9143
11965TIP3   OH257385   5.880   1.141   4.033 -0.0273  0.3266  0.0899
11965TIP3    H157386   5.918   1.066   3.988  0.6090  1.2239 -0.9017
11965TIP3    H257387   5.812   1.103   4.090 -0.9764 -0.8305 -1.7321
11966TIP3   OH257388   5.496   2.916   3.908  0.5043  0.4146 -0.4871
11966TIP3    H157389   5.564   2.867   3.954 -1.0499 -0.2496  1.2568
11966TIP3    H257390   5.481   2.866   3.827 -1.0429 -2.2153  1.2374
11967TIP3   OH257391   1.421   2.639   4.122  0.5327 -0.1973  0.1665
11967TIP3    H157392   1.417   2.683   4.038  2.7235  0.3538  0.2956
11967TIP3    H257393   1.332   2.645   4.156 -0.1932  0.3489 -1.6964
11968TIP3   OH257394   3.590   3.123  11.708  0.2296  0.2906 -0.3525
11968TIP3    H157395   3.529   3.190  11.676  0.5610  1.5528  1.4876
11968TIP3    H257396   3.643   3.100  11.632 -2.5511 -0.9726 -2.0791
11969TIP3   OH257397   6.456   1.296   5.489  0.4221 -0.1140  0.3901
11969TIP3    H157398   6.503   1.214   5.474  1.8850  0.6351  0.6863
11969TIP3    H257399   6.507   1.341   5.557 -0.3658  1.0357  0.2566
11970TIP3   OH257400   5.700   3.318   2.860 -0.2111  0.1813 -0.0612
11970TIP3    H157401   5.634   3.365   2.809 -0.1358 -0.6227 -0.9357
11970TIP3    H257402   5.703   3.364   2.944 -2.6396 -0.3820  0.4180
11971TIP3   OH257403   2.260   2.412  14.290 -0.0383 -0.2470  0.0816
11971TIP3    H157404   2.332   2.360  14.325  0.4760 -0.2233 -0.9014
11971TIP3    H257405   2.275   2.413  14.196 -1.6645 -0.7340 -0.2140
11972TIP3   OH257406   5.633   3.302  13.852  0.7226 -0.3373 -0.6831
11972TIP3    H157407   5.694   3.228  13.842  3.0023  1.3861 -0.1960
11972TIP3    H257408   5.646   3.354  13.774  2.3078  1.6825  0.8134
11973TIP3   OH257409   1.648   3.232  17.026 -0.9900 -0.0914  0.0483
11973TIP3    H157410   1.689   3.162  16.976 -0.9416 -1.8442  2.4011
11973TIP3    H257411   1.720   3.292  17.046 -0.1874 -1.4028  1.2745
11974TIP3   OH257412   5.409   4.795  13.431  0.5076  0.1727  0.3559
11974TIP3    H157413   5.332   4.803  13.375  1.4662 -1.2389 -1.2853
11974TIP3    H257414   5.401   4.707  13.469  1.3144 -0.0307  0.0852
11975TIP3   OH257415   3.874   2.706  15.039 -0.0631 -0.4115 -0.7385
11975TIP3    H157416   3.788   2.701  15.081 -0.2138 -1.1009 -1.1193
11975TIP3    H257417   3.936   2.704  15.112 -0.3672  0.2943 -0.4503
11976TIP3   OH257418   6.487   3.066  10.673 -0.7601  0.4370 -0.0181
11976TIP3    H157419   6.409   3.031  10.629  0.4981 -0.0165 -2.0177
11976TIP3    H257420   6.518   3.135  10.615  0.3960  0.5300  0.6941
11977TIP3   OH257421   5.284   3.210  16.417 -0.4377 -0.0078  0.2287
11977TIP3    H157422   5.307   3.245  16.503 -0.4360 -0.7837  0.5581
11977TIP3    H257423   5.261   3.118  16.435 -1.2399  0.0515 -0.4781
11978TIP3   OH257424   6.796   2.531  13.609  0.0105 -0.0840  0.2265
11978TIP3    H157425   6.880   2.556  13.570 -0.5345 -0.1800 -1.0588
11978TIP3    H257426   6.749   2.613  13.621 -0.3838 -0.1713 -0.6748
11979TIP3   OH257427   1.038   1.619   2.046  0.2186 -0.4207 -0.2039
11979TIP3    H157428   1.094   1.542   2.039  0.1250 -0.6908  1.5178
11979TIP3    H257429   0.996   1.627   1.961  0.5363 -2.0346 -0.5390
11980TIP3   OH257430   2.073   0.655   4.554  0.0037  0.2871  0.0528
11980TIP3    H157431   2.105   0.659   4.644 -1.9291  1.8194  0.7317
11980TIP3    H257432   2.065   0.561   4.536  1.0535 -0.0501  1.2008
11981TIP3   OH257433   1.860   1.123  12.817  0.2521  0.3910 -0.2151
11981TIP3    H157434   1.772   1.092  12.834  0.5567 -0.2465  0.2431
11981TIP3    H257435   1.902   1.126  12.903  0.8398  0.1812 -0.4850
11982TIP3   OH257436   5.178   4.262   2.461  0.0633  0.2909 -0.1049
11982TIP3    H157437   5.257   4.313   2.478 -0.9493  1.1037  2.6484
11982TIP3    H257438   5.115   4.293   2.526 -1.4522 -2.6971  0.0043
11983TIP3   OH257439   4.475   3.481  11.472  0.4422 -0.6408 -0.3886
11983TIP3    H157440   4.523   3.549  11.425  2.0015 -0.9395  0.6820
11983TIP3    H257441   4.425   3.528  11.538  2.0760 -0.5230  0.8262
11984TIP3   OH257442   2.522   3.369  14.294 -0.3541 -0.4247 -0.7662
11984TIP3    H157443   2.590   3.433  14.272 -0.5335  0.1217  0.2056
11984TIP3    H257444   2.491   3.396  14.381 -1.1161 -1.2577 -0.7659
11985TIP3   OH257445   1.169   0.425  15.348  0.6040 -0.2938  0.3518
11985TIP3    H157446   1.224   0.449  15.273  0.1215  0.9820  0.3756
11985TIP3    H257447   1.096   0.487  15.345  0.2153 -0.6642  1.4817
11986TIP3   OH257448   1.352   6.429   5.805 -0.5965  0.0180 -0.1342
11986TIP3    H157449   1.321   6.339   5.808 -0.6698  0.0288 -0.4767
11986TIP3    H257450   1.305   6.474   5.875 -0.6278 -0.1883 -0.0238
11987TIP3   OH257451   3.620   0.127  14.034  0.5139  0.1419  0.2102
11987TIP3    H157452   3.675   0.166  14.103 -0.2893  1.5556  0.0914
11987TIP3    H257453   3.532   0.161  14.052  0.2200  0.2332 -1.2877
11988TIP3   OH257454   4.796   5.169   0.715  0.3305 -0.1048 -0.2791
11988TIP3    H157455   4.800   5.250   0.766  0.6932 -1.1015  1.3824
11988TIP3    H257456   4.838   5.190   0.632  1.8682  1.0007  0.7218
11989TIP3   OH257457   0.850   5.427   1.389 -0.3366 -0.1008  0.0497
11989TIP3    H157458   0.911   5.412   1.317  0.7534  1.0678  0.6766
11989TIP3    H257459   0.809   5.511   1.367  0.0720  0.3104  0.7974
11990TIP3   OH257460   2.377   1.796   0.060 -0.1362 -0.0287  0.3642
11990TIP3    H157461   2.363   1.822  -0.031 -1.6698  1.4478  0.9612
11990TIP3    H257462   2.469   1.816   0.077 -0.2156  1.1343 -0.4484
11991TIP3   OH257463   3.054   0.810  14.595  0.4300  0.3016 -0.2434
11991TIP3    H157464   3.060   0.903  14.573 -0.0679 -0.2082 -2.9484
11991TIP3    H257465   2.966   0.785  14.567  1.1515 -1.3279 -1.1908
11992TIP3   OH257466   0.686   1.206   1.122  0.1711  0.3154  0.6615
11992TIP3    H157467   0.591   1.217   1.132  0.0088  0.2937 -0.7010
11992TIP3    H257468   0.723   1.290   1.148 -0.3723  0.9365 -0.5029
11993TIP3   OH257469   5.878   6.363   3.757  0.3652 -0.2542 -0.0917
11993TIP3    H157470   5.795   6.353   3.803  0.7142 -0.1516  0.5708
11993TIP3    H257471   5.869   6.308   3.679 -1.2863  1.6984 -1.3948
11994TIP3   OH257472   5.052   5.726   1.972  0.3258 -0.0301 -0.4070
11994TIP3    H157473   5.026   5.764   1.888  1.1018  0.5441 -0.3889
11994TIP3    H257474   5.078   5.636   1.950 -0.8753 -0.3653 -0.5463
11995TIP3   OH257475   2.368   1.773   1.493 -0.4794 -0.4780 -0.0824
11995TIP3    H157476   2.395   1.765   1.584 -1.5360  0.5691  0.3542
11995TIP3    H257477   2.357   1.683   1.462 -0.6872 -0.8370  1.0055
11996TIP3   OH257478   5.240   2.547   2.142  0.4569  0.1181 -0.4500
11996TIP3    H157479   5.155   2.506   2.159  1.1068  0.0319  3.4338
11996TIP3    H257480   5.300   2.473   2.133  0.5703  0.1864 -0.2570
11997TIP3   OH257481   6.206   4.567   2.101  0.2978  0.1932 -0.5775
11997TIP3    H157482   6.276   4.580   2.038 -0.1761  1.8604 -0.8195
11997TIP3    H257483   6.131   4.538   2.049 -0.1734  1.8355 -0.8753
11998TIP3   OH257484   4.881   3.053   5.528  0.0482  0.4241 -0.2687
11998TIP3    H157485   4.953   3.052   5.591  0.0692  2.3168 -0.2178
11998TIP3    H257486   4.816   3.111   5.567 -0.7454  0.1504 -1.1398
11999TIP3   OH257487   2.386   0.574   1.098 -0.2198 -0.5250 -0.2619
11999TIP3    H157488   2.320   0.571   1.168  0.0976 -1.5116  0.0131
11999TIP3    H257489   2.359   0.648   1.043 -1.6275 -0.9785 -0.2360
12000TIP3   OH257490   1.242   1.194   2.696 -0.3834  0.2287 -0.1570
12000TIP3    H157491   1.148   1.210   2.694 -0.1894  1.4181 -0.6899
12000TIP3    H257492   1.251   1.101   2.677 -1.4248  0.1995 -0.5580
12001TIP3   OH257493   5.056   1.074   2.837  0.1120 -0.0983 -0.1414
12001TIP3    H157494   5.109   1.152   2.844  1.2487 -0.9256  0.8038
12001TIP3    H257495   4.984   1.099   2.778  1.0755  1.2833 -0.7777
12002TIP3   OH257496   0.348   4.362  13.049  0.3791  0.2513 -0.2631
12002TIP3    H157497   0.333   4.450  13.085 -0.1303  0.4498 -0.9420
12002TIP3    H257498   0.434   4.337  13.082  1.0759  1.5172 -1.0574
12003TIP3   OH257499   4.621   6.603  10.424  0.0316 -0.4171  0.5032
12003TIP3    H157500   4.623   6.680  10.481  0.0925  1.3938 -1.8102
12003TIP3    H257501   4.616   6.639  10.335  1.5272 -3.0488 -0.7640
12004TIP3   OH257502   2.661   1.591  10.354  0.5847  0.4258  0.2353
12004TIP3    H157503   2.751   1.618  10.372  0.8821  1.6346 -2.6278
12004TIP3    H257504   2.617   1.671  10.326 -0.3298 -0.8125 -2.0845
12005TIP3   OH257505   4.412   5.257   4.285 -0.2578  0.5210 -0.2486
12005TIP3    H157506   4.504   5.283   4.293  0.3292 -1.3838 -0.3521
12005TIP3    H257507   4.375   5.273   4.372  0.1485  1.3217 -0.2108
12006TIP3   OH257508   4.071   2.682   2.439  0.1526 -0.1900  0.0500
12006TIP3    H157509   3.988   2.636   2.426 -1.1084  1.6940  0.8649
12006TIP3    H257510   4.109   2.643   2.517  1.2341 -2.6035 -1.5565
12007TIP3   OH257511   3.971   4.298  15.828 -0.3916 -0.4641  0.2721
12007TIP3    H157512   3.986   4.344  15.910 -0.3982 -1.4135  0.8200
12007TIP3    H257513   3.960   4.368  15.763  0.0376  0.2942  0.9930
12008TIP3   OH257514   6.230   0.518  15.912 -0.3292  0.2287  0.6749
12008TIP3    H157515   6.144   0.477  15.916  0.2873 -1.0987  0.7017
12008TIP3    H257516   6.237   0.567  15.994 -2.7692  4.0566 -1.0886
12009TIP3   OH257517   6.120   1.225  11.121 -0.1261  0.3242  0.7896
12009TIP3    H157518   6.046   1.165  11.108  0.1141  0.0856  0.4967
12009TIP3    H257519   6.124   1.276  11.041 -0.5073  0.9396  1.1543
12010TIP3   OH257520   4.314   0.554   1.092  0.1881 -0.1239 -0.0760
12010TIP3    H157521   4.244   0.494   1.067 -1.2960  0.4682  2.2879
12010TIP3    H257522   4.296   0.574   1.184  2.4297  1.5183  0.0838
12011TIP3   OH257523   3.784   3.382   5.069  0.1293  0.3410  0.0498
12011TIP3    H157524   3.811   3.294   5.045  2.7913  0.8080  0.9862
12011TIP3    H257525   3.719   3.370   5.139 -0.7372 -0.8553 -0.9350
12012TIP3   OH257526   1.198   4.674  16.286  0.3711  0.2666 -0.3352
12012TIP3    H157527   1.234   4.586  16.281  0.2677  0.1442  0.8308
12012TIP3    H257528   1.160   4.680  16.374  0.3745  1.4680 -0.3974
12013TIP3   OH257529   2.006   2.001  15.778  0.4760  0.1405 -0.2165
12013TIP3    H157530   2.022   2.095  15.765  0.0228  0.0672 -1.4540
12013TIP3    H257531   1.969   1.972  15.695 -2.2597 -0.5169  1.1124
12014TIP3   OH257532   5.304   0.508  11.603  0.2039  0.4278 -0.6554
12014TIP3    H157533   5.327   0.575  11.667 -1.0129  0.4601 -0.2287
12014TIP3    H257534   5.262   0.439  11.655 -2.3815  1.1995 -1.5625
12015TIP3   OH257535   5.850   5.025  16.183 -0.6060  0.0322 -0.3912
12015TIP3    H157536   5.865   5.034  16.277 -0.7191 -0.3588 -0.3331
12015TIP3    H257537   5.921   5.075  16.143  0.9822 -1.8913 -0.1237
12016TIP3   OH257538   5.426   0.415   5.244 -0.4680  0.2994  0.3332
12016TIP3    H157539   5.340   0.445   5.217  0.2372  2.0107 -0.1175
12016TIP3    H257540   5.475   0.495   5.265  1.0592 -0.6135  0.4443
12017TIP3   OH257541   6.453   3.354   4.318 -0.1531 -0.7403 -0.4806
12017TIP3    H157542   6.390   3.314   4.378 -0.6737  2.1890  1.1301
12017TIP3    H257543   6.419   3.333   4.231 -3.2913  0.4507  0.3028
12018TIP3   OH257544   3.058   4.004   1.419  0.4007  0.3414  0.5601
12018TIP3    H157545   3.052   3.927   1.475 -1.8580 -0.4324 -0.6508
12018TIP3    H257546   2.970   4.016   1.384  0.8488  3.0532  0.1093
12019TIP3   OH257547   6.056   6.627  17.113 -0.1559  0.1112  0.5513
12019TIP3    H157548   6.074   6.685  17.039 -0.8562 -0.3152  0.0298
12019TIP3    H257549   6.019   6.548  17.073  1.0506 -0.8249  1.2174
12020TIP3   OH257550   0.499   3.035   1.809  0.4552 -0.4092 -0.5287
12020TIP3    H157551   0.467   3.046   1.720  1.7328  0.9266 -0.8795
12020TIP3    H257552   0.513   3.125   1.840 -1.4783 -0.7633  1.6302
12021TIP3   OH257553   4.202   1.609   6.046  0.2077  0.3965  0.6224
12021TIP3    H157554   4.180   1.517   6.035  0.9500  0.3165 -0.3096
12021TIP3    H257555   4.244   1.614   6.131  0.4962 -0.1880  0.5166
12022TIP3   OH257556   5.689   2.250   0.056  0.6138  0.0792  0.1675
12022TIP3    H157557   5.691   2.273  -0.037  0.2788 -0.0699  0.1223
12022TIP3    H257558   5.780   2.226   0.076  0.7882  0.5965  0.0071
12023TIP3   OH257559   2.635   0.900  11.759 -0.3543 -0.2549 -0.2984
12023TIP3    H157560   2.606   0.820  11.716  0.4633 -0.4343 -0.5174
12023TIP3    H257561   2.670   0.871  11.844 -0.2052 -0.1149 -0.3107
12024TIP3   OH257562   0.950   2.651  14.791  0.0080 -0.4504 -0.4350
12024TIP3    H157563   0.914   2.657  14.703  0.3606 -1.8319 -0.6900
12024TIP3    H257564   1.027   2.707  14.789  0.0125 -0.4735 -1.0026
12025TIP3   OH257565   4.703   1.509   1.025 -0.2950  0.8153 -0.4482
12025TIP3    H157566   4.629   1.570   1.021  0.7352  2.0694 -1.1353
12025TIP3    H257567   4.778   1.564   1.045  0.2566 -0.6386  1.9234
12026TIP3   OH257568   3.732   2.832   0.185 -0.4225 -0.4654 -0.4858
12026TIP3    H157569   3.772   2.751   0.217 -1.6916 -1.4529 -1.2672
12026TIP3    H257570   3.706   2.812   0.095 -1.6542  0.4737 -0.3676
12027TIP3   OH257571   4.865   1.272  14.112 -0.1752  0.1960  0.0158
12027TIP3    H157572   4.883   1.221  14.190 -0.8707 -1.3368 -0.7816
12027TIP3    H257573   4.780   1.239  14.081 -0.4398  1.5441 -0.7690
12028TIP3   OH257574   4.410   5.532   4.123 -0.0016  0.4950 -0.8205
12028TIP3    H157575   4.366   5.544   4.207 -0.6351 -1.3609 -0.8426
12028TIP3    H257576   4.350   5.570   4.059  0.1333  1.2367 -0.5147
12029TIP3   OH257577   3.371   4.260  11.646 -0.7613  0.2730 -0.5077
12029TIP3    H157578   3.365   4.341  11.594 -0.8778  0.9401  0.5257
12029TIP3    H257579   3.465   4.242  11.650 -0.5538  1.4457  0.8531
12030TIP3   OH257580   2.293   1.261   5.077 -0.0310  0.3953 -0.0839
12030TIP3    H157581   2.310   1.354   5.091 -0.8108  0.4298  0.7205
12030TIP3    H257582   2.210   1.244   5.122  0.2543 -0.7502  0.0563
12031TIP3   OH257583   0.624   4.231  16.479 -0.2671  0.1210 -0.2835
12031TIP3    H157584   0.660   4.146  16.453 -0.8337  0.0420 -0.8214
12031TIP3    H257585   0.699   4.291  16.476  0.2196 -0.4298  0.4695
12032TIP3   OH257586   1.922   4.466   4.054 -0.3408 -0.4116  0.0921
12032TIP3    H157587   1.858   4.530   4.021  0.8035  1.1284  0.7135
12032TIP3    H257588   1.997   4.474   3.995  0.3668 -0.1238  1.0054
12033TIP3   OH257589   6.271   1.137   5.253 -0.1948 -0.0713  0.3741
12033TIP3    H157590   6.203   1.202   5.268 -0.9498  0.5413 -4.2969
12033TIP3    H257591   6.345   1.187   5.219  0.1013 -1.3295 -0.9371
12034TIP3   OH257592   0.708   3.714  15.916 -0.3752 -0.4984 -0.2782
12034TIP3    H157593   0.618   3.694  15.889 -1.0296 -0.8164  1.9757
12034TIP3    H257594   0.757   3.634  15.898 -1.6145 -2.1101  2.7703
12035TIP3   OH257595   1.585   0.596   1.189 -0.1057 -0.3106  0.8844
12035TIP3    H157596   1.569   0.617   1.097  0.3115 -0.3044  0.8069
12035TIP3    H257597   1.513   0.538   1.214 -0.2401 -0.2823  0.5636
12036TIP3   OH257598   0.428   3.478   3.882 -0.5285  0.3169 -0.6282
12036TIP3    H157599   0.442   3.571   3.899 -0.9504  0.0939  1.2169
12036TIP3    H257600   0.515   3.439   3.890 -0.3864  0.5063 -1.1810
12037TIP3   OH257601   3.319   2.737  14.595 -0.1553  0.2002  0.2105
12037TIP3    H157602   3.312   2.825  14.558 -1.6785  0.3287  0.7371
12037TIP3    H257603   3.314   2.679  14.519  0.5687  0.5378 -0.1114
12038TIP3   OH257604   2.569   3.200  15.027  0.0653 -0.1431  0.0640
12038TIP3    H157605   2.508   3.125  15.032 -0.5894  0.3502 -0.3503
12038TIP3    H257606   2.546   3.244  14.945  1.0497  0.0066 -0.1373
12039TIP3   OH257607   3.585   0.413   0.749  0.5144  0.4377 -0.0415
12039TIP3    H157608   3.535   0.425   0.829  0.1261  2.0727 -0.4902
12039TIP3    H257609   3.526   0.366   0.690 -1.0686  3.3085 -0.9636
12040TIP3   OH257610   1.222   4.907   4.369  0.4998 -0.5029  0.3198
12040TIP3    H157611   1.129   4.905   4.347  0.8726 -0.0100 -1.4423
12040TIP3    H257612   1.250   4.816   4.368  0.2496 -0.5737 -0.1168
12041TIP3   OH257613   3.948   6.196   1.061 -0.3921  1.0594 -0.6805
12041TIP3    H157614   3.889   6.156   1.125  1.6946 -0.9922  0.0937
12041TIP3    H257615   3.945   6.290   1.080 -1.2738  0.6899  1.1702
12042TIP3   OH257616   6.288   3.114  14.766 -0.0885  0.1078 -0.2790
12042TIP3    H157617   6.369   3.107  14.717  0.5156 -2.0495  0.8590
12042TIP3    H257618   6.227   3.055  14.721  0.1234 -1.0056  0.8043
12043TIP3   OH257619   4.994   1.456   3.022  0.2120 -0.4356  0.3240
12043TIP3    H157620   5.006   1.438   2.929  0.1363  0.7169  0.0741
12043TIP3    H257621   5.015   1.549   3.031 -0.8195 -0.2774  1.2761
12044TIP3   OH257622   4.841   0.102  16.336  0.0196  0.2667 -0.0489
12044TIP3    H157623   4.860   0.104  16.430 -0.0464  0.2027 -0.0336
12044TIP3    H257624   4.746   0.105  16.331 -0.0002 -0.4351 -0.0964
12045TIP3   OH257625   3.987   6.261   0.095  0.3852  0.4017  0.0928
12045TIP3    H157626   3.906   6.221   0.064  0.3035 -2.1625  3.1954
12045TIP3    H257627   3.985   6.251   0.190  3.4906  1.9926  0.4617
12046TIP3   OH257628   3.652   1.049   5.256 -0.3492  0.2930 -0.4040
12046TIP3    H157629   3.646   1.006   5.341  0.3141 -0.8722 -0.9187
12046TIP3    H257630   3.568   1.094   5.246 -0.7829 -0.2844  0.4799
12047TIP3   OH257631   5.902   5.954   3.324  0.4002 -0.2277 -0.2169
12047TIP3    H157632   5.836   6.006   3.370 -1.4872 -2.9242  0.3626
12047TIP3    H257633   5.953   6.018   3.275 -0.2661  2.3645  2.2182
12048TIP3   OH257634   3.065   3.422  15.089  0.0522  0.2176 -0.1742
12048TIP3    H157635   2.987   3.477  15.082 -0.2200 -0.0227  0.8148
12048TIP3    H257636   3.131   3.478  15.128  0.1941  0.2394 -0.4414
12049TIP3   OH257637   2.512   1.754   4.428 -0.1504  0.6456  0.1955
12049TIP3    H157638   2.545   1.738   4.517  0.5655 -0.8693 -0.2995
12049TIP3    H257639   2.587   1.737   4.372 -1.6844 -3.4132 -1.0180
12050TIP3   OH257640   4.775   6.261  13.026 -0.1343 -0.0218  0.3240
12050TIP3    H157641   4.783   6.168  13.047 -2.0522 -0.0213  1.3044
12050TIP3    H257642   4.780   6.305  13.111 -1.3133  0.5760  0.1017
12051TIP3   OH257643   1.789   1.896  11.965 -0.3138 -0.0964  0.1719
12051TIP3    H157644   1.883   1.887  11.950 -0.5377 -0.4767 -1.1191
12051TIP3    H257645   1.750   1.878  11.879 -1.5614  0.0298  0.7067
12052TIP3   OH257646   0.964   0.379  13.490  0.9766  0.6139 -0.0072
12052TIP3    H157647   0.963   0.459  13.543  1.3753  0.1118  0.7814
12052TIP3    H257648   1.041   0.388  13.434  0.3878  1.2825 -0.7389
12053TIP3   OH257649   5.327   4.495   0.142  0.1244 -0.4314 -0.4332
12053TIP3    H157650   5.252   4.469   0.089  1.2374 -1.5939 -1.4864
12053TIP3    H257651   5.381   4.548   0.084  1.5454 -2.0250 -0.6526
12054TIP3   OH257652   4.484   0.198   5.609 -0.1647  0.6520  0.2538
12054TIP3    H157653   4.541   0.122   5.607  0.4146  1.0989 -0.8402
12054TIP3    H257654   4.458   0.212   5.518 -0.3101  1.7257  0.4417
12055TIP3   OH257655   5.334   1.942  13.633  0.3895 -0.0444 -0.4674
12055TIP3    H157656   5.244   1.974  13.635  0.6135  0.6666 -1.1382
12055TIP3    H257657   5.368   1.960  13.721 -0.3486 -1.0399  0.0390
12056TIP3   OH257658   3.299   3.402   4.815  0.4218  0.2142  0.1127
12056TIP3    H157659   3.286   3.497   4.823  1.3628  0.8415 -3.5688
12056TIP3    H257660   3.237   3.375   4.747  1.6523 -1.3450 -0.4629
12057TIP3   OH257661   1.447   5.019   4.539 -0.3280 -0.1877  0.4992
12057TIP3    H157662   1.382   4.996   4.472  1.1939 -0.4716 -0.9396
12057TIP3    H257663   1.476   4.935   4.575 -0.0810 -0.1142  0.4731
12058TIP3   OH257664   4.811   4.180  12.737  0.3386  0.0516  0.1202
12058TIP3    H157665   4.760   4.244  12.689  0.1629 -1.9783 -2.6078
12058TIP3    H257666   4.802   4.206  12.829  0.5473  4.0316 -0.8039
12059TIP3   OH257667   0.485   0.766   0.511 -0.0700  0.6028 -0.0523
12059TIP3    H157668   0.467   0.785   0.419 -1.1903  2.7435  0.5386
12059TIP3    H257669   0.416   0.813   0.559  0.0452 -1.0558  1.8625
12060TIP3   OH257670   1.118   6.807   3.700 -0.0618 -0.5209 -0.1688
12060TIP3    H157671   1.211   6.785   3.700  0.1851  0.4656 -0.5569
12060TIP3    H257672   1.110   6.878   3.763 -0.6250 -0.8510  0.1420
12061TIP3   OH257673   6.199   2.966   1.779 -0.0084  0.4684 -0.3616
12061TIP3    H157674   6.232   2.914   1.852  0.0044  0.6461 -0.2417
12061TIP3    H257675   6.172   2.901   1.714 -0.0399  0.3097 -0.1915
12062TIP3   OH257676   1.755   3.735  13.741 -0.6822  0.3284  0.0407
12062TIP3    H157677   1.726   3.668  13.803  0.8836 -0.4991 -0.0418
12062TIP3    H257678   1.692   3.806  13.750 -1.5633 -0.5589  1.1974
12063TIP3   OH257679   2.407   0.521   4.604  0.3206  0.4904 -0.0337
12063TIP3    H157680   2.349   0.507   4.529 -0.0485  2.3770 -0.1410
12063TIP3    H257681   2.361   0.583   4.659  1.2159  0.2048  1.0729
12064TIP3   OH257682   5.870   6.544   3.357 -0.1174  0.1418  0.1209
12064TIP3    H157683   5.953   6.502   3.379 -1.1278 -1.2554  1.5851
12064TIP3    H257684   5.893   6.635   3.338  1.8467 -0.4355 -0.5046
12065TIP3   OH257685   1.344   3.559   1.033  0.2126 -0.1647 -0.3118
12065TIP3    H157686   1.422   3.577   1.085 -0.3468 -0.1858  0.5612
12065TIP3    H257687   1.295   3.495   1.085 -0.7324  0.4067 -0.4836
12066TIP3   OH257688   0.484   1.185   3.876  0.1657  0.5677 -0.1470
12066TIP3    H157689   0.555   1.192   3.812 -1.2308 -1.7631 -2.1460
12066TIP3    H257690   0.406   1.169   3.824 -1.2613 -0.3872  2.1041
12067TIP3   OH257691   0.511   2.648   2.068  0.1187 -0.0366  0.3545
12067TIP3    H157692   0.536   2.606   2.150  0.8582  1.5795  1.0026
12067TIP3    H257693   0.423   2.682   2.085  0.5353  0.8894  0.7503
12068TIP3   OH257694   3.132   2.459   3.570  0.2318  0.0898  0.2066
12068TIP3    H157695   3.215   2.496   3.600  0.8713 -0.4880 -0.8088
12068TIP3    H257696   3.151   2.368   3.551 -0.7893 -0.2099  0.5322
12069TIP3   OH257697   4.207   0.381  13.489 -0.2485 -0.0339 -0.0864
12069TIP3    H157698   4.212   0.433  13.409  0.5920  0.2759  0.1563
12069TIP3    H257699   4.131   0.417  13.536 -1.2616 -0.7684 -1.0971
12070TIP3   OH257700   3.005   5.178   1.371 -0.4189  0.3876 -0.7242
12070TIP3    H157701   3.076   5.233   1.340  1.2236 -1.2235  0.0189
12070TIP3    H257702   2.980   5.126   1.294  0.1747 -0.0290 -0.6398
12071TIP3   OH257703   2.280   5.811   5.220  0.8605  0.0696 -0.5519
12071TIP3    H157704   2.227   5.857   5.285 -1.9976 -0.4302 -2.3321
12071TIP3    H257705   2.321   5.739   5.269 -1.6993 -0.6975  0.6547
12072TIP3   OH257706   6.412   1.791   4.764 -0.1166 -0.0740 -0.4503
12072TIP3    H157707   6.410   1.877   4.807  0.9296 -0.5540  0.6075
12072TIP3    H257708   6.389   1.810   4.673 -0.7238  1.2110 -0.0545
12073TIP3   OH257709   3.266   5.809   3.777 -0.5827 -0.0606 -0.2756
12073TIP3    H157710   3.351   5.765   3.771 -1.2969 -1.4427 -0.6450
12073TIP3    H257711   3.223   5.789   3.694 -0.6694  1.9897 -0.7840
12074TIP3   OH257712   1.142   5.317   4.720  1.2063 -0.4008  0.3190
12074TIP3    H157713   1.146   5.376   4.795  1.5536 -0.1393  0.0976
12074TIP3    H257714   1.112   5.373   4.647  1.4378 -0.5207  0.1321
12075TIP3   OH257715   3.075   0.015   5.296 -0.4835  0.2841 -0.2912
12075TIP3    H157716   2.994  -0.031   5.318 -1.2571  1.8490  0.3390
12075TIP3    H257717   3.072   0.024   5.201  0.4871 -2.2950 -0.6370
12076TIP3   OH257718   2.165   4.746   1.165  0.2563  0.2486 -0.2973
12076TIP3    H157719   2.163   4.815   1.098  1.7148  0.6768  0.0562
12076TIP3    H257720   2.089   4.763   1.220 -0.8253  0.0386 -1.6888
12077TIP3   OH257721   6.630   6.240  11.503 -0.3583 -0.7545  0.2878
12077TIP3    H157722   6.635   6.177  11.432  1.4213  0.1614 -0.4708
12077TIP3    H257723   6.701   6.215  11.563 -0.6683 -0.4383  0.8001
12078TIP3   OH257724   2.749   0.486   3.451 -0.0390  0.5827  0.0297
12078TIP3    H157725   2.666   0.505   3.406 -0.0128  0.3169 -0.1327
12078TIP3    H257726   2.752   0.550   3.522 -0.2135  0.8259 -0.1789
12079TIP3   OH257727   0.441   2.392  13.414  0.7477 -0.2952 -0.0133
12079TIP3    H157728   0.505   2.427  13.476 -0.0233  0.0606  0.5920
12079TIP3    H257729   0.356   2.415  13.451  0.2316 -1.8352 -0.1604
12080TIP3   OH257730   2.823   6.786   1.728  0.3100 -0.0682 -0.0994
12080TIP3    H157731   2.830   6.767   1.822 -1.0760 -0.0114  0.0356
12080TIP3    H257732   2.732   6.766   1.706  0.9971 -1.5791 -1.7993
12081TIP3   OH257733   3.562   3.746  12.117  0.6871 -0.0473 -0.5024
12081TIP3    H157734   3.528   3.702  12.195  2.0159 -1.8044 -0.8469
12081TIP3    H257735   3.550   3.839  12.135 -3.2908 -0.4416 -0.1778
12082TIP3   OH257736   2.095   6.732   3.080  1.1427  0.0346 -0.3417
12082TIP3    H157737   2.111   6.812   3.131 -0.0060 -0.1166  0.2878
12082TIP3    H257738   2.084   6.764   2.990  0.0759  0.6812 -0.0047
12083TIP3   OH257739   0.216   6.541   0.159  0.1961 -0.7570  0.0754
12083TIP3    H157740   0.165   6.469   0.123 -1.6656  0.5766 -0.1468
12083TIP3    H257741   0.261   6.580   0.083  0.7407 -1.3152  0.1070
12084TIP3   OH257742   6.688   4.787  10.536 -0.1436 -0.6097  0.0456
12084TIP3    H157743   6.751   4.836  10.482 -0.5868 -1.6912 -1.5172
12084TIP3    H257744   6.736   4.768  10.617  0.0300  2.3745  0.7472
12085TIP3   OH257745   0.800   1.575  12.040  0.3978 -0.2062 -0.2247
12085TIP3    H157746   0.827   1.651  11.988 -0.0479  0.6756  0.7794
12085TIP3    H257747   0.869   1.565  12.105 -0.5065  0.6294  0.9109
12086TIP3   OH257748   0.212   3.408   3.661  0.4013 -0.0690 -0.4133
12086TIP3    H157749   0.303   3.415   3.633  0.5362 -1.0179 -0.2638
12086TIP3    H257750   0.217   3.369   3.749 -0.0680  1.5844  0.3834
12087TIP3   OH257751   3.784   0.539   2.417 -0.1537 -0.3772 -0.4261
12087TIP3    H157752   3.742   0.609   2.367 -1.7988 -0.6014  0.5697
12087TIP3    H257753   3.765   0.560   2.509  0.5289 -1.3692 -0.0405
12088TIP3   OH257754   5.809   2.043   1.360  0.2258 -0.0780 -0.1905
12088TIP3    H157755   5.792   1.949   1.357  1.0791 -0.3465  1.9263
12088TIP3    H257756   5.900   2.053   1.333  0.3216  0.0705  0.1791
12089TIP3   OH257757   5.153   6.669  11.723  0.6165 -0.6036 -0.7170
12089TIP3    H157758   5.113   6.655  11.637 -0.5800  0.8828 -0.4632
12089TIP3    H257759   5.078   6.684  11.781  1.4636 -0.2433  0.3059
12090TIP3   OH257760   0.493   5.978  10.731  0.5774 -0.4486 -0.3848
12090TIP3    H157761   0.539   6.061  10.742 -1.2296  0.9189 -2.4170
12090TIP3    H257762   0.544   5.916  10.783  1.8935  1.9287  1.3864
12091TIP3   OH257763   3.257   5.887   6.162 -0.0095  0.5344  0.3038
12091TIP3    H157764   3.244   5.792   6.151 -2.0091  0.8488 -0.4110
12091TIP3    H257765   3.238   5.903   6.254  2.3158  0.0176  0.9569
12092TIP3   OH257766   1.478   1.768  16.963  0.2220 -0.2786 -0.1000
12092TIP3    H157767   1.384   1.777  16.979  0.2914 -0.6841  0.5571
12092TIP3    H257768   1.483   1.709  16.888 -0.0461 -0.2953 -0.1084
12093TIP3   OH257769   5.058   4.424  16.326  0.3421 -0.1325 -0.9787
12093TIP3    H157770   5.085   4.332  16.324 -1.9105 -0.9062  0.3290
12093TIP3    H257771   4.990   4.427  16.394 -0.9069  2.1423 -2.2303
12094TIP3   OH257772   0.578   2.649  14.730 -0.0647  0.1632  0.2062
12094TIP3    H157773   0.629   2.625  14.807  1.2042 -1.8974 -1.1591
12094TIP3    H257774   0.643   2.685  14.669 -0.5224 -0.8871 -0.9254
12095TIP3   OH257775   0.444   3.637   0.487 -0.2928  0.3755  0.7606
12095TIP3    H157776   0.519   3.686   0.454  1.2377 -1.9578  0.5100
12095TIP3    H257777   0.425   3.573   0.419 -1.2503 -0.3335  1.6494
12096TIP3   OH257778   5.871   5.241   1.341  0.4092 -0.8612  0.6658
12096TIP3    H157779   5.944   5.268   1.286  1.4056  0.3829  2.4762
12096TIP3    H257780   5.843   5.157   1.305 -0.2047  0.6784 -2.7783
12097TIP3   OH257781   0.090   1.451  11.034 -0.1765  0.2519 -0.0833
12097TIP3    H157782   0.051   1.370  11.001 -0.8734  0.4642  0.2034
12097TIP3    H257783   0.073   1.515  10.965  1.6489 -0.1573 -0.9762
12098TIP3   OH257784   0.361   4.174   2.275 -0.3716  0.1896 -0.0173
12098TIP3    H157785   0.301   4.112   2.317  1.2075 -1.3399  0.1229
12098TIP3    H257786   0.446   4.155   2.315  0.4205  1.5029 -1.0091
12099TIP3   OH257787   4.905   5.742   0.552 -0.1238  0.0538  0.1823
12099TIP3    H157788   4.944   5.826   0.527  0.4119 -0.1588  0.3018
12099TIP3    H257789   4.908   5.743   0.648  0.0564 -0.1839  0.1788
12100TIP3   OH257790   6.593   2.461  15.346 -0.8584  0.3246  0.1765
12100TIP3    H157791   6.632   2.534  15.394 -0.1257  0.1299 -0.0978
12100TIP3    H257792   6.630   2.383  15.388 -0.6252  0.1450 -0.3534
12101TIP3   OH257793   1.003   5.415  15.762 -0.2634  0.2792 -0.2294
12101TIP3    H157794   0.946   5.344  15.730  1.5748 -0.7060 -1.5377
12101TIP3    H257795   0.984   5.420  15.856 -0.6223 -1.8036 -0.1336
12102TIP3   OH257796   1.099   5.968  14.561 -0.1559 -0.5169  0.4666
12102TIP3    H157797   1.115   5.984  14.468  1.8628 -1.6831  0.5513
12102TIP3    H257798   1.106   6.055  14.601 -0.9704 -0.0124 -0.4342
12103TIP3   OH257799   2.772   4.162  16.655  0.6268  0.1563  0.2894
12103TIP3    H157800   2.772   4.143  16.561  0.7168  0.3603  0.2481
12103TIP3    H257801   2.787   4.078  16.696  0.7438  0.0919  0.1152
12104TIP3   OH257802   5.999   0.235   6.180  0.0554 -0.0549 -0.4699
12104TIP3    H157803   6.059   0.301   6.146  0.6094 -0.2060  0.2066
12104TIP3    H257804   6.048   0.189   6.247 -1.1915  0.5977  0.9591
12105TIP3   OH257805   3.036   1.815   3.747  0.1069 -0.4285 -0.2780
12105TIP3    H157806   3.068   1.726   3.735 -1.4903 -1.4067  2.0039
12105TIP3    H257807   3.109   1.861   3.789  0.3457 -1.2001  0.1883
12106TIP3   OH257808   0.273   4.946  16.890 -0.3332  0.4814 -0.0506
12106TIP3    H157809   0.224   4.941  16.972 -0.0014  2.3883  0.3182
12106TIP3    H257810   0.206   4.940  16.822 -0.7425  0.0880  0.3785
12107TIP3   OH257811   3.867   2.240  12.255  0.0763  0.3719  0.2464
12107TIP3    H157812   3.798   2.282  12.307 -0.5188 -4.1704  3.7495
12107TIP3    H257813   3.821   2.205  12.178 -0.0056  2.9273 -0.9974
12108TIP3   OH257814   6.717   0.808  13.841  0.6543  0.0232  0.3415
12108TIP3    H157815   6.717   0.783  13.933  2.1110 -1.6360 -0.0700
12108TIP3    H257816   6.628   0.789  13.811  0.5156 -0.5905  1.1200
12109TIP3   OH257817   1.156   2.302   4.247 -0.5754 -0.5042  0.7483
12109TIP3    H157818   1.068   2.275   4.275 -1.1332  1.4519  1.0562
12109TIP3    H257819   1.197   2.337   4.327 -0.6983  1.4226  0.0309
12110TIP3   OH257820   5.195   5.952   2.618 -0.6729 -0.2666  0.3502
12110TIP3    H157821   5.156   5.865   2.619 -1.8682  0.2421  2.0815
12110TIP3    H257822   5.197   5.979   2.710  1.2797  0.8543  0.0436
12111TIP3   OH257823   2.255   6.479   3.451  0.1449  0.5502  0.3447
12111TIP3    H157824   2.292   6.563   3.423 -0.3995  0.7228  0.1332
12111TIP3    H257825   2.186   6.461   3.388  0.3374 -0.1237  0.3194
12112TIP3   OH257826   5.737   3.821   3.296 -0.0850  0.2849  0.3941
12112TIP3    H157827   5.732   3.903   3.246 -0.0255  0.0295 -0.0357
12112TIP3    H257828   5.830   3.800   3.299 -0.1530 -0.1000 -0.0501
12113TIP3   OH257829   3.883   6.664   2.548  0.8122  0.0707 -0.1105
12113TIP3    H157830   3.796   6.670   2.588 -0.1460  0.1432 -2.0680
12113TIP3    H257831   3.940   6.711   2.608 -0.6860  0.8361  0.7837
12114TIP3   OH257832   4.257   6.723  11.793 -0.0246 -0.0093  0.4161
12114TIP3    H157833   4.330   6.676  11.752 -0.5238 -0.8548  0.4690
12114TIP3    H257834   4.187   6.657  11.799 -1.5838  1.3146 -1.7009
12115TIP3   OH257835   0.561   5.608  16.195  0.3056 -0.3620 -0.2439
12115TIP3    H157836   0.484   5.620  16.139  0.1800 -0.0849 -0.0203
12115TIP3    H257837   0.619   5.681  16.172  1.1934 -1.4471 -1.5127
12116TIP3   OH257838   6.277   2.122  11.117  0.0521  0.1685  0.6527
12116TIP3    H157839   6.323   2.196  11.077 -0.0712 -0.2401 -0.2974
12116TIP3    H257840   6.250   2.069  11.042 -1.9772  0.3921  1.1556
12117TIP3   OH257841   4.541   2.385  11.117  0.3542 -0.1302  0.0882
12117TIP3    H157842   4.459   2.342  11.091 -1.6498  0.1501  4.9631
12117TIP3    H257843   4.526   2.478  11.098  0.0607 -0.2203 -0.1321
12118TIP3   OH257844   4.173   1.019  11.159  0.2152  0.0350 -0.4225
12118TIP3    H157845   4.174   0.965  11.237 -1.8087 -0.8784 -0.9651
12118TIP3    H257846   4.140   1.104  11.188 -1.9614 -0.7374 -0.4665
12119TIP3   OH257847   4.471   5.382   0.170 -0.0333  0.1491  0.2159
12119TIP3    H157848   4.416   5.434   0.228 -1.1104 -1.5914  0.8494
12119TIP3    H257849   4.556   5.378   0.214 -0.1288  0.8064  0.4698
12120TIP3   OH257850   6.271   6.666  16.458  0.1982 -0.4652  0.3798
12120TIP3    H157851   6.238   6.610  16.388  1.5123 -0.5388 -0.2081
12120TIP3    H257852   6.321   6.734  16.413  1.8971 -1.0711  1.2571
12121TIP3   OH257853   5.020   5.527  12.984  0.0267  0.5574  0.0678
12121TIP3    H157854   5.021   5.491  13.073 -2.1426  0.9492  0.3004
12121TIP3    H257855   5.101   5.495  12.944  0.2135 -1.0551  1.6244
12122TIP3   OH257856   3.566   6.676   1.206  0.5277  0.4305 -0.5296
12122TIP3    H157857   3.655   6.691   1.237 -0.2672  1.3473  1.4945
12122TIP3    H257858   3.510   6.701   1.280 -1.4377  0.3248 -1.8983
12123TIP3   OH257859   1.355   6.309  15.677 -0.5014  0.2006  0.7883
12123TIP3    H157860   1.289   6.280  15.614  0.1913 -1.2889  0.6943
12123TIP3    H257861   1.310   6.307  15.761 -0.8699  0.2351  0.5928
12124TIP3   OH257862   6.258   3.670  11.236 -0.0852 -0.3814 -0.2414
12124TIP3    H157863   6.260   3.656  11.331  0.1871 -0.7922 -0.3048
12124TIP3    H257864   6.343   3.708  11.216 -0.3591  0.2457 -0.2458
12125TIP3   OH257865   5.580   1.644   4.481  0.8615 -0.7159 -0.3650
12125TIP3    H157866   5.508   1.651   4.418  1.4517 -0.0646 -0.9856
12125TIP3    H257867   5.542   1.597   4.555 -0.1311 -0.6140 -0.7855
12126TIP3   OH257868   1.906   2.004  13.689 -0.1418 -0.3356  0.2141
12126TIP3    H157869   1.880   1.917  13.718 -0.7268  0.3058  1.7150
12126TIP3    H257870   1.828   2.059  13.704  0.4867  0.6165  0.1069
12127TIP3   OH257871   0.071   2.791   1.485  0.1973 -0.2941  0.3216
12127TIP3    H157872   0.074   2.696   1.490  2.1788 -0.5609 -2.9858
12127TIP3    H257873  -0.015   2.812   1.449 -0.6804 -0.6625  2.0877
12128TIP3   OH257874   0.207   6.091   3.292 -0.0747  0.0707 -0.2544
12128TIP3    H157875   0.162   6.171   3.318  0.5813  0.2938  0.2138
12128TIP3    H257876   0.298   6.118   3.277 -0.1103 -0.3440 -1.3071
12129TIP3   OH257877   0.207   1.426  13.897 -0.1124  0.2782  0.1847
12129TIP3    H157878   0.271   1.388  13.957 -1.6742 -0.5822  1.3713
12129TIP3    H257879   0.224   1.520  13.900  1.7698  0.0071 -0.3797
12130TIP3   OH257880   4.086   0.845   4.678 -0.4498  0.0757 -0.1958
12130TIP3    H157881   4.157   0.783   4.667 -1.3181 -1.4506  1.9598
12130TIP3    H257882   4.128   0.925   4.711  0.3855 -0.4375  0.0030
12131TIP3   OH257883   3.877   1.192   2.869  0.8329  0.1471 -0.1184
12131TIP3    H157884   3.945   1.255   2.844  1.2844  0.2670  1.3345
12131TIP3    H257885   3.877   1.193   2.964 -0.1892 -0.9675 -0.0830
12132TIP3   OH257886   3.716   0.996   1.765 -0.1918 -0.5987 -0.0550
12132TIP3    H157887   3.683   0.925   1.821  0.4439 -1.2755 -0.5287
12132TIP3    H257888   3.810   0.999   1.783 -0.2791  0.4359  0.2973
12133TIP3   OH257889   1.080   0.117  11.982  0.1605 -0.2581 -0.1703
12133TIP3    H157890   1.116   0.133  12.069 -0.7269  0.0823  0.1430
12133TIP3    H257891   1.102   0.025  11.965  1.0670 -0.0961  0.0503
12134TIP3   OH257892   3.388   0.133  16.335 -0.2456 -0.1270 -0.1123
12134TIP3    H157893   3.471   0.132  16.287  0.4925  1.3731  1.0339
12134TIP3    H257894   3.397   0.062  16.399  0.2668  0.1760  0.1614
12135TIP3   OH257895   3.733   4.514   0.057  0.0262  0.4186 -0.1723
12135TIP3    H157896   3.785   4.578   0.105  1.1165 -0.2925 -0.3712
12135TIP3    H257897   3.644   4.549   0.059  0.6679  2.1480 -0.6669
12136TIP3   OH257898   2.659   2.099  13.081  0.1519  0.6672 -0.3371
12136TIP3    H157899   2.621   2.039  13.017  1.0680  1.7247 -1.9655
12136TIP3    H257900   2.754   2.085  13.072  0.3652  2.1300 -0.5653
12137TIP3   OH257901   5.208   1.552   2.565 -0.4058 -0.2424 -0.2692
12137TIP3    H157902   5.277   1.509   2.514  0.6469  1.5487 -0.4159
12137TIP3    H257903   5.173   1.619   2.506  0.7612  1.8024  1.2378
12138TIP3   OH257904   6.200   1.406   5.834  0.4802 -0.1605  0.3339
12138TIP3    H157905   6.125   1.347   5.845 -0.5394  1.0816  0.2814
12138TIP3    H257906   6.224   1.399   5.742 -0.1617  0.1168  0.1435
12139TIP3   OH257907   6.038   0.048   6.391 -0.6440 -0.4585  0.5410
12139TIP3    H157908   6.071  -0.032   6.434 -0.4326 -2.4591 -3.0120
12139TIP3    H257909   6.111   0.110   6.398  0.1666 -1.4437  1.1749
12140TIP3   OH257910   5.300   6.028   5.642  0.2772  0.2414 -0.4432
12140TIP3    H157911   5.312   6.022   5.737  2.3790  0.2737 -0.6688
12140TIP3    H257912   5.369   6.087   5.613 -1.6353  1.9413 -1.7809
12141TIP3   OH257913   3.598   3.321   3.157 -0.3939 -0.4089  0.3671
12141TIP3    H157914   3.520   3.317   3.102  0.5970 -2.0706 -0.9900
12141TIP3    H257915   3.624   3.413   3.156 -0.8665 -0.2777 -1.2880
12142TIP3   OH257916   5.929   6.106  11.986  0.2249  0.0040 -0.7442
12142TIP3    H157917   5.960   6.176  12.044  2.0320 -0.6475 -0.8588
12142TIP3    H257918   5.840   6.087  12.017  0.2831  1.2693  0.2967
12143TIP3   OH257919   3.905   3.581  12.279  0.0952 -0.3147 -0.6654
12143TIP3    H157920   3.856   3.505  12.248 -0.0341  0.0268 -1.3008
12143TIP3    H257921   3.876   3.592  12.370  0.0349 -0.9554 -0.6034
12144TIP3   OH257922   4.494   1.873   0.855  0.4429  0.3877 -0.1641
12144TIP3    H157923   4.544   1.825   0.920 -0.0544 -0.1246 -0.1584
12144TIP3    H257924   4.414   1.822   0.843  0.5063  0.5018 -1.1369
12145TIP3   OH257925   6.764   0.199  11.781  0.0196  0.0818 -0.2347
12145TIP3    H157926   6.719   0.254  11.844 -1.1205 -0.7142 -0.3307
12145TIP3    H257927   6.786   0.119  11.829 -1.0750 -0.6291 -0.8837
12146TIP3   OH257928   0.439   1.716  11.914 -1.3125  0.2026  0.2660
12146TIP3    H157929   0.379   1.675  11.852  1.9916 -0.5069 -2.8114
12146TIP3    H257930   0.476   1.791  11.867 -0.3682  1.1419  2.3273
12147TIP3   OH257931   6.669   3.932  14.941  0.5142 -0.0019  0.4848
12147TIP3    H157932   6.671   3.941  15.036  0.7216  3.6860  0.2654
12147TIP3    H257933   6.762   3.935  14.915  0.3866  3.4144  0.0249
12148TIP3   OH257934   1.531   6.264  12.319  0.0047 -0.6755 -0.3900
12148TIP3    H157935   1.550   6.337  12.378 -0.8983  0.9027 -1.9309
12148TIP3    H257936   1.616   6.225  12.299  0.9654  1.8787 -1.8136
12149TIP3   OH257937   6.322   2.164  11.753 -0.3826  0.0787  0.4054
12149TIP3    H157938   6.324   2.128  11.841 -1.4299  3.4351  1.9552
12149TIP3    H257939   6.229   2.175  11.734 -0.1516 -0.0736 -0.8894
12150TIP3   OH257940   4.668   5.534  13.280  0.6655 -0.4909  0.5279
12150TIP3    H157941   4.689   5.445  13.310  1.1602 -0.0827  1.4431
12150TIP3    H257942   4.646   5.581  13.360  0.2309  0.1689  0.0261
12151TIP3   OH257943   4.914   4.681   3.914 -0.2561  0.0517  0.6767
12151TIP3    H157944   4.833   4.701   3.867  0.3055  0.9960  0.0707
12151TIP3    H257945   4.965   4.628   3.852 -0.4141 -0.5495  1.0606
12152TIP3   OH257946   6.652   0.056   4.959 -0.0124  0.0221 -0.1190
12152TIP3    H157947   6.744   0.031   4.970 -0.4104 -1.0026  1.1628
12152TIP3    H257948   6.633   0.039   4.867  0.8114 -0.7175 -0.1654
12153TIP3   OH257949   4.632   2.856  12.404  0.4394 -0.1682 -0.5461
12153TIP3    H157950   4.539   2.876  12.400  0.0725 -1.7844 -0.8262
12153TIP3    H257951   4.636   2.763  12.430  1.9739 -0.0087 -0.0823
12154TIP3   OH257952   0.991   1.673   3.996 -0.0961 -0.4422  0.1897
12154TIP3    H157953   0.954   1.756   3.965  1.2010  0.7191  1.5757
12154TIP3    H257954   1.082   1.694   4.017  0.8870 -2.7639 -1.4334
12155TIP3   OH257955   1.106   1.404  15.228 -0.5230 -0.2251  0.3583
12155TIP3    H157956   1.034   1.458  15.261 -0.4820 -0.4453  0.8282
12155TIP3    H257957   1.070   1.315  15.228  0.3031 -0.6118  2.3462
12156TIP3   OH257958   1.005   4.172  16.879  0.8159  0.4356  0.3954
12156TIP3    H157959   1.056   4.209  16.807  0.8840 -0.5600 -0.0851
12156TIP3    H257960   0.923   4.145  16.839  0.3088  1.0940  0.9649
12157TIP3   OH257961   0.243   6.419   4.258  0.0219 -0.1451 -0.0073
12157TIP3    H157962   0.298   6.493   4.281 -2.3389  1.0244  2.5176
12157TIP3    H257963   0.297   6.342   4.276  1.4649  0.9282  0.4132
12158TIP3   OH257964   6.524   6.761   0.264 -0.2086 -0.0360  0.6158
12158TIP3    H157965   6.538   6.856   0.263  1.4365 -0.2447  1.1927
12158TIP3    H257966   6.524   6.738   0.357 -1.3234 -0.5377  0.5122
12159TIP3   OH257967   1.728   5.642  11.878  0.0690 -0.4790 -0.3658
12159TIP3    H157968   1.726   5.734  11.904 -1.8189 -0.3830 -0.7049
12159TIP3    H257969   1.708   5.594  11.958  3.4096 -0.8590  0.4244
12160TIP3   OH257970   4.248   3.875   2.122 -0.2643  0.2342 -0.4407
12160TIP3    H157971   4.221   3.959   2.086 -1.0795 -0.0334 -0.4702
12160TIP3    H257972   4.192   3.811   2.079  0.0552 -0.2839 -0.1008
12161TIP3   OH257973   5.955   5.272   0.817  0.0065 -0.1155 -0.1222
12161TIP3    H157974   6.031   5.261   0.873 -0.0763 -0.0673  0.0013
12161TIP3    H257975   5.990   5.299   0.732  0.2092 -1.1773 -0.3950
12162TIP3   OH257976   2.307   3.196  12.333  0.3731  0.2961  0.2546
12162TIP3    H157977   2.223   3.189  12.379  0.3331  0.6178  0.2294
12162TIP3    H257978   2.307   3.121  12.273  0.4752 -0.1942  0.8512
12163TIP3   OH257979   6.718   4.903  11.457 -0.2276 -0.1527 -0.5305
12163TIP3    H157980   6.798   4.928  11.410  1.3715 -2.2441  0.8972
12163TIP3    H257981   6.672   4.845  11.396  0.0508 -0.0655 -0.8306
12164TIP3   OH257982   0.209   1.605   3.468  0.1373 -0.4747 -0.1061
12164TIP3    H157983   0.267   1.531   3.485 -0.2813 -0.5279  1.2444
12164TIP3    H257984   0.268   1.680   3.455  0.5372 -0.8642 -0.5780
12165TIP3   OH257985   5.987   5.259  14.730 -0.6488  0.3322 -0.0187
12165TIP3    H157986   6.016   5.239  14.819 -3.3627 -0.0639  0.8799
12165TIP3    H257987   5.936   5.340  14.738  0.6127  1.3645 -1.6052
12166TIP3   OH257988   2.778   6.402   0.666 -0.4340 -0.0025 -0.1888
12166TIP3    H157989   2.685   6.393   0.647 -0.2971  0.3068 -1.0520
12166TIP3    H257990   2.803   6.318   0.705 -1.8192  1.0998  3.4531
12167TIP3   OH257991   4.017   2.408  13.598 -0.1352 -0.3024  0.1440
12167TIP3    H157992   4.074   2.394  13.522  0.6686  1.6875  0.3307
12167TIP3    H257993   3.957   2.477  13.570 -0.9315 -0.7265  0.7751
12168TIP3   OH257994   6.261   5.908   5.540 -0.1192  0.4277 -0.4946
12168TIP3    H157995   6.320   5.841   5.504  1.2722  1.3460 -0.0169
12168TIP3    H257996   6.235   5.873   5.625  0.1288  0.2254 -0.4993
12169TIP3   OH257997   0.567   0.660  12.085  0.2421 -0.0927  0.5367
12169TIP3    H157998   0.489   0.618  12.049  0.3176  2.4262 -3.1773
12169TIP3    H257999   0.636   0.594  12.080 -0.7098 -1.0358 -0.2742
12170TIP3   OH258000   5.590   5.477  13.179  0.7958 -0.0303 -0.3615
12170TIP3    H158001   5.510   5.430  13.160  0.5409 -0.7138  2.1242
12170TIP3    H258002   5.573   5.567  13.149 -0.1533 -0.5796 -1.5486
12171TIP3   OH258003   5.688   2.445  11.537  0.2047 -0.0244  0.0945
12171TIP3    H158004   5.683   2.351  11.556 -0.4116  0.2909  1.5572
12171TIP3    H258005   5.781   2.466  11.546  0.5046 -0.6675 -1.2227
12172TIP3   OH258006   5.982   0.814  16.979 -0.3916  0.3012  0.5721
12172TIP3    H158007   6.050   0.843  17.040 -1.0412 -1.0861  2.0134
12172TIP3    H258008   5.963   0.891  16.926  0.6888  1.3517  1.6485
12173TIP3   OH258009   3.563   5.059   0.452  0.0196 -0.2311  0.1416
12173TIP3    H158010   3.627   5.083   0.385  1.4401  0.6937  1.7321
12173TIP3    H258011   3.583   4.968   0.474 -0.3578 -0.4904 -0.5818
12174TIP3   OH258012   1.822   1.083   4.060 -0.3574  0.0336 -0.1945
12174TIP3    H158013   1.789   0.995   4.078  1.3362 -0.4476  0.7579
12174TIP3    H258014   1.842   1.120   4.146  0.5666  0.6782 -0.6674
12175TIP3   OH258015   2.793   0.897  12.539  0.6839 -0.1020 -0.1892
12175TIP3    H158016   2.748   0.829  12.589  0.8756  0.0119  0.1397
12175TIP3    H258017   2.739   0.908  12.461  1.2418 -1.4312 -0.7972
12176TIP3   OH258018   0.646   5.003  14.387  0.1860 -0.6852  0.1022
12176TIP3    H158019   0.703   5.067  14.346 -0.0268 -0.6072 -0.0730
12176TIP3    H258020   0.706   4.943  14.432  0.5203 -1.5795 -1.4500
12177TIP3   OH258021   5.532   5.184  13.548 -0.6262 -0.1577  0.0941
12177TIP3    H158022   5.573   5.254  13.496  0.2495 -1.1585 -0.6218
12177TIP3    H258023   5.473   5.229  13.607  0.6565  1.2683  0.3450
12178TIP3   OH258024   1.144   0.313  13.279 -0.3580  0.0949 -0.5650
12178TIP3    H158025   1.141   0.222  13.306 -2.5614  0.3858  0.3948
12178TIP3    H258026   1.162   0.310  13.185 -1.0028 -1.3485 -0.6573
12179TIP3   OH258027   1.515   1.620  15.633 -0.3742 -0.4800  0.3209
12179TIP3    H158028   1.564   1.701  15.650 -1.1537  0.4012 -1.3318
12179TIP3    H258029   1.423   1.644  15.648 -0.8675 -0.3112 -2.3627
12180TIP3   OH258030   2.747   3.485  14.999  0.4397  0.2468  0.3700
12180TIP3    H158031   2.687   3.491  15.073 -0.8116 -2.8369 -0.2259
12180TIP3    H258032   2.712   3.546  14.934  1.2154  2.5503  1.9772
12181TIP3   OH258033   0.194   2.937  11.904  0.5767 -0.3902 -0.1054
12181TIP3    H158034   0.232   3.013  11.861 -0.4455 -0.3012 -0.8967
12181TIP3    H258035   0.252   2.865  11.881 -0.4978 -0.5528 -2.6069
12182TIP3   OH258036   0.511   2.734   0.526 -0.7329  0.2317  0.1373
12182TIP3    H158037   0.578   2.768   0.467 -0.4095  0.8257  0.8243
12182TIP3    H258038   0.537   2.767   0.612 -1.8369  0.3521  0.4357
12183TIP3   OH258039   0.263   4.732  11.552 -0.4819 -0.4591  0.4691
12183TIP3    H158040   0.343   4.753  11.600  0.1090  0.5342 -0.8878
12183TIP3    H258041   0.268   4.785  11.472 -2.3517 -0.6064  0.2066
12184TIP3   OH258042   1.360   4.444  17.061  1.3340  0.3223 -0.0402
12184TIP3    H158043   1.366   4.539  17.060  0.5771  0.3801  0.2801
12184TIP3    H258044   1.398   4.418  17.145 -0.2443  0.4993  0.7741
12185TIP3   OH258045   4.736   0.859   5.807  0.0668 -0.0705 -0.1675
12185TIP3    H158046   4.829   0.836   5.806  0.4279  1.3289 -0.2359
12185TIP3    H258047   4.696   0.797   5.746  0.6987 -1.5979  0.8969
12186TIP3   OH258048   4.390   2.532  17.115  0.8840  0.1004  0.3137
12186TIP3    H158049   4.437   2.539  17.198 -0.5074  2.1625  0.9878
12186TIP3    H258050   4.427   2.602  17.061  0.2039  0.2140 -0.0063
12187TIP3   OH258051   5.188   4.845  13.836 -0.5759  0.1855  0.7887
12187TIP3    H158052   5.218   4.924  13.792  0.8514 -0.4595  0.5488
12187TIP3    H258053   5.112   4.817  13.785 -1.6208  1.8214  1.3713
12188TIP3   OH258054   4.683   3.793  13.491  0.6371  0.1990 -0.0768
12188TIP3    H158055   4.723   3.739  13.423  0.6621 -0.7102  0.6511
12188TIP3    H258056   4.654   3.731  13.558  1.0842  1.1139  0.9933
12189TIP3   OH258057   3.561   0.718   4.766  0.2111  0.2382 -0.2644
12189TIP3    H158058   3.643   0.670   4.751  0.2439  0.0682  0.4043
12189TIP3    H258059   3.492   0.654   4.748  0.2269  0.3548 -0.7408
12190TIP3   OH258060   1.589   5.217  11.748  0.0151  0.5676 -0.0920
12190TIP3    H158061   1.671   5.219  11.699  0.4487 -1.8483  0.4293
12190TIP3    H258062   1.614   5.197  11.838 -1.1032 -0.0162  0.1141
12191TIP3   OH258063   5.252   6.455   0.573 -0.1118 -0.2549  0.4219
12191TIP3    H158064   5.166   6.497   0.581 -0.0428  0.2411 -1.0828
12191TIP3    H258065   5.279   6.473   0.482  0.4735 -2.5253  0.0818
12192TIP3   OH258066   3.307   4.728  16.303 -0.3968 -0.0464  0.0974
12192TIP3    H158067   3.396   4.762  16.316 -0.5400  0.1489  0.5858
12192TIP3    H258068   3.281   4.696  16.390 -1.4729  1.4775  0.3681
12193TIP3   OH258069   1.992   3.298   4.523 -0.0945  0.3347  0.0017
12193TIP3    H158070   1.971   3.351   4.446  2.1502 -0.6184 -1.3876
12193TIP3    H258071   2.081   3.324   4.547  0.8461 -2.2347 -0.3535
12194TIP3   OH258072   6.122   5.971  15.224 -0.6691  0.2058 -0.3642
12194TIP3    H158073   6.100   6.011  15.140  0.2736 -1.5144 -1.4726
12194TIP3    H258074   6.200   6.018  15.253 -0.7270  0.4978 -0.6693
12195TIP3   OH258075   6.666   3.765   0.207  0.1787 -0.1972 -0.4838
12195TIP3    H158076   6.685   3.687   0.156  1.7546  0.0306 -0.2866
12195TIP3    H258077   6.590   3.804   0.162 -0.6758 -1.8294 -0.5444
12196TIP3   OH258078   2.407   5.005  15.713  0.2546 -0.1779  0.3731
12196TIP3    H158079   2.459   4.989  15.634 -0.1197 -1.2454  0.3255
12196TIP3    H258080   2.453   5.076  15.758  0.2143  0.7636 -1.0328
12197TIP3   OH258081   3.234   5.632  14.350 -0.0706 -0.2833 -0.5320
12197TIP3    H158082   3.209   5.706  14.294  1.2660  0.1510 -0.5709
12197TIP3    H258083   3.164   5.568  14.337 -1.3763  1.0532 -0.3149
12198TIP3   OH258084   0.458   6.233  11.982 -0.0039 -0.4678 -0.3687
12198TIP3    H158085   0.501   6.289  12.047 -1.2967 -0.1495  0.2409
12198TIP3    H258086   0.438   6.292  11.909 -1.1390 -0.1635  0.1683
12199TIP3   OH258087   4.801   4.801  12.547 -0.0823 -0.2351  0.1893
12199TIP3    H158088   4.744   4.841  12.481 -0.0514 -1.6721 -0.7820
12199TIP3    H258089   4.879   4.855  12.548 -0.6939  0.6659  0.1397
12200TIP3   OH258090   6.582   6.076   3.725 -0.0481 -0.3076 -0.9508
12200TIP3    H158091   6.532   6.101   3.647  0.4045 -0.3677 -1.2629
12200TIP3    H258092   6.515   6.045   3.786 -0.3218 -1.2052 -1.6794
12201TIP3   OH258093   6.670   3.950  10.330 -0.5350  0.1332  0.2242
12201TIP3    H158094   6.672   3.857  10.353  1.7946  0.3358  1.0572
12201TIP3    H258095   6.705   3.954  10.241 -0.6638  0.2250  0.1767
12202TIP3   OH258096   6.370   2.035  13.377 -0.2493 -0.5288 -0.9641
12202TIP3    H158097   6.334   2.024  13.465  0.6726  0.0683 -0.4922
12202TIP3    H258098   6.454   2.078  13.391  0.8081 -2.1175 -1.9791
12203TIP3   OH258099   6.612   1.215   0.217  0.5017 -0.1471  0.2630
12203TIP3    H158100   6.592   1.218   0.311 -1.2374  0.4053 -0.0948
12203TIP3    H258101   6.693   1.164   0.212 -0.0300 -1.2642  1.9694
12204TIP3   OH258102   4.398   3.370  16.236 -0.1700  0.2219  0.0122
12204TIP3    H158103   4.377   3.436  16.171 -1.4615 -0.6243 -0.4666
12204TIP3    H258104   4.488   3.343  16.215  0.1481  1.3623 -0.1514
12205TIP3   OH258105   3.238   0.383   1.444 -0.3130 -0.4572  0.1600
12205TIP3    H158106   3.249   0.476   1.427  3.8927 -0.7370  0.1066
12205TIP3    H258107   3.230   0.376   1.539  3.3262 -0.0198  0.6618
12206TIP3   OH258108   6.363   6.583  14.374 -0.5619 -0.4163  0.0978
12206TIP3    H158109   6.456   6.571  14.359 -0.4124  0.3838  0.3443
12206TIP3    H258110   6.357   6.620  14.463 -1.0211  0.6571 -0.3635
12207TIP3   OH258111   1.812   2.896  15.326 -0.5206 -0.2764  0.4561
12207TIP3    H158112   1.869   2.971  15.340  0.3773 -1.2735  2.5454
12207TIP3    H258113   1.835   2.863  15.240 -0.2384  1.2436 -0.0696
12208TIP3   OH258114   3.021   4.453  11.968  0.4609 -0.2268  0.4543
12208TIP3    H158115   3.034   4.520  11.901 -0.0945 -0.4933  0.0719
12208TIP3    H258116   3.025   4.370  11.921  2.5714 -0.5637  1.1462
12209TIP3   OH258117   5.548   5.652   3.755  0.3108 -0.0261  0.1066
12209TIP3    H158118   5.456   5.627   3.764 -0.1510  1.3801 -0.4589
12209TIP3    H258119   5.594   5.569   3.742 -0.7563 -0.8317  1.1604
12210TIP3   OH258120   6.153   4.337   3.277  0.7491 -0.4422 -0.2606
12210TIP3    H158121   6.072   4.349   3.328  2.0499  1.0357  1.5739
12210TIP3    H258122   6.139   4.255   3.230 -0.8563 -1.5520  1.9590
12211TIP3   OH258123   5.222   2.688  15.288  0.0940  0.0597 -0.2517
12211TIP3    H158124   5.255   2.610  15.243  2.4483 -0.1550  1.6244
12211TIP3    H258125   5.267   2.761  15.246  1.1872 -0.0212  0.7151
12212TIP3   OH258126   1.645   5.166  12.776 -0.1311  0.5042  0.2183
12212TIP3    H158127   1.634   5.135  12.686  1.2790 -2.3719  0.8996
12212TIP3    H258128   1.575   5.122  12.825 -0.6483  1.7371  0.6318
12213TIP3   OH258129   1.643   5.004   0.107  0.7660 -0.1079 -0.2846
12213TIP3    H158130   1.699   4.963   0.173  0.3874 -1.5941 -0.8550
12213TIP3    H258131   1.565   5.030   0.156  1.0220 -0.0259  0.0916
12214TIP3   OH258132   5.049   2.793   0.726 -0.1593 -0.4789 -0.5157
12214TIP3    H158133   5.136   2.820   0.755 -0.6765  1.8880 -0.9654
12214TIP3    H258134   5.064   2.745   0.645  0.9240 -3.0297  1.0798
12215TIP3   OH258135   5.612   0.529  16.548  0.4993  0.0001  0.3075
12215TIP3    H158136   5.526   0.516  16.588 -0.3994  2.0056 -0.8166
12215TIP3    H258137   5.633   0.621  16.566  1.7973 -0.1060 -0.5403
12216TIP3   OH258138   5.443   3.857   1.887  0.3894 -0.0952 -0.0424
12216TIP3    H158139   5.484   3.786   1.838 -2.3011 -0.1902 -2.3563
12216TIP3    H258140   5.424   3.818   1.973 -1.7517 -2.5484 -1.4915
12217TIP3   OH258141   2.357   2.909   2.049  0.6812 -0.0478  0.5862
12217TIP3    H158142   2.400   2.978   1.999 -0.0583  0.5228  0.7127
12217TIP3    H258143   2.273   2.896   2.004  1.0104 -1.2231  0.2697
12218TIP3   OH258144   1.710   2.715  12.220  0.6740  0.1498 -0.1855
12218TIP3    H158145   1.791   2.757  12.190  1.0941  0.5608  1.3963
12218TIP3    H258146   1.649   2.788  12.235  0.1224 -0.1289 -1.0010
12219TIP3   OH258147   0.326   0.065   5.810 -0.2802  0.3381 -0.1455
12219TIP3    H158148   0.294   0.068   5.900  0.9630  0.1404  0.3296
12219TIP3    H258149   0.289  -0.015   5.774 -0.3418  0.1254  0.3757
12220TIP3   OH258150   2.640   6.793   0.071  0.0731  0.3311 -0.1169
12220TIP3    H158151   2.652   6.727   0.140 -0.7984  0.5563  0.2665
12220TIP3    H258152   2.729   6.811   0.040  0.2402 -2.4688 -1.6435
12221TIP3   OH258153   2.593   2.288  13.585  0.6107  0.2164  0.2757
12221TIP3    H158154   2.614   2.194  13.585 -0.5188 -0.0609  0.9484
12221TIP3    H258155   2.674   2.331  13.557  0.4821 -1.0760 -2.3595
12222TIP3   OH258156   2.285   1.169   3.178  0.0242  0.6785 -0.5255
12222TIP3    H158157   2.369   1.213   3.165  0.9959 -1.2404 -1.1530
12222TIP3    H258158   2.248   1.161   3.090 -0.3221  0.5893 -0.3741
12223TIP3   OH258159   6.432   0.304  16.342 -0.1452  0.1576 -0.0854
12223TIP3    H158160   6.498   0.349  16.395 -2.0420  2.5722  0.4219
12223TIP3    H258161   6.439   0.347  16.256 -0.8469  0.2362 -0.1043
12224TIP3   OH258162   6.386   6.170  12.390  0.2985 -0.5066  0.4011
12224TIP3    H158163   6.303   6.194  12.432  0.5751 -1.8085  1.7615
12224TIP3    H258164   6.414   6.250  12.345 -1.4736  0.0784  0.2596
12225TIP3   OH258165   1.281   4.907   6.958  0.4700  0.3641 -0.5501
12225TIP3    H158166   1.335   4.843   6.913  0.3547 -0.0528 -0.1106
12225TIP3    H258167   1.325   4.921   7.042  1.6968  2.5075 -1.4703
12226TIP3   OH258168   1.618   0.348  14.604  0.2974  0.1558 -0.0486
12226TIP3    H158169   1.706   0.317  14.583  0.8465  1.3561  0.4407
12226TIP3    H258170   1.560   0.293  14.550  1.3664 -0.3056 -0.7546
12227TIP3   OH258171   2.609   4.631  16.885  0.0300 -0.0865  0.3081
12227TIP3    H158172   2.519   4.621  16.916 -0.6261  1.2091 -1.0327
12227TIP3    H258173   2.627   4.551  16.836 -0.0384 -0.7574  1.3530
12228TIP3   OH258174   2.576   6.378   2.382  0.1373  0.2801 -0.2691
12228TIP3    H158175   2.528   6.295   2.381 -1.2784  1.0490  1.0065
12228TIP3    H258176   2.595   6.394   2.474  1.2388  0.9432 -0.5846
12229TIP3   OH258177   1.612   6.242   5.024  0.4280  0.2875 -0.6302
12229TIP3    H158178   1.551   6.312   5.004  1.1670  1.4780  1.0172
12229TIP3    H258179   1.688   6.259   4.969  0.5870  0.7833 -0.2662
12230TIP3   OH258180   3.398   3.858  15.858 -0.1110  0.7968 -0.4171
12230TIP3    H158181   3.448   3.778  15.843  0.3951  1.5590 -3.3545
12230TIP3    H258182   3.383   3.860  15.953 -1.4430 -3.5037 -0.3335
12231TIP3   OH258183   4.329   4.800  16.163 -0.1284  0.2880  0.1415
12231TIP3    H158184   4.321   4.845  16.247 -0.0839  0.8126 -0.1295
12231TIP3    H258185   4.423   4.802  16.144 -0.1052 -0.0780  0.2098
12232TIP3   OH258186   3.739   5.339   3.701 -0.0663 -0.4850 -0.7689
12232TIP3    H158187   3.764   5.412   3.757  2.1013 -1.0977 -0.8303
12232TIP3    H258188   3.807   5.338   3.633 -1.6828 -0.7961 -2.4587
12233TIP3   OH258189   2.224   2.642   5.644  0.2088 -0.2627  0.5626
12233TIP3    H158190   2.242   2.603   5.559  2.3163  1.2995  0.2092
12233TIP3    H258191   2.202   2.733   5.624  1.5389  0.3445  1.6970
12234TIP3   OH258192   1.112   0.117  13.889  0.2403  0.1721 -0.1050
12234TIP3    H158193   1.124   0.180  13.818  0.3397  1.6782  1.1934
12234TIP3    H258194   1.156   0.038  13.858  0.2632  0.7694 -1.7163
12235TIP3   OH258195   1.637   1.391   3.829  0.1617  0.2029 -0.1131
12235TIP3    H158196   1.676   1.390   3.917 -0.9595  2.0641  0.4486
12235TIP3    H258197   1.689   1.455   3.780  1.3135 -1.4162 -1.1391
12236TIP3   OH258198   4.760   4.463  14.761  0.2524 -0.4286  0.4554
12236TIP3    H158199   4.839   4.503  14.798  0.2553  2.9806 -2.6443
12236TIP3    H258200   4.694   4.472  14.830  0.9519  2.8953  0.8411
12237TIP3   OH258201   4.796   0.911  14.760 -0.1880  0.5415 -0.1863
12237TIP3    H158202   4.819   0.920  14.852 -1.1658  2.0898 -0.0498
12237TIP3    H258203   4.860   0.966  14.714  0.3364 -0.2762 -0.4445
12238TIP3   OH258204   0.768   1.532   6.189  0.1052 -0.5620  0.0630
12238TIP3    H158205   0.827   1.456   6.188  0.5464 -0.2253 -0.2838
12238TIP3    H258206   0.680   1.494   6.194  0.3236 -1.0906  0.0155
12239TIP3   OH258207   1.888   0.389  15.497  0.5169  0.7949 -0.7399
12239TIP3    H158208   1.957   0.449  15.467  0.9734 -0.1375 -1.6131
12239TIP3    H258209   1.809   0.443  15.499  0.9227  1.4413 -1.4951
12240TIP3   OH258210   6.310   0.796  16.700  0.3498 -0.8183 -0.4355
12240TIP3    H158211   6.388   0.762  16.658  1.2663  2.0893 -1.3569
12240TIP3    H258212   6.251   0.817  16.628  0.1782  0.2088 -0.0248
12241TIP3   OH258213   3.054   6.289  14.163  0.4731  0.2771  0.0843
12241TIP3    H158214   3.128   6.330  14.118  0.1876 -1.2474 -1.9228
12241TIP3    H258215   3.091   6.210  14.203  0.6343  1.4033  2.2785
12242TIP3   OH258216   1.748   0.155   1.830  0.2470  0.2977  0.1592
12242TIP3    H158217   1.675   0.096   1.845 -0.1427  1.0897  1.4920
12242TIP3    H258218   1.812   0.132   1.897  1.4198 -0.6182 -1.1977
12243TIP3   OH258219   1.230   3.511  10.516  0.3358 -0.6198 -0.3870
12243TIP3    H158220   1.297   3.516  10.448  0.9050 -1.0731  0.1226
12243TIP3    H258221   1.257   3.436  10.570  1.3093  1.1605  1.7973
12244TIP3   OH258222   4.893   4.713  13.161 -0.2515  0.5708 -0.1188
12244TIP3    H158223   4.973   4.766  13.156  0.7522 -0.5047  2.5337
12244TIP3    H258224   4.858   4.731  13.248 -3.3887  1.5314 -1.4219
12245TIP3   OH258225   1.063   4.848   1.152  0.0825  0.0256 -0.4654
12245TIP3    H158226   1.060   4.810   1.240 -0.2829  0.5903 -0.2331
12245TIP3    H258227   1.122   4.923   1.160 -0.1823  0.2527 -0.6305
12246TIP3   OH258228   6.302   2.463  11.789  0.3221 -0.7419  0.1746
12246TIP3    H158229   6.333   2.378  11.759  0.4615 -0.8196  0.5368
12246TIP3    H258230   6.241   2.443  11.859  1.3980 -0.4984  1.1985
12247TIP3   OH258231   3.175   3.778   1.785 -0.1887  0.1143  0.2955
12247TIP3    H158232   3.132   3.766   1.870  0.6769  1.2647  0.9131
12247TIP3    H258233   3.202   3.870   1.784 -0.7280  0.2978 -1.4958
12248TIP3   OH258234   0.011   4.380   2.434  0.6167 -0.5598  0.2479
12248TIP3    H158235   0.099   4.359   2.403  0.5210  0.5090 -0.8227
12248TIP3    H258236  -0.048   4.334   2.374  0.4451  0.0173 -0.0369
12249TIP3   OH258237   0.909   4.221  15.117  0.4888 -0.4456  0.0451
12249TIP3    H158238   0.867   4.137  15.096  2.0854 -1.0220 -1.0585
12249TIP3    H258239   0.970   4.236  15.045  1.8106  0.5780  1.3084
12250TIP3   OH258240   3.933   0.956  10.711  0.2334  0.3863  0.0560
12250TIP3    H158241   4.000   0.960  10.643  1.7821 -0.0766  1.4772
12250TIP3    H258242   3.982   0.939  10.791 -1.7121 -1.3664  0.9627
12251TIP3   OH258243   5.751   6.814   0.236  0.1689 -0.3255 -1.0088
12251TIP3    H158244   5.829   6.805   0.291 -0.2097 -0.0128 -0.4100
12251TIP3    H258245   5.763   6.899   0.192 -0.5950  0.5021  0.3305
12252TIP3   OH258246   3.054   1.026   5.710 -0.6185 -0.1361 -0.6108
12252TIP3    H158247   3.144   1.011   5.682 -0.7813  0.3663 -1.4219
12252TIP3    H258248   3.000   0.998   5.636 -1.1033  0.0504 -0.3325
12253TIP3   OH258249   2.427   2.631   3.777  0.2481 -0.6478  0.6380
12253TIP3    H158250   2.358   2.610   3.714 -0.2186  2.4657 -0.0459
12253TIP3    H258251   2.384   2.685   3.843  1.9158  1.1500  0.3410
12254TIP3   OH258252   2.703   2.636  16.899 -0.3996  0.1203 -0.2716
12254TIP3    H158253   2.784   2.663  16.858  0.1552  0.4333  0.9793
12254TIP3    H258254   2.663   2.718  16.930  0.5369 -0.2472  2.1685
12255TIP3   OH258255   0.671   0.487   3.675 -0.2324 -0.5727  0.1143
12255TIP3    H158256   0.605   0.549   3.704  1.4997 -0.1387  3.7720
12255TIP3    H258257   0.683   0.428   3.749  1.4023 -2.4689 -1.5210
12256TIP3   OH258258   5.752   6.249  14.140  0.6078 -0.2883  0.3313
12256TIP3    H158259   5.829   6.223  14.091  0.1627  0.3694 -0.7475
12256TIP3    H258260   5.679   6.234  14.080  0.1237  1.2242  0.4966
12257TIP3   OH258261   6.767   3.192   2.070  0.5575  0.0110  0.6109
12257TIP3    H158262   6.714   3.155   1.999 -0.4923  3.0114 -0.2998
12257TIP3    H258263   6.752   3.133   2.144 -1.8229 -0.8185 -0.4392
12258TIP3   OH258264   0.695   6.629  14.001  0.2969 -0.2953  0.3820
12258TIP3    H158265   0.750   6.669  13.934  1.2106 -1.0864  0.6436
12258TIP3    H258266   0.749   6.631  14.080 -0.3051 -0.4867  0.8037
12259TIP3   OH258267   6.351   0.252   1.245  0.2780  0.5094 -0.0168
12259TIP3    H158268   6.289   0.321   1.271  2.2947  3.0919 -1.5977
12259TIP3    H258269   6.339   0.242   1.151  0.0661 -1.3587  0.1611
12260TIP3   OH258270   6.329   6.608  17.225  0.8607  0.0545  0.2175
12260TIP3    H158271   6.348   6.572  17.312  0.9226  1.6779  0.9154
12260TIP3    H258272   6.248   6.564  17.199 -0.1017  0.7478  1.8619
12261TIP3   OH258273   0.220   5.203  10.487 -0.3968  0.4796  0.0225
12261TIP3    H158274   0.194   5.215  10.578  1.8095 -1.6248  1.0288
12261TIP3    H258275   0.308   5.166  10.492  0.1867  1.2163 -3.0100
12262TIP3   OH258276   4.831   0.370   4.818  0.2504  1.3219 -0.2181
12262TIP3    H158277   4.872   0.444   4.863 -0.7921  0.6648  1.9164
12262TIP3    H258278   4.746   0.403   4.789 -0.4094  0.8890  1.1366
12263TIP3   OH258279   6.080   4.150  13.125 -0.2207  0.0502 -0.3219
12263TIP3    H158280   6.014   4.142  13.056  0.0622 -0.7342 -0.5127
12263TIP3    H258281   6.059   4.081  13.187 -0.8219  1.1186  0.6900
12264TIP3   OH258282   3.360   4.160   3.111  0.1374  0.4782  0.1622
12264TIP3    H158283   3.444   4.203   3.128 -0.6400  2.5595 -0.9603
12264TIP3    H258284   3.350   4.099   3.184  1.8296  1.4045  1.2492
12265TIP3   OH258285   4.530   5.531  14.886  0.4393 -0.2249  0.1595
12265TIP3    H158286   4.612   5.566  14.919  1.0852 -1.1621 -0.3781
12265TIP3    H258287   4.506   5.463  14.948  0.1207 -0.0221  0.2596
12266TIP3   OH258288   5.187   6.653   1.413  0.2548 -0.4003  0.3778
12266TIP3    H158289   5.106   6.646   1.362 -0.4272  1.8271  1.0388
12266TIP3    H258290   5.171   6.598   1.490 -0.8008  0.2918  0.6777
12267TIP3   OH258291   0.703   3.163   2.620  0.5100 -0.5135 -0.5287
12267TIP3    H158292   0.699   3.248   2.663 -0.1263 -0.4841 -0.6448
12267TIP3    H258293   0.761   3.111   2.676  2.2113  0.4714 -1.3189
12268TIP3   OH258294   5.082   5.817  15.635 -0.5472 -0.1558  0.0045
12268TIP3    H158295   5.004   5.804  15.688 -1.3276 -1.4113 -1.3702
12268TIP3    H258296   5.051   5.809  15.544  1.2161 -1.0927 -0.5749
12269TIP3   OH258297   3.709   5.191   1.839 -0.1563 -0.4882 -0.9129
12269TIP3    H158298   3.634   5.250   1.844  0.1696 -0.0890 -0.6775
12269TIP3    H258299   3.727   5.181   1.746  2.5735  3.3896 -1.0454
12270TIP3   OH258300   1.803   3.385  16.821 -0.2974  0.5490  0.4633
12270TIP3    H158301   1.845   3.381  16.907  0.2236  0.9196  0.2238
12270TIP3    H258302   1.861   3.439  16.768 -0.0380 -0.5835 -0.4453
12271TIP3   OH258303   5.473   2.040   5.996 -0.8861 -0.5018  0.3528
12271TIP3    H158304   5.494   1.974   6.062  3.1547  0.1112 -0.0748
12271TIP3    H258305   5.516   2.120   6.027 -1.1863  0.5185 -1.6958
12272TIP3   OH258306   3.486   0.787   0.596 -0.1981 -0.1672  0.0007
12272TIP3    H158307   3.577   0.773   0.570  0.3026 -0.4727  1.7929
12272TIP3    H258308   3.485   0.876   0.632 -1.2096  0.8450 -2.2891
12273TIP3   OH258309   6.736   2.798   4.988 -0.8405 -0.2516  0.2832
12273TIP3    H158310   6.792   2.734   5.033 -2.6174 -0.8044  1.8267
12273TIP3    H258311   6.692   2.747   4.919 -1.9064 -0.6315  1.2152
12274TIP3   OH258312   0.706   6.609   0.043  0.3307 -0.2491 -0.3219
12274TIP3    H158313   0.643   6.680   0.033  0.4753  0.0052  0.5224
12274TIP3    H258314   0.676   6.560   0.120  1.0206 -0.2662 -0.0568
12275TIP3   OH258315   3.011   2.266   0.025 -0.3249 -0.1438  0.1046
12275TIP3    H158316   3.089   2.264  -0.029 -0.7008  3.2131 -0.7710
12275TIP3    H258317   2.939   2.282  -0.037 -1.1495  0.9369  1.2953
12276TIP3   OH258318   5.879   0.233  10.630 -0.1359  0.0292 -0.1991
12276TIP3    H158319   5.826   0.258  10.554 -1.2598  1.4484  0.9979
12276TIP3    H258320   5.952   0.184  10.592 -1.3722 -0.4851 -2.0572
12277TIP3   OH258321   5.589   4.581   5.453 -0.3390  0.2661  0.2206
12277TIP3    H158322   5.665   4.611   5.403 -0.0190 -0.8379  0.0162
12277TIP3    H258323   5.517   4.637   5.423 -0.0951 -0.1975 -1.3132
12278TIP3   OH258324   0.720   6.785   3.092 -0.7947  0.1815  0.0795
12278TIP3    H158325   0.670   6.865   3.106 -0.3327  0.7356 -1.3337
12278TIP3    H258326   0.810   6.809   3.113 -0.6279  0.0897 -0.5184
12279TIP3   OH258327   4.108   4.650   2.715  0.2566  0.6517  0.1697
12279TIP3    H158328   4.045   4.671   2.646 -1.5135 -2.8145  0.5146
12279TIP3    H258329   4.188   4.626   2.668 -0.8324 -1.3928 -0.7722
12280TIP3   OH258330   2.872   1.311   3.392 -0.0075  0.1224 -0.0603
12280TIP3    H158331   2.962   1.304   3.425 -0.0295 -0.7103 -0.1516
12280TIP3    H258332   2.844   1.220   3.381 -0.4932  0.3743 -1.0278
12281TIP3   OH258333   0.584   4.136   0.197  0.3076 -0.3196  0.3068
12281TIP3    H158334   0.598   4.231   0.191 -0.3177 -0.2729 -0.7476
12281TIP3    H258335   0.596   4.105   0.107 -0.1431 -1.1459  0.5228
12282TIP3   OH258336   2.197   6.234  16.407  0.1405 -0.0418  0.1765
12282TIP3    H158337   2.125   6.241  16.470 -1.2092 -1.9409 -1.0457
12282TIP3    H258338   2.160   6.265  16.324  1.0404 -0.1105 -0.2613
12283TIP3   OH258339   5.227   5.878   4.315 -0.8505 -0.2367 -0.4626
12283TIP3    H158340   5.274   5.902   4.235  1.4917 -2.1831  0.1960
12283TIP3    H258341   5.265   5.794   4.340 -3.4067 -0.9953  1.2688
12284TIP3   OH258342   3.569   2.137  14.525 -0.7009 -0.0136  0.0038
12284TIP3    H158343   3.623   2.144  14.604  1.3247  0.0773 -1.3277
12284TIP3    H258344   3.632   2.131  14.453 -2.4816 -0.9495 -1.5556
12285TIP3   OH258345   1.574   2.985   2.723  0.1235  0.1657 -0.3625
12285TIP3    H158346   1.570   2.916   2.658 -0.2521  1.1877 -1.4677
12285TIP3    H258347   1.484   2.994   2.755  0.3829 -0.6227  0.6386
12286TIP3   OH258348   1.708   1.909   4.650 -0.2431 -0.0140 -1.2307
12286TIP3    H158349   1.625   1.956   4.642  0.1310  0.8306 -0.3935
12286TIP3    H258350   1.746   1.912   4.562 -0.4748  0.7983 -1.3098
12287TIP3   OH258351   5.018   5.416  16.820  0.0288  0.3035 -0.0154
12287TIP3    H158352   5.049   5.490  16.767 -1.2749  0.3136 -0.8099
12287TIP3    H258353   4.949   5.452  16.874 -1.7856 -0.6124 -1.5985
12288TIP3   OH258354   4.167   6.485  12.996  0.5369 -0.0763  0.6488
12288TIP3    H158355   4.130   6.534  12.922  0.6762 -0.9910 -0.0406
12288TIP3    H258356   4.192   6.553  13.059 -2.0678  0.6011  1.0685
12289TIP3   OH258357   5.588   0.780   3.289  0.1921  0.2187 -0.4665
12289TIP3    H158358   5.635   0.750   3.367  2.6371 -0.2522 -1.9810
12289TIP3    H258359   5.617   0.870   3.276 -0.4285  0.3932 -0.6665
12290TIP3   OH258360   5.961   4.118   6.401  0.2895 -0.4581  0.0158
12290TIP3    H158361   5.985   4.096   6.491 -1.1332  0.1695  0.5769
12290TIP3    H258362   5.948   4.033   6.359  0.3587 -0.7548  0.5736
12291TIP3   OH258363   3.464   6.366   1.538 -0.3861  0.0523  0.2726
12291TIP3    H158364   3.513   6.312   1.600 -0.2675 -0.4559 -0.2650
12291TIP3    H258365   3.385   6.315   1.519  0.5103 -0.7350 -1.5435
12292TIP3   OH258366   0.762   5.310  11.607 -0.1166 -0.1412  0.0244
12292TIP3    H158367   0.730   5.224  11.636  0.8811 -0.4616  0.2387
12292TIP3    H258368   0.832   5.290  11.545 -1.0747  0.5424 -1.3101
12293TIP3   OH258369   4.968   5.033  11.832  0.5852  0.2649 -0.1520
12293TIP3    H158370   5.029   5.065  11.766 -1.0743  0.1791 -1.8324
12293TIP3    H258371   4.918   5.111  11.858 -0.0573 -0.0408 -0.4526
12294TIP3   OH258372   3.373   2.038  16.675  0.4352 -0.7679  0.7676
12294TIP3    H158373   3.290   2.010  16.715 -1.1039  2.2908  0.0738
12294TIP3    H258374   3.412   2.096  16.741  0.9763 -0.5460  0.2571
12295TIP3   OH258375   3.829   2.095  14.954  0.1141  0.4780  0.2945
12295TIP3    H158376   3.833   2.118  15.047 -0.7149 -0.3854  0.5670
12295TIP3    H258377   3.839   2.000  14.953 -0.5827  0.4059 -0.4499
12296TIP3   OH258378   5.446   1.370   0.120 -0.9079 -0.0148 -0.0084
12296TIP3    H158379   5.491   1.329   0.046 -1.7870  1.2569 -1.2976
12296TIP3    H258380   5.478   1.323   0.197  1.1153 -0.4364 -1.0496
12297TIP3   OH258381   2.672   5.994  11.480  0.5185 -0.5408 -0.2745
12297TIP3    H158382   2.584   5.965  11.454  0.3474  0.4731 -0.8670
12297TIP3    H258383   2.730   5.926  11.444  0.1783  0.1381 -2.2364
12298TIP3   OH258384   1.160   0.596   0.610 -0.1081 -0.0277  0.4724
12298TIP3    H158385   1.151   0.551   0.525  2.0817 -1.8827  1.1127
12298TIP3    H258386   1.230   0.660   0.596 -1.1546  1.1381  0.3843
12299TIP3   OH258387   5.089   4.574   3.731  0.5898  0.2732  0.4217
12299TIP3    H158388   5.092   4.500   3.670 -1.4735  0.9082 -0.5283
12299TIP3    H258389   5.169   4.623   3.713  0.3218  0.1163 -1.3988
12300TIP3   OH258390   3.037   5.735  12.302 -0.3516  0.2125 -0.0545
12300TIP3    H158391   2.988   5.738  12.220  0.2103 -3.1257 -0.6583
12300TIP3    H258392   2.971   5.753  12.370 -1.6373 -0.5902 -1.0426
12301TIP3   OH258393   2.553   2.120  15.017 -0.0171  0.0989  0.2104
12301TIP3    H158394   2.616   2.092  15.084 -0.6376  0.3073  0.8903
12301TIP3    H258395   2.470   2.082  15.045 -0.4578  0.9122  0.0355
12302TIP3   OH258396   6.317   4.212   2.385  0.2633  0.3641 -0.1516
12302TIP3    H158397   6.408   4.187   2.398  0.2164  0.5464  0.5477
12302TIP3    H258398   6.290   4.165   2.306  0.3211 -1.3740  0.8312
12303TIP3   OH258399   5.663   2.931  16.536  0.2871  0.2859  0.3913
12303TIP3    H158400   5.606   2.997  16.575  0.0566 -0.5576  1.5406
12303TIP3    H258401   5.693   2.970  16.454  0.0365  1.7448  0.9680
12304TIP3   OH258402   5.940   1.665  11.161  0.3046 -0.3869  0.0557
12304TIP3    H158403   5.988   1.747  11.171 -0.6216  0.0194  1.5239
12304TIP3    H258404   6.008   1.599  11.150  1.0653  0.5794 -1.4149
12305TIP3   OH258405   4.935   4.235   2.113 -0.4106  0.2834 -0.4050
12305TIP3    H158406   4.933   4.279   2.028  0.3015 -0.3208 -0.7446
12305TIP3    H258407   4.940   4.306   2.177  0.1418  0.7134 -0.9155
12306TIP3   OH258408   5.956   5.279  10.622  0.4518  0.1737 -0.1797
12306TIP3    H158409   6.014   5.310  10.553  1.5392  1.5312  1.2771
12306TIP3    H258410   5.913   5.357  10.655 -1.2690 -0.6485 -0.3368
12307TIP3   OH258411   1.613   1.114   4.341 -0.4216  0.0035 -0.1246
12307TIP3    H158412   1.576   1.194   4.304 -0.2090 -0.1647 -0.7214
12307TIP3    H258413   1.620   1.055   4.266  0.6123 -0.1317  0.0652
12308TIP3   OH258414   2.582   4.367   1.940 -0.0250  0.4165 -0.3099
12308TIP3    H158415   2.623   4.396   1.859  0.7826 -0.7043 -0.3280
12308TIP3    H258416   2.573   4.446   1.992 -0.2102  1.0942 -1.3373
12309TIP3   OH258417   6.789   5.871  16.480  0.6176  0.0292 -0.4236
12309TIP3    H158418   6.761   5.790  16.522  0.7886  0.4206  0.4710
12309TIP3    H258419   6.884   5.863  16.475  0.7097  0.4764  0.3523
12310TIP3   OH258420   6.742   4.975   3.493 -0.1643 -0.4930  0.3240
12310TIP3    H158421   6.794   4.903   3.458 -0.1816 -0.9692  1.2456
12310TIP3    H258422   6.714   5.025   3.416  0.6275 -0.9345 -0.2600
12311TIP3   OH258423   3.767   6.101  13.040  0.2305  0.1093 -0.3006
12311TIP3    H158424   3.753   6.101  12.945 -0.6251 -0.2205 -0.1855
12311TIP3    H258425   3.704   6.165  13.073  0.9369  0.6624 -0.0029
12312TIP3   OH258426   1.231   6.701  17.076 -0.2354  0.5517  0.4854
12312TIP3    H158427   1.146   6.683  17.115 -0.8734  1.7364 -0.2911
12312TIP3    H258428   1.211   6.723  16.985  1.0673 -0.7683 -0.1607
12313TIP3   OH258429   3.222   3.587  15.955  0.3301  0.0007  0.0986
12313TIP3    H158430   3.252   3.548  15.873  0.3244 -2.9844  1.3811
12313TIP3    H258431   3.140   3.630  15.933  2.3418  3.1420 -2.2486
12314TIP3   OH258432   0.320   0.814   4.639  0.0862  0.3666 -0.3833
12314TIP3    H158433   0.411   0.786   4.641  0.1007  0.3813  1.2560
12314TIP3    H258434   0.316   0.887   4.701 -1.6442 -1.8073  2.3186
12315TIP3   OH258435   5.993   6.273   1.107  0.2893  0.0387  0.0194
12315TIP3    H158436   5.951   6.330   1.042 -0.0717 -0.1132  0.1173
12315TIP3    H258437   5.928   6.264   1.177  0.6612  0.1714  0.3857
12316TIP3   OH258438   2.440   1.637  11.084  0.3401  0.1190 -0.0286
12316TIP3    H158439   2.486   1.584  11.150  0.6582 -0.3130 -0.5824
12316TIP3    H258440   2.431   1.578  11.008  0.2047  0.6813 -0.4569
12317TIP3   OH258441   5.644   5.426   4.853  0.1613 -0.1958  0.1505
12317TIP3    H158442   5.713   5.459   4.795  0.1368  0.1952  0.3397
12317TIP3    H258443   5.621   5.501   4.907  0.8759 -0.8170  1.3451
12318TIP3   OH258444   2.759   6.097  14.765  0.3453  0.3375 -0.1609
12318TIP3    H158445   2.768   6.025  14.703 -1.8501  0.9756 -1.3488
12318TIP3    H258446   2.665   6.118  14.763  0.5237  1.6399  1.9790
12319TIP3   OH258447   3.546   3.836  16.399 -0.0705 -0.1282  0.1108
12319TIP3    H158448   3.488   3.872  16.466  0.2124 -0.8603  0.7671
12319TIP3    H258449   3.620   3.801  16.448 -0.7513 -2.4257 -0.3797
12320TIP3   OH258450   1.159   1.542  14.437  0.0989 -0.5580 -0.3646
12320TIP3    H158451   1.231   1.602  14.416 -1.5702  1.7842  0.2218
12320TIP3    H258452   1.196   1.484  14.505  1.0248  1.6180  1.1230
12321TIP3   OH258453   6.814   6.278   0.968 -0.1642  0.1710 -0.0736
12321TIP3    H158454   6.739   6.307   0.916 -0.0451  0.1484 -0.2577
12321TIP3    H258455   6.785   6.289   1.059  0.3863  2.1975 -0.1071
12322TIP3   OH258456   6.086   1.361   2.305 -0.3346 -0.5904 -0.0177
12322TIP3    H158457   6.127   1.396   2.384  0.2224  0.9453 -0.9563
12322TIP3    H258458   6.030   1.290   2.337 -2.7028  2.0340  2.2349
12323TIP3   OH258459   2.430   3.342  12.078 -0.7191 -0.2913  0.3555
12323TIP3    H158460   2.412   3.410  12.013 -0.2505  1.4120  1.9002
12323TIP3    H258461   2.349   3.336  12.129 -0.4984 -0.3221  0.7038
12324TIP3   OH258462   0.205   5.758  17.020 -0.0549  0.4630  0.7203
12324TIP3    H158463   0.278   5.697  17.032  0.7433  0.9663 -1.1978
12324TIP3    H258464   0.244   5.834  16.977 -1.4576  1.3678  0.9887
12325TIP3   OH258465   5.763   1.149  13.565 -0.1331  0.5588 -0.8342
12325TIP3    H158466   5.815   1.174  13.642 -1.8503  0.5936  0.3673
12325TIP3    H258467   5.747   1.232  13.519 -0.0567  0.6979 -0.6125
12326TIP3   OH258468   1.320   4.596   4.142 -0.4781  0.6351  0.0574
12326TIP3    H158469   1.294   4.578   4.052  0.2103  1.8837 -0.4158
12326TIP3    H258470   1.412   4.622   4.136  0.7651 -2.7523  1.5750
12327TIP3   OH258471   0.848   3.599  12.554  0.6671  0.2214 -0.3898
12327TIP3    H158472   0.915   3.531  12.547  0.8270  0.4007 -0.6125
12327TIP3    H258473   0.893   3.673  12.592  0.8986  0.7405 -1.6120
12328TIP3   OH258474   4.071   2.704   3.099 -0.5705 -0.6586  0.4011
12328TIP3    H158475   4.059   2.637   3.031  0.9513  0.2612 -0.8713
12328TIP3    H258476   3.988   2.751   3.102 -0.6750 -0.7212 -0.8639
12329TIP3   OH258477   2.789   1.215  16.285  0.5720  0.4206  0.0632
12329TIP3    H158478   2.769   1.139  16.340 -0.1753  1.5980  1.5034
12329TIP3    H258479   2.832   1.179  16.208  0.3025 -1.4455  0.7431
12330TIP3   OH258480   6.490   1.551   0.384 -0.8904 -0.1769  0.0812
12330TIP3    H158481   6.535   1.517   0.461 -1.4243  2.2394  1.5484
12330TIP3    H258482   6.397   1.541   0.405 -1.0557 -0.6431 -0.8237
12331TIP3   OH258483   1.715   2.349  11.395 -0.2549 -0.1062 -0.0121
12331TIP3    H158484   1.687   2.387  11.311  0.9703 -1.5675 -1.1467
12331TIP3    H258485   1.712   2.254  11.380  1.3719 -0.3692  1.1032
12332TIP3   OH258486   1.644   5.661  16.599  0.0818  0.1381  0.7500
12332TIP3    H158487   1.571   5.720  16.584 -0.4908 -0.6518  0.3226
12332TIP3    H258488   1.604   5.583  16.639  0.8742  0.1865  1.6871
12333TIP3   OH258489   3.339   5.792  15.792 -0.2014  0.1957  0.2495
12333TIP3    H158490   3.288   5.805  15.712  0.8827  0.1075 -0.4706
12333TIP3    H258491   3.361   5.699  15.792 -0.5139  0.1184  0.8500
12334TIP3   OH258492   1.894   6.318  15.184 -0.1221 -0.6149 -0.4275
12334TIP3    H158493   1.916   6.295  15.094  3.1075  0.9818 -0.1671
12334TIP3    H258494   1.836   6.247  15.213  0.8646 -2.5822 -2.9040
12335TIP3   OH258495   3.801   1.165   6.061 -0.0898  0.0422 -0.0873
12335TIP3    H158496   3.760   1.091   6.104 -1.3352  0.3029 -0.7922
12335TIP3    H258497   3.729   1.223   6.036  0.6434  0.3563 -1.6552
12336TIP3   OH258498   3.344   1.673   1.108  0.0718  0.0816 -0.2239
12336TIP3    H158499   3.358   1.709   1.020 -2.9080  2.3707  0.0617
12336TIP3    H258500   3.260   1.628   1.103 -0.0467  0.0502  1.3981
12337TIP3   OH258501   1.911   0.837  12.360 -0.1685  0.1505  0.1344
12337TIP3    H158502   1.879   0.886  12.284 -1.2168 -0.6624  0.0314
12337TIP3    H258503   1.966   0.899  12.408 -1.7622  1.5499  0.2142
12338TIP3   OH258504   5.601   2.898   1.812 -0.7330 -0.1111 -0.5625
12338TIP3    H158505   5.675   2.872   1.756  1.5236  1.6795  1.3341
12338TIP3    H258506   5.588   2.823   1.870  0.3980 -0.0619 -0.2093
12339TIP3   OH258507   5.357   4.820   0.984 -0.0525  0.2285  0.1182
12339TIP3    H158508   5.262   4.816   0.999 -0.1596  0.0384 -0.5804
12339TIP3    H258509   5.370   4.899   0.932  0.1590  0.1923  0.1162
12340TIP3   OH258510   4.033   5.537   1.746 -0.6476  0.5415  0.0442
12340TIP3    H158511   3.986   5.595   1.806  0.2005 -0.6632  1.9747
12340TIP3    H258512   4.125   5.564   1.753 -0.5781  0.6775 -1.1076
12341TIP3   OH258513   1.023   4.007  13.646  0.4587  0.4096  0.5057
12341TIP3    H158514   1.089   4.061  13.603 -0.5352  1.3678  0.1577
12341TIP3    H258515   1.014   3.930  13.590 -2.0551  2.3872 -2.0936
12342TIP3   OH258516   6.152   2.518   0.139 -0.5632  0.3177 -0.5819
12342TIP3    H158517   6.092   2.509   0.213 -0.2635  0.7974 -0.2835
12342TIP3    H258518   6.143   2.435   0.092  1.1858 -1.1036  1.4161
12343TIP3   OH258519   4.983   6.494  15.457  0.0996 -0.2619  0.2961
12343TIP3    H158520   4.925   6.533  15.392  1.0127  2.1929  0.8539
12343TIP3    H258521   4.980   6.400  15.438 -0.2064  0.2652 -2.8144
12344TIP3   OH258522   0.631   1.284  12.155  0.4078  0.0550  0.3230
12344TIP3    H158523   0.562   1.219  12.166 -0.9395  1.4085  0.1905
12344TIP3    H258524   0.679   1.283  12.238 -1.4797  0.9711  1.4793
12345TIP3   OH258525   5.396   0.986  14.392  0.3586 -0.3053 -0.2255
12345TIP3    H158526   5.383   0.995  14.297 -0.7092  1.1908  0.0273
12345TIP3    H258527   5.474   0.930  14.400  1.2449  0.5900 -1.9919
12346TIP3   OH258528   4.391   6.287   1.538 -0.3378 -0.1342  0.0121
12346TIP3    H158529   4.434   6.291   1.624  0.5103 -1.4987 -0.3179
12346TIP3    H258530   4.349   6.372   1.529  0.3833  0.4074  1.3544
12347TIP3   OH258531   3.229   4.671   0.821  0.0258 -0.3487 -0.1274
12347TIP3    H158532   3.314   4.686   0.779 -0.9606  0.9289 -1.7721
12347TIP3    H258533   3.227   4.576   0.837  1.2311 -0.5905 -1.2521
12348TIP3   OH258534   3.914   3.782  16.835 -0.2018 -1.3533 -0.1614
12348TIP3    H158535   3.975   3.790  16.761 -1.7709  0.8297 -1.3457
12348TIP3    H258536   3.966   3.742  16.905  2.0084 -1.3737 -1.7083
12349TIP3   OH258537   3.581   4.684   6.196 -0.4505 -0.8858 -0.3960
12349TIP3    H158538   3.606   4.609   6.252  0.4471  1.9837  3.5059
12349TIP3    H258539   3.517   4.732   6.248 -0.4866  1.4313 -2.4098
12350TIP3   OH258540   3.584   4.772  15.803 -0.2872 -0.6219  0.2181
12350TIP3    H158541   3.534   4.708  15.853 -1.7050  0.8346  0.7558
12350TIP3    H258542   3.572   4.746  15.712  0.6379 -2.1109  0.4773
12351TIP3   OH258543   4.666   4.347   2.756 -0.0622  0.2692  0.5434
12351TIP3    H158544   4.614   4.342   2.836 -0.4444  0.9420  0.3408
12351TIP3    H258545   4.604   4.326   2.686  0.5033 -1.3465  0.4944
12352TIP3   OH258546   3.594   5.889  15.982  0.2066 -0.3651  0.4975
12352TIP3    H158547   3.554   5.950  16.044  0.0738 -1.6669  1.7723
12352TIP3    H258548   3.546   5.901  15.901 -0.6655  0.3105  1.1001
12353TIP3   OH258549   2.812   0.372  14.861 -0.3275 -0.1661  0.4205
12353TIP3    H158550   2.907   0.358  14.861 -0.4245 -2.1066  3.9053
12353TIP3    H258551   2.800   0.449  14.917 -0.8229  0.7134 -0.8552
12354TIP3   OH258552   5.294   6.703   4.900  0.2029  0.5342 -0.5078
12354TIP3    H158553   5.214   6.737   4.941  0.4621  2.8467 -1.7514
12354TIP3    H258554   5.263   6.634   4.842 -0.7646  0.6902 -0.2008
12355TIP3   OH258555   5.646   4.213   2.293  0.0949 -0.2241  0.3138
12355TIP3    H158556   5.597   4.287   2.257 -0.4518 -0.6154  0.2326
12355TIP3    H258557   5.737   4.233   2.274 -0.0673  0.3187  0.0851
12356TIP3   OH258558   0.901   0.929  15.243 -0.1121  0.2990  0.2468
12356TIP3    H158559   0.973   0.890  15.193  0.4531  1.2711  0.2777
12356TIP3    H258560   0.823   0.913  15.189  0.1931 -0.3684 -0.0016
12357TIP3   OH258561   2.892   3.324  11.755 -0.0607 -0.3403 -0.4268
12357TIP3    H158562   2.937   3.332  11.671 -1.7246  0.6728 -1.2583
12357TIP3    H258563   2.821   3.387  11.751 -0.2721 -0.3656  1.7088
12358TIP3   OH258564   3.872   1.438   5.163 -0.0906  0.4303  0.0782
12358TIP3    H158565   3.806   1.390   5.113  1.3542 -0.4284 -1.0827
12358TIP3    H258566   3.922   1.370   5.208  1.8285  0.7841 -1.3952
12359TIP3   OH258567   2.585   5.701   0.351 -0.1264  0.2748 -0.1709
12359TIP3    H158568   2.551   5.655   0.275 -1.6432  0.7785  0.1588
12359TIP3    H258569   2.597   5.633   0.417  0.1471 -0.0100 -0.5153
12360TIP3   OH258570   0.704   5.466   1.908 -0.1229  0.0086 -0.2304
12360TIP3    H158571   0.734   5.487   1.997 -0.4556  1.5116 -0.4410
12360TIP3    H258572   0.702   5.551   1.863 -2.1687 -0.4007 -0.9907
12361TIP3   OH258573   3.556   4.662   4.709 -0.1141 -0.0358 -0.0488
12361TIP3    H158574   3.624   4.608   4.667  0.3873  0.1050  0.5662
12361TIP3    H258575   3.475   4.636   4.666  0.2330 -0.7104 -0.3120
12362TIP3   OH258576   0.685   0.690  13.616  0.3579 -0.4753  0.7656
12362TIP3    H158577   0.616   0.656  13.673  0.1772 -0.6572  0.4399
12362TIP3    H258578   0.658   0.780  13.596  1.8914  0.6843  3.3652
12363TIP3   OH258579   6.605   2.472  16.094 -0.3007  0.7391  0.7014
12363TIP3    H158580   6.695   2.440  16.093 -1.1131 -1.8340 -0.1073
12363TIP3    H258581   6.598   2.530  16.018  0.7956  1.3932  1.0905
12364TIP3   OH258582   0.023   1.046   1.773 -0.1154 -0.5136 -0.2304
12364TIP3    H158583   0.083   1.066   1.701 -1.4194 -1.4648 -1.6534
12364TIP3    H258584  -0.046   0.993   1.733 -2.4706  1.3454  1.0533
12365TIP3   OH258585   1.337   3.966  14.948  0.2251 -0.7023  0.0922
12365TIP3    H158586   1.385   3.971  14.865  1.3685 -0.1494  0.7651
12365TIP3    H258587   1.397   3.923  15.008 -0.9616 -2.0003  0.4128
12366TIP3   OH258588   2.702   5.504  14.018 -0.3337  0.0377  0.1584
12366TIP3    H158589   2.639   5.433  14.030  1.8927 -1.6944  2.7844
12366TIP3    H258590   2.734   5.493  13.928 -1.4906 -1.0317 -0.1437
12367TIP3   OH258591   4.876   3.219  15.632 -0.4181 -0.1641 -0.2833
12367TIP3    H158592   4.946   3.285  15.638 -0.2040 -0.4778  0.8808
12367TIP3    H258593   4.808   3.251  15.691 -0.0173 -1.3129  0.8558
12368TIP3   OH258594   2.317   5.441  16.250  0.1997 -0.0147 -0.0366
12368TIP3    H158595   2.287   5.514  16.304  1.2273 -0.3418  1.0092
12368TIP3    H258596   2.264   5.367  16.280 -1.4274  0.4147 -1.6596
12369TIP3   OH258597   3.533   5.142   4.741  0.2921  0.1232 -0.5304
12369TIP3    H158598   3.472   5.214   4.761  0.0083 -0.3570  0.3556
12369TIP3    H258599   3.502   5.069   4.794 -0.7168 -1.3480 -2.9381
12370TIP3   OH258600   4.170   2.531   0.299  0.0904  0.1654 -0.1336
12370TIP3    H158601   4.099   2.476   0.333 -0.4070  2.0162  2.0870
12370TIP3    H258602   4.137   2.565   0.216  0.5882 -3.0738 -1.8374
12371TIP3   OH258603   5.903   5.418   3.284  0.2838  0.5260 -0.3773
12371TIP3    H158604   5.902   5.351   3.353 -1.6583  0.3841 -0.4820
12371TIP3    H258605   5.946   5.493   3.325  0.5962 -0.0806  0.4439
12372TIP3   OH258606   0.629   0.847   1.449 -0.0299  0.0594  0.5993
12372TIP3    H158607   0.699   0.893   1.495 -1.2162  1.2529  1.2933
12372TIP3    H258608   0.589   0.791   1.516 -0.0385 -0.2575  0.3311
12373TIP3   OH258609   2.364   4.671   5.725  0.3029 -0.3447 -0.0913
12373TIP3    H158610   2.324   4.587   5.748  0.1061  0.0996  1.2862
12373TIP3    H258611   2.382   4.713   5.809 -0.0851  1.2316 -0.7506
12374TIP3   OH258612   3.258   4.847  14.950  0.0300 -0.3625 -0.7993
12374TIP3    H158613   3.238   4.835  15.043  0.0440 -1.7248 -0.9507
12374TIP3    H258614   3.313   4.926  14.947  1.0269 -0.9731  0.4909
12375TIP3   OH258615   4.826   1.136   6.615  0.0983  0.0842  0.1339
12375TIP3    H158616   4.770   1.078   6.666 -0.4399  0.4305 -0.0555
12375TIP3    H258617   4.910   1.090   6.611  0.0635 -0.0850  1.0724
12376TIP3   OH258618   1.425   3.968  13.097 -0.0548  0.4485 -0.3313
12376TIP3    H158619   1.444   3.894  13.040  1.0812  0.7703 -0.3860
12376TIP3    H258620   1.450   4.045  13.047 -3.5351  1.1477 -1.2897
12377TIP3   OH258621   6.129   4.468  11.923 -0.6807  0.2645 -0.0404
12377TIP3    H158622   6.136   4.558  11.893 -2.3673  0.8650  1.2165
12377TIP3    H258623   6.220   4.442  11.942 -0.2944  2.2957  1.1951
12378TIP3   OH258624   6.692   5.852   3.161 -0.1349 -0.2028  0.0780
12378TIP3    H158625   6.765   5.831   3.103  0.3227  0.8034  0.2721
12378TIP3    H258626   6.727   5.843   3.249 -0.2246  0.3066  0.1723
12379TIP3   OH258627   4.258   1.976   2.512  0.3497 -0.7354  0.3451
12379TIP3    H158628   4.244   2.052   2.455  0.5598 -0.4132  0.7151
12379TIP3    H258629   4.215   1.904   2.467  0.7679 -0.5515 -0.3675
12380TIP3   OH258630   4.143   4.447  15.110 -1.0336 -0.6137  0.8043
12380TIP3    H158631   4.112   4.367  15.153 -0.6294 -0.0785  2.1557
12380TIP3    H258632   4.081   4.514  15.138 -0.4583 -0.1490  0.9912
12381TIP3   OH258633   5.296   5.807   1.571  0.1128  0.0007  0.1005
12381TIP3    H158634   5.339   5.885   1.604  1.7798 -0.7005 -0.2776
12381TIP3    H258635   5.297   5.817   1.476  0.5515 -0.5621  0.0358
12382TIP3   OH258636   4.474   3.492   5.759 -0.2857 -0.2945  0.4324
12382TIP3    H158637   4.402   3.555   5.755  0.1377  0.1623 -0.3827
12382TIP3    H258638   4.535   3.522   5.691 -0.8187 -2.4972 -1.1097
12383TIP3   OH258639   4.994   6.598  16.525  0.2450 -0.0685  0.6701
12383TIP3    H158640   4.915   6.640  16.559 -0.1067 -1.2082  1.3048
12383TIP3    H258641   4.998   6.626  16.433  0.3769  1.8253  1.2124
12384TIP3   OH258642   0.467   5.040  17.105 -0.3828 -0.3537 -0.3006
12384TIP3    H158643   0.507   5.095  17.172  0.5536 -0.6672 -0.5833
12384TIP3    H258644   0.480   4.950  17.137 -1.6702 -0.4449  0.0372
12385TIP3   OH258645   3.724   5.957   1.655  0.0790 -0.3544  0.3658
12385TIP3    H158646   3.719   5.923   1.744 -1.5584 -0.1964  0.3546
12385TIP3    H258647   3.642   6.005   1.642  0.8977  0.8296 -0.7484
12386TIP3   OH258648   6.465   3.901  13.193 -0.1972  0.0365 -0.0307
12386TIP3    H158649   6.376   3.892  13.160  0.0307 -0.5359 -0.5139
12386TIP3    H258650   6.500   3.812  13.193 -0.0249  0.0915  1.3164
12387TIP3   OH258651   1.255   2.572  14.617 -0.0113  0.2527 -0.5203
12387TIP3    H158652   1.202   2.638  14.661 -1.0834 -1.4033  0.7850
12387TIP3    H258653   1.332   2.620  14.586 -1.3818  2.3604 -0.8669
12388TIP3   OH258654   0.178   4.370  13.870 -0.5253 -0.2736  0.0200
12388TIP3    H158655   0.133   4.362  13.786 -0.5421 -2.5463  0.1662
12388TIP3    H258656   0.270   4.355  13.849 -0.2533  1.0589  0.1784
12389TIP3   OH258657   0.695   1.745   5.691  0.5961  0.6745  0.3272
12389TIP3    H158658   0.737   1.666   5.724 -1.0204  0.3320  1.6803
12389TIP3    H258659   0.627   1.714   5.631  1.2317  1.1556 -0.6798
12390TIP3   OH258660   1.596   4.680   5.126  0.2649  0.1978  0.2716
12390TIP3    H158661   1.591   4.772   5.102  1.9504  0.3602  0.4471
12390TIP3    H258662   1.680   4.671   5.171 -0.8787 -0.9517  2.3449
12391TIP3   OH258663   5.366   1.972   1.671  0.1382 -0.4237 -0.0125
12391TIP3    H158664   5.326   2.022   1.600 -0.2193 -2.4506 -1.3014
12391TIP3    H258665   5.458   1.967   1.647  0.0381 -1.0087 -0.2906
12392TIP3   OH258666   3.905   0.760   0.231 -0.4023  0.1925 -0.0385
12392TIP3    H158667   3.904   0.683   0.175 -0.6516  0.2178 -0.0716
12392TIP3    H258668   3.997   0.773   0.254 -0.1505  0.8658 -1.3715
12393TIP3   OH258669   3.623   5.074  12.184  0.4475  0.2087 -0.4029
12393TIP3    H158670   3.531   5.085  12.158  0.8221  0.0976 -1.8302
12393TIP3    H258671   3.633   5.132  12.260 -0.4144  1.4041 -1.1625
12394TIP3   OH258672   1.450   3.483  14.699  0.8299 -0.8980  0.1482
12394TIP3    H158673   1.379   3.421  14.680  2.6259 -2.6478 -1.1673
12394TIP3    H258674   1.492   3.498  14.614  0.6434  1.9907  0.4564
12395TIP3   OH258675   4.118   5.253  14.411 -0.2513 -0.0438  0.4041
12395TIP3    H158676   4.101   5.186  14.345  1.5795 -0.2877  0.1414
12395TIP3    H258677   4.109   5.336  14.364  0.4043 -0.1990 -0.0082
12396TIP3   OH258678   2.794   3.355  15.834  0.1027  0.6095 -0.2631
12396TIP3    H158679   2.889   3.347  15.830  0.1987 -2.9666  2.8561
12396TIP3    H258680   2.762   3.271  15.800 -1.6670  0.5452  1.3750
12397TIP3   OH258681   2.930   2.328   5.728  0.1413  0.1661  0.1677
12397TIP3    H158682   2.979   2.268   5.671 -0.2925  0.2931 -0.3378
12397TIP3    H258683   2.872   2.375   5.669 -0.0731  0.5365  0.6741
12398TIP3   OH258684   0.871   0.568   0.450 -0.3278 -0.5250  0.0273
12398TIP3    H158685   0.919   0.630   0.505 -0.8524 -0.1679  0.0881
12398TIP3    H258686   0.780   0.577   0.477 -0.8129  0.6268 -1.7794
12399TIP3   OH258687   5.380   5.657  13.412  0.3450 -0.2451 -0.0611
12399TIP3    H158688   5.437   5.720  13.455  1.0954 -0.7383 -0.3187
12399TIP3    H258689   5.433   5.578  13.402 -0.9042 -1.3129  1.2159
12400TIP3   OH258690   5.621   5.798   4.565  0.4144 -0.1817  0.3666
12400TIP3    H158691   5.529   5.824   4.572  0.7902  0.8591  1.8885
12400TIP3    H258692   5.662   5.872   4.520  0.6375 -0.3551  0.2867
12401TIP3   OH258693   1.999   6.489   0.248  0.4735 -0.3208 -0.1114
12401TIP3    H158694   1.946   6.478   0.169  1.6049  0.0948 -0.9577
12401TIP3    H258695   2.089   6.488   0.217  0.9302  0.4658  1.0974
12402TIP3   OH258696   3.037   0.574   1.588  0.0466 -0.1339  0.3523
12402TIP3    H158697   3.096   0.508   1.624 -2.5406 -2.5531  0.5050
12402TIP3    H258698   2.955   0.527   1.572 -0.8935  2.2550 -2.9330
12403TIP3   OH258699   2.698   1.823   3.153  0.3555  0.4939 -0.0834
12403TIP3    H158700   2.683   1.743   3.203 -0.9129 -0.2267 -1.5210
12403TIP3    H258701   2.679   1.894   3.214 -0.7329 -0.3500  0.5860
12404TIP3   OH258702   2.284   2.309  12.029  0.0419 -0.0168 -0.0680
12404TIP3    H158703   2.246   2.390  11.995  1.7733  1.6893  1.7778
12404TIP3    H258704   2.213   2.246  12.027 -1.7085  1.8776 -0.4893
12405TIP3   OH258705   6.602   4.052  10.584 -0.7281  0.3801  0.1372
12405TIP3    H158706   6.673   4.049  10.648 -1.9264 -3.3618  1.5806
12405TIP3    H258707   6.643   4.024  10.502 -0.4428 -2.0070  1.0130
12406TIP3   OH258708   0.459   4.074  14.154  0.5723  0.8503 -0.2536
12406TIP3    H158709   0.374   4.101  14.187  0.2438  0.9275 -1.1234
12406TIP3    H258710   0.522   4.103  14.220 -0.2649 -1.6274  1.7871
12407TIP3   OH258711   2.291   3.969   0.147  0.8009  0.1486 -0.5942
12407TIP3    H158712   2.338   3.927   0.075  0.1331 -0.8867 -0.4364
12407TIP3    H258713   2.201   3.979   0.115  0.3028 -1.0240  0.3532
12408TIP3   OH258714   4.884   0.160   5.749  0.0250  0.7929 -0.2524
12408TIP3    H158715   4.834   0.179   5.828  0.9488  3.2540 -0.1800
12408TIP3    H258716   4.882   0.064   5.742 -2.1833  0.6414  1.3241
12409TIP3   OH258717   4.666   2.548   5.861 -0.1058 -0.0123 -0.1145
12409TIP3    H158718   4.719   2.615   5.904 -1.8753  0.6242  1.1731
12409TIP3    H258719   4.692   2.552   5.769  0.7196  1.5470  0.1604
12410TIP3   OH258720   2.737   2.554  15.909 -0.3730  0.0130 -0.1870
12410TIP3    H158721   2.742   2.464  15.879  1.5460  0.2623 -0.7662
12410TIP3    H258722   2.758   2.550  16.002 -1.1771 -0.2146 -0.0089
12411TIP3   OH258723   4.543   1.348   2.502  0.3758  1.2212  0.3985
12411TIP3    H158724   4.539   1.434   2.461  0.0715  0.1657 -1.9945
12411TIP3    H258725   4.595   1.295   2.441 -0.3059 -0.5384  1.2712
12412TIP3   OH258726   2.185   5.883  11.929  0.4359 -0.1999 -0.9351
12412TIP3    H158727   2.279   5.904  11.932  0.3066  0.3668  2.2353
12412TIP3    H258728   2.145   5.960  11.889  1.1434  0.3730 -0.5678
12413TIP3   OH258729   1.243   3.313  11.385  0.1695  0.1839  0.6413
12413TIP3    H158730   1.239   3.235  11.329  0.7522  0.5948  0.0157
12413TIP3    H258731   1.151   3.332  11.404  0.0384 -2.0335  2.7960
12414TIP3   OH258732   1.525   5.557   3.960 -0.0028 -0.0462  0.3015
12414TIP3    H158733   1.485   5.482   4.003  0.5750  0.5799  2.0297
12414TIP3    H258734   1.538   5.621   4.030  1.7643  0.7062 -0.6374
12415TIP3   OH258735   0.057   1.847   2.549  0.0963  0.3179 -0.0796
12415TIP3    H158736   0.061   1.822   2.457  0.7932 -1.8235  0.4628
12415TIP3    H258737   0.120   1.917   2.558  2.3212 -1.4886 -0.7045
12416TIP3   OH258738   6.707   4.179   6.032  0.0888  0.7033  0.0567
12416TIP3    H158739   6.770   4.249   6.045  0.9954 -0.2178  0.8446
12416TIP3    H258740   6.688   4.147   6.120 -0.3145 -0.0238 -0.2786
12417TIP3   OH258741   1.720   2.477   0.564  0.1687 -0.0363 -0.0461
12417TIP3    H158742   1.775   2.440   0.633  0.2132  1.2383  0.6300
12417TIP3    H258743   1.748   2.569   0.557 -1.2328  0.3906 -0.3301
12418TIP3   OH258744   0.103   2.497   0.767 -0.5989  0.2172 -0.1234
12418TIP3    H158745   0.054   2.481   0.848 -0.2122  2.1351  0.5309
12418TIP3    H258746   0.118   2.410   0.731 -1.8374 -0.6059  1.2317
12419TIP3   OH258747   2.104   2.600   0.235  0.1857 -0.3256 -0.1844
12419TIP3    H158748   2.085   2.608   0.141  0.5932  0.3860 -0.2141
12419TIP3    H258749   2.186   2.551   0.238  0.9042  0.8286 -0.2743
12420TIP3   OH258750   1.121   5.164  14.408  0.3255 -0.3216  0.5806
12420TIP3    H158751   1.138   5.254  14.381 -4.2856  1.1018  1.4648
12420TIP3    H258752   1.067   5.127  14.337  0.0116 -1.4820  1.3861
12421TIP3   OH258753   0.649   3.848  16.544 -0.1843  0.2444 -0.0359
12421TIP3    H158754   0.555   3.846  16.526 -0.3805  2.1203  0.5547
12421TIP3    H258755   0.671   3.757  16.568 -1.9747 -0.0924  0.4671
12422TIP3   OH258756   4.984   2.490  14.696  0.1346  0.0087 -0.0011
12422TIP3    H158757   5.047   2.560  14.710  0.8090 -0.3028 -1.2723
12422TIP3    H258758   5.032   2.425  14.644 -1.0925 -0.4307 -0.6268
12423TIP3   OH258759   5.492   1.430   2.722  0.0422 -0.3244  0.2783
12423TIP3    H158760   5.450   1.504   2.767 -1.3768 -1.2488  0.5296
12423TIP3    H258761   5.579   1.425   2.761 -0.4980  0.0615  1.6058
12424TIP3   OH258762   4.197   6.062   0.851  0.6546 -0.5043  0.6958
12424TIP3    H158763   4.171   6.045   0.942 -0.8088 -1.4737  0.1332
12424TIP3    H258764   4.199   5.975   0.810 -1.6598  0.1036 -0.9171
12425TIP3   OH258765   5.654   2.446  13.746 -0.4457  0.2750 -0.0961
12425TIP3    H158766   5.619   2.525  13.705  0.1529  0.8602  0.4907
12425TIP3    H258767   5.672   2.472  13.836  0.5191 -0.2973 -0.1069
12426TIP3   OH258768   6.469   1.043   2.256  0.0467  0.5575 -0.2059
12426TIP3    H158769   6.498   0.976   2.194 -1.0611 -0.2598  0.1390
12426TIP3    H258770   6.388   1.077   2.219  0.2934  1.3209 -0.0752
12427TIP3   OH258771   2.702   0.439   5.129  0.4377 -0.2754  0.0707
12427TIP3    H158772   2.744   0.518   5.162  1.3017 -0.2435 -1.0513
12427TIP3    H258773   2.774   0.387   5.093 -0.1855 -1.3431  0.3267
12428TIP3   OH258774   5.944   2.657  14.174  0.3009 -0.0103  0.1717
12428TIP3    H158775   5.974   2.748  14.180  0.1826  0.1277 -1.0484
12428TIP3    H258776   6.010   2.613  14.120 -0.2269 -0.3693 -0.1911
12429TIP3   OH258777   2.967   5.015  15.795  0.5374 -0.0072 -0.5468
12429TIP3    H158778   3.007   4.970  15.721 -0.6499  0.2424 -1.3695
12429TIP3    H258779   3.038   5.065  15.834  1.4347 -1.0423 -0.8135
12430TIP3   OH258780   4.400   6.248  14.034 -0.0973  0.6127  0.5985
12430TIP3    H158781   4.454   6.326  14.046 -0.2123  0.7582  0.1747
12430TIP3    H258782   4.348   6.266  13.956  0.6275 -0.3031 -0.1253
12431TIP3   OH258783   6.030   5.980   5.916 -0.8632 -0.4217 -0.1971
12431TIP3    H158784   6.021   5.940   6.002  0.8199 -0.2166  0.1145
12431TIP3    H258785   6.006   6.071   5.929  1.7908  0.2238  0.6971
12432TIP3   OH258786   3.194   0.386   1.717  0.2108 -0.2247  0.2341
12432TIP3    H158787   3.272   0.415   1.764  2.0805 -3.1040 -0.8283
12432TIP3    H258788   3.169   0.304   1.759 -0.2023 -1.0273 -1.4683
12433TIP3   OH258789   1.739   6.669   4.967  0.4284 -0.7625  0.2669
12433TIP3    H158790   1.827   6.700   4.947 -0.2244  0.4006 -0.9234
12433TIP3    H258791   1.704   6.733   5.030 -0.0011 -0.5311 -0.2051
12434TIP3   OH258792   4.486   3.352  11.994 -0.8296  0.6834  0.4366
12434TIP3    H158793   4.403   3.362  11.947  0.2758  0.3844 -1.7179
12434TIP3    H258794   4.532   3.434  11.979 -0.4419  0.5699  0.9941
12435TIP3   OH258795   0.453   1.578  14.747  0.4979 -0.4137 -0.5974
12435TIP3    H158796   0.367   1.579  14.790  0.3044 -0.0987 -0.9864
12435TIP3    H258797   0.511   1.624  14.808  0.1911  0.1681 -0.7449
12436TIP3   OH258798   2.757   0.438  14.480  0.0271 -0.0458  0.6062
12436TIP3    H158799   2.843   0.405  14.504  0.4080  0.5541  0.0910
12436TIP3    H258800   2.710   0.361  14.446  0.5117 -0.2843  0.4763
12437TIP3   OH258801   4.678   6.261   6.539  0.0765 -0.2624 -0.2327
12437TIP3    H158802   4.768   6.290   6.555 -0.0212  0.3964 -0.8464
12437TIP3    H258803   4.624   6.335   6.566 -0.3097 -0.7828  0.4623
12438TIP3   OH258804   3.634   5.034  16.305 -0.2824 -0.4481  0.6437
12438TIP3    H158805   3.701   4.967  16.317  0.6802  0.5920  1.3137
12438TIP3    H258806   3.599   5.049  16.393 -3.0655 -2.5789  0.0179
12439TIP3   OH258807   4.979   5.770  11.624 -0.0241 -0.1453  0.4051
12439TIP3    H158808   4.938   5.767  11.538  1.0280 -1.3421 -0.0805
12439TIP3    H258809   4.906   5.761  11.686 -0.5238 -2.8759 -0.4415
12440TIP3   OH258810   2.034   2.094  15.002 -0.8100  0.0403  0.0421
12440TIP3    H158811   1.981   2.025  14.965 -0.4439  0.2702 -0.9424
12440TIP3    H258812   2.097   2.116  14.933 -1.1224  1.5679  0.1953
12441TIP3   OH258813   2.479   0.676  15.849  0.0729  0.3965 -0.5106
12441TIP3    H158814   2.429   0.641  15.776 -0.4617  1.3613 -0.6285
12441TIP3    H258815   2.570   0.661  15.825 -0.1353 -0.7787 -0.6042
12442TIP3   OH258816   3.387   5.618  13.984  0.2999 -0.1246  0.0596
12442TIP3    H158817   3.361   5.705  14.012 -0.8680  0.1332 -1.6052
12442TIP3    H258818   3.428   5.631  13.898  2.0264 -1.0243  0.7019
12443TIP3   OH258819   5.347   6.013  16.926 -0.3209 -0.1111 -0.1082
12443TIP3    H158820   5.396   5.973  16.854 -1.4130 -1.9539  0.1079
12443TIP3    H258821   5.263   5.967  16.926 -1.1606  1.3411  1.0079
12444TIP3   OH258822   0.947   6.045  11.792  0.2630 -0.5217 -0.6416
12444TIP3    H158823   0.887   5.985  11.836 -0.9016  1.4493  0.5918
12444TIP3    H258824   1.034   6.013  11.815 -0.3190 -1.8992 -0.2735
12445TIP3   OH258825   5.824   2.680   0.245  0.4648 -0.0361  0.0229
12445TIP3    H158826   5.883   2.613   0.281  1.0661 -0.1154 -1.0754
12445TIP3    H258827   5.854   2.692   0.155 -1.3218 -0.2087 -0.6299
12446TIP3   OH258828   6.081   5.866  12.909 -0.1010  0.4265 -0.4057
12446TIP3    H158829   6.169   5.903  12.909  0.5177 -0.8099  2.3870
12446TIP3    H258830   6.090   5.781  12.867  0.0194  0.3803 -0.2875
12447TIP3   OH258831   2.521   4.501  13.079 -0.5272  0.2177 -0.2669
12447TIP3    H158832   2.510   4.542  13.165 -1.8463 -1.2062  0.2914
12447TIP3    H258833   2.475   4.559  13.019 -0.6545  0.5983  0.1886
12448TIP3   OH258834   2.266   3.085   4.999  0.0990  0.0261  0.1372
12448TIP3    H158835   2.324   3.038   4.939 -0.5036  2.2449 -2.3395
12448TIP3    H258836   2.325   3.124   5.064  0.7866 -2.2524  0.9811
12449TIP3   OH258837   2.508   2.164  17.243 -0.3037  0.3379  0.0215
12449TIP3    H158838   2.422   2.123  17.245 -0.7019  1.1667  0.2351
12449TIP3    H258839   2.537   2.155  17.153 -0.0513 -1.0632  0.2174
12450TIP3   OH258840   0.717   2.345  16.158  0.8164  0.1377  0.7043
12450TIP3    H158841   0.703   2.273  16.097  1.1000  1.1689 -0.6216
12450TIP3    H258842   0.812   2.350  16.168  0.8403  0.7385  0.2526
12451TIP3   OH258843   1.865   5.323  17.090 -0.5841 -0.7562  0.5134
12451TIP3    H158844   1.809   5.366  17.025  0.6808  0.0077 -0.1135
12451TIP3    H258845   1.830   5.234  17.096 -2.9427  0.1554  1.4591
12452TIP3   OH258846   3.448   2.281   1.817 -0.0201  0.2091 -0.2953
12452TIP3    H158847   3.385   2.322   1.876 -0.3748  0.4814 -0.8623
12452TIP3    H258848   3.533   2.294   1.860 -0.3538 -0.3135  0.5575
12453TIP3   OH258849   3.447   5.748   2.631  0.3693  0.6216  0.4220
12453TIP3    H158850   3.399   5.829   2.613  0.0365  0.5105  0.7870
12453TIP3    H258851   3.430   5.693   2.554 -1.1038  0.1223  1.0629
12454TIP3   OH258852   4.736   2.939   5.940  0.2680 -0.2784  0.2904
12454TIP3    H158853   4.720   2.856   5.986 -0.4130 -0.6175 -0.5098
12454TIP3    H258854   4.659   2.950   5.884 -0.4201  1.7013  1.5146
12455TIP3   OH258855   6.399   0.599  14.279 -0.3113  0.0085  0.2407
12455TIP3    H158856   6.464   0.566  14.341  0.2249 -0.0783 -0.3528
12455TIP3    H258857   6.320   0.549  14.298 -0.2888  0.2894  1.1389
12456TIP3   OH258858   0.162   0.862   4.118  0.2898 -0.2831  0.1795
12456TIP3    H158859   0.229   0.795   4.128  0.3913 -0.2181 -0.0687
12456TIP3    H258860   0.204   0.932   4.068  0.6207  0.5813  1.6049
12457TIP3   OH258861   3.437   1.369   0.046  0.7017  0.3072 -0.0892
12457TIP3    H158862   3.365   1.306   0.041 -1.0383  2.0963  1.0931
12457TIP3    H258863   3.460   1.371   0.139  0.3541  1.7711 -0.0142
12458TIP3   OH258864   1.465   2.714  13.237 -0.3937 -0.2015 -0.1143
12458TIP3    H158865   1.415   2.767  13.299 -1.4793  0.2481 -1.3120
12458TIP3    H258866   1.508   2.648  13.290  1.0935  1.9101  1.4611
12459TIP3   OH258867   2.380   3.429  13.219 -0.0050  0.2020  0.3020
12459TIP3    H158868   2.424   3.501  13.174 -2.1874  0.5821 -1.3776
12459TIP3    H258869   2.353   3.370  13.149  2.2642 -2.6931  1.6650
12460TIP3   OH258870   0.138   5.253   3.315  0.4856  0.1866  0.1834
12460TIP3    H158871   0.083   5.280   3.389  1.3825  1.5446  0.3994
12460TIP3    H258872   0.209   5.318   3.313 -0.1248  0.9122 -2.5830
12461TIP3   OH258873   0.426   4.256   5.946  0.3073  0.6203 -0.0887
12461TIP3    H158874   0.464   4.343   5.960 -0.4125  0.9363 -0.1014
12461TIP3    H258875   0.422   4.217   6.033 -1.8211  1.6216  0.3199
12462TIP3   OH258876   1.342   2.106  13.582 -0.1937  0.5032 -0.5477
12462TIP3    H158877   1.360   2.013  13.571 -0.8587  0.5168 -1.9614
12462TIP3    H258878   1.429   2.148  13.579  0.1817 -0.1179  0.9348
12463TIP3   OH258879   1.045   4.850   5.126  0.0386  0.0824  0.0380
12463TIP3    H158880   1.005   4.839   5.212  0.7826  0.8948  0.5031
12463TIP3    H258881   1.061   4.944   5.119  0.5223 -0.0493 -0.7452
12464TIP3   OH258882   1.366   6.322   4.664  0.3661 -0.4495 -0.6854
12464TIP3    H158883   1.420   6.255   4.622 -0.7332 -0.2095 -2.5758
12464TIP3    H258884   1.298   6.342   4.600 -1.0268  0.4237  0.9840
12465TIP3   OH258885   0.508   0.028  14.059 -0.1055  0.1161 -0.4324
12465TIP3    H158886   0.425   0.023  14.011 -0.4580  0.2256  0.1460
12465TIP3    H258887   0.564  -0.037  14.017  0.0477  1.1062 -1.8237
12466TIP3   OH258888   1.658   4.235  12.508 -0.0840  0.1064 -0.1170
12466TIP3    H158889   1.692   4.323  12.489  0.6925 -0.3819 -1.0497
12466TIP3    H258890   1.583   4.225  12.450 -0.7084  0.4653  0.6051
12467TIP3   OH258891   5.261   2.299   2.622  0.0962 -0.2045 -0.0249
12467TIP3    H158892   5.213   2.245   2.560  0.9446  0.3465 -1.2059
12467TIP3    H258893   5.353   2.288   2.597  0.4680  0.0360  1.1494
12468TIP3   OH258894   5.366   3.561   4.203  0.0809 -0.1132 -0.0533
12468TIP3    H158895   5.307   3.486   4.196 -0.6262  0.4244  0.0797
12468TIP3    H258896   5.408   3.551   4.288 -1.4676  0.6771  0.8370
12469TIP3   OH258897   3.220   5.595   5.865 -0.6618 -0.1868 -0.2240
12469TIP3    H158898   3.190   5.623   5.951 -0.1194  1.0651 -0.4156
12469TIP3    H258899   3.169   5.516   5.846 -1.7182  0.2459  0.6851
12470TIP3   OH258900   1.714   1.739  12.167 -0.6038  0.4246  0.5491
12470TIP3    H158901   1.717   1.776  12.079  0.4212 -2.5165 -0.7907
12470TIP3    H258902   1.637   1.681  12.165 -0.5617  0.3213  1.6048
12471TIP3   OH258903   3.951   1.080   1.551 -0.1951  0.3315 -0.0997
12471TIP3    H158904   3.971   0.989   1.574 -1.8922  0.1793  0.9572
12471TIP3    H258905   4.032   1.114   1.513  1.0286 -1.0906  1.1202
12472TIP3   OH258906   1.926   2.947   4.106  0.0612 -0.5937  0.0194
12472TIP3    H158907   2.004   2.891   4.110  0.4261 -0.0406  3.0568
12472TIP3    H258908   1.853   2.886   4.113  0.3418 -0.9189  0.1818
12473TIP3   OH258909   2.680   6.063  12.772  0.1730 -0.1555 -0.9227
12473TIP3    H158910   2.772   6.085  12.759  0.2360 -0.3753 -0.8505
12473TIP3    H258911   2.632   6.129  12.721  0.3077  0.9053  0.2670
12474TIP3   OH258912   3.818   4.476   5.108  0.3660  0.2843 -0.5262
12474TIP3    H158913   3.871   4.435   5.176 -1.7025  0.2344  1.1589
12474TIP3    H258914   3.802   4.565   5.140 -1.0131  0.1201 -0.6716
12475TIP3   OH258915   5.434   4.695  11.804 -0.2496  0.8090 -0.4411
12475TIP3    H158916   5.476   4.777  11.829 -0.2353  0.9502 -0.9043
12475TIP3    H258917   5.453   4.686  11.710  0.9902 -0.4598 -0.1051
12476TIP3   OH258918   6.601   2.578   5.200 -0.1765 -0.4181 -0.4673
12476TIP3    H158919   6.518   2.615   5.170 -1.2894 -2.3833  0.0807
12476TIP3    H258920   6.595   2.485   5.180  2.3135 -0.4726 -1.2932
12477TIP3   OH258921   5.389   3.235   1.600  0.4551 -0.6807  0.3166
12477TIP3    H158922   5.414   3.276   1.517  2.8878 -0.7371  0.9593
12477TIP3    H258923   5.329   3.298   1.640 -0.2702 -0.3693 -1.1833
12478TIP3   OH258924   5.743   6.030   5.284 -0.7294  0.0437  0.0639
12478TIP3    H158925   5.785   5.983   5.356  0.6745 -0.1985 -0.8710
12478TIP3    H258926   5.700   5.962   5.232 -1.5460  0.1918  0.5352
12479TIP3   OH258927   2.620   0.656  16.434 -0.5118  0.4456  0.0616
12479TIP3    H158928   2.677   0.697  16.499 -0.3817  0.6020 -0.1502
12479TIP3    H258929   2.557   0.725  16.412 -0.1783  0.5988 -0.4338
12480TIP3   OH258930   6.481   1.533  13.356 -0.0509 -0.4100 -0.0914
12480TIP3    H158931   6.433   1.476  13.416  2.2323 -2.2579  0.1292
12480TIP3    H258932   6.442   1.516  13.270 -0.4143 -1.1657  0.2097
12481TIP3   OH258933   5.957   1.623   2.790 -0.1852  0.2736  0.1788
12481TIP3    H158934   5.863   1.629   2.776  0.1190 -1.0061 -3.5575
12481TIP3    H258935   5.994   1.688   2.731  1.3087 -0.2816  0.4607
12482TIP3   OH258936   5.937   2.509  11.554 -0.1179  0.1980 -0.5140
12482TIP3    H158937   5.991   2.567  11.609 -1.5748  1.1658 -0.0542
12482TIP3    H258938   5.956   2.537  11.464  0.3448  0.3506 -0.3711
12483TIP3   OH258939   3.472   0.380  13.905 -0.3439 -0.3847  0.2560
12483TIP3    H158940   3.545   0.415  13.855 -1.3038 -1.1536 -1.7989
12483TIP3    H258941   3.425   0.456  13.937  0.3187  0.1257  0.0309
12484TIP3   OH258942   6.095   6.497  12.588  0.0428  0.5886  0.4502
12484TIP3    H158943   6.017   6.525  12.636 -0.2928  0.5423 -0.0595
12484TIP3    H258944   6.092   6.548  12.507  0.2056  0.1282  0.1532
12485TIP3   OH258945   5.793   1.936   3.397 -0.5221  1.0096 -0.1696
12485TIP3    H158946   5.699   1.947   3.386 -0.9174 -0.8691  0.8804
12485TIP3    H258947   5.802   1.870   3.465  1.5876  1.9112  0.5184
12486TIP3   OH258948   1.264   6.081  17.017 -0.3889  0.2622  0.3267
12486TIP3    H158949   1.260   6.049  16.927 -0.9714  1.3587 -0.0639
12486TIP3    H258950   1.356   6.071  17.042 -0.0830  0.5505 -0.6325
12487TIP3   OH258951   3.283   2.011   6.781 -0.6177  0.7308  0.4524
12487TIP3    H158952   3.364   2.002   6.832 -0.2022 -0.0346 -0.3242
12487TIP3    H258953   3.300   2.082   6.720 -0.5648  0.6438  0.3649
12488TIP3   OH258954   3.765   3.750   0.481 -0.0257 -0.4018 -0.0144
12488TIP3    H158955   3.697   3.776   0.543 -1.1282  2.9541 -2.2698
12488TIP3    H258956   3.733   3.669   0.442 -1.5067 -0.1977  0.7149
12489TIP3   OH258957   0.654   6.575  11.546  0.1178  0.1372 -0.1852
12489TIP3    H158958   0.704   6.655  11.564 -0.8141  0.6200  0.3084
12489TIP3    H258959   0.666   6.521  11.625  0.4048 -0.0414 -0.3468
12490TIP3   OH258960   4.604   4.261   4.801  0.4295  0.9567  0.1723
12490TIP3    H158961   4.666   4.191   4.782 -2.5198 -1.6200 -0.8839
12490TIP3    H258962   4.580   4.249   4.893  0.0025  0.6177  0.0200
12491TIP3   OH258963   6.561   0.218   5.203  0.7445 -0.4077  0.1393
12491TIP3    H158964   6.560   0.184   5.113  1.1183 -0.1521  0.0331
12491TIP3    H258965   6.639   0.273   5.206  1.6298 -1.6533  1.0775
12492TIP3   OH258966   3.359   6.374   0.614  0.6995  0.1270  0.0308
12492TIP3    H158967   3.347   6.302   0.551  0.4173 -0.4951  0.7801
12492TIP3    H258968   3.450   6.365   0.643  2.0544  2.5878 -2.8851
12493TIP3   OH258969   4.631   5.287  14.095 -0.3502 -0.2508 -0.3839
12493TIP3    H158970   4.665   5.198  14.084 -1.9968 -1.1769  1.2687
12493TIP3    H258971   4.671   5.318  14.176  1.4491  1.2195 -1.7465
12494TIP3   OH258972   1.505   3.869  13.615 -0.3124 -0.2460  0.7608
12494TIP3    H158973   1.456   3.795  13.651  0.0563 -0.9170 -0.0756
12494TIP3    H258974   1.518   3.847  13.522  0.9715  0.2268  0.7997
12495TIP3   OH258975   2.778   1.597   2.176  0.4437 -0.4134  0.8330
12495TIP3    H158976   2.861   1.555   2.156  0.8902  0.8262  0.0008
12495TIP3    H258977   2.801   1.680   2.216 -0.3588  0.3720 -0.2781
12496TIP3   OH258978   4.876   4.664   1.081 -0.1485  0.4867  0.0696
12496TIP3    H158979   4.885   4.612   1.000  0.6157  1.4285 -0.4635
12496TIP3    H258980   4.964   4.698   1.098  0.0073 -0.7513  2.0490
12497TIP3   OH258981   1.186   3.419   1.238 -0.1865 -0.0757 -0.6767
12497TIP3    H158982   1.178   3.328   1.208  1.6372 -0.3009 -0.5540
12497TIP3    H258983   1.113   3.430   1.299 -0.0678 -1.6544 -0.2044
12498TIP3   OH258984   1.891   5.048   3.091 -0.4156  0.0038  0.2288
12498TIP3    H158985   1.924   5.138   3.099 -0.9636  0.2701 -0.3457
12498TIP3    H258986   1.796   5.058   3.096 -0.6548 -0.2164 -2.3221
12499TIP3   OH258987   3.081   2.825   2.678  0.3848 -0.1918 -0.3915
12499TIP3    H158988   3.099   2.779   2.596 -2.7156 -0.0560 -1.2627
12499TIP3    H258989   3.052   2.757   2.738  2.4098 -0.2536  0.6155
12500TIP3   OH258990   2.205   5.778  15.825 -0.3093 -0.0055 -0.3471
12500TIP3    H158991   2.154   5.705  15.790 -1.2928  0.2749  0.4656
12500TIP3    H258992   2.160   5.857  15.794 -1.9109  0.2740  2.3899
12501TIP3   OH258993   6.078   6.734   3.060  0.0408 -0.1609 -0.1366
12501TIP3    H158994   6.040   6.788   2.991  1.6351  1.4635  0.1850
12501TIP3    H258995   6.081   6.791   3.137  2.4289 -0.4128  0.0294
12502TIP3   OH258996   6.538   4.309  14.572 -0.2387  0.4105 -0.2283
12502TIP3    H158997   6.463   4.283  14.626 -0.6403 -1.9073 -1.7792
12502TIP3    H258998   6.520   4.272  14.486  1.8761  1.3125 -1.1388
12503TIP3   OH258999   4.054   0.426   1.732  0.1859 -0.2267  0.0867
12503TIP3    H159000   4.105   0.456   1.808 -0.3399 -0.5339  0.5715
12503TIP3    H259001   3.995   0.359   1.768  1.5544 -2.1140 -1.0090
12504TIP3   OH259002   0.852   0.309  12.801  0.0540  0.2808  0.0119
12504TIP3    H159003   0.863   0.325  12.708  2.7500 -3.0329 -0.4524
12504TIP3    H259004   0.941   0.314  12.837 -0.3013 -2.4135  1.5275
12505TIP3   OH259005   3.907   6.668  14.455 -0.2528  0.4928 -0.1090
12505TIP3    H159006   3.841   6.602  14.434 -0.7872  0.9033  0.2362
12505TIP3    H259007   3.972   6.621  14.507 -0.4093  0.1414 -0.2310
12506TIP3   OH259008   5.039   5.364   6.291 -0.5649 -0.1229 -0.8867
12506TIP3    H159009   5.111   5.421   6.268 -0.1743 -1.6092 -3.8050
12506TIP3    H259010   5.080   5.280   6.311 -1.3704 -0.4658 -0.6131
12507TIP3   OH259011   0.334   3.861  10.872 -0.0305  0.0357 -0.0297
12507TIP3    H159012   0.279   3.788  10.902  0.7412 -0.1058  1.1055
12507TIP3    H259013   0.276   3.913  10.816 -2.0122  1.0832  2.7893
12508TIP3   OH259014   6.399   3.218  12.295 -0.3737  0.1336 -0.1681
12508TIP3    H159015   6.415   3.125  12.279  1.7474  0.5078 -0.5264
12508TIP3    H259016   6.380   3.222  12.389  1.5411 -0.4870  0.3062
12509TIP3   OH259017   1.629   4.035  13.917  0.1144  0.3948 -0.2917
12509TIP3    H159018   1.571   3.961  13.935  0.2030  0.6577  1.2739
12509TIP3    H259019   1.583   4.087  13.852 -2.2771  1.4890  2.1091
12510TIP3   OH259020   4.833   2.379   4.411  0.4690 -0.2900  0.3496
12510TIP3    H159021   4.786   2.456   4.441 -0.5239  0.7525 -3.3277
12510TIP3    H259022   4.764   2.312   4.400  0.9042 -0.8555  0.9882
12511TIP3   OH259023   2.204   5.570  14.666  0.2813  0.7561 -0.1975
12511TIP3    H159024   2.151   5.512  14.612  0.2404  0.4833  0.1290
12511TIP3    H259025   2.231   5.515  14.740  2.4406  0.3836 -1.1962
12512TIP3   OH259026   6.369   4.832   2.121 -0.2878  0.3718  0.3873
12512TIP3    H159027   6.336   4.743   2.107  0.5034  0.0035  0.7854
12512TIP3    H259028   6.338   4.882   2.046  0.2871 -0.5403 -0.4687
12513TIP3   OH259029   0.005   1.591   2.945 -0.3859  0.3141  0.4482
12513TIP3    H159030  -0.036   1.604   2.859  0.5355 -2.9135 -0.6275
12513TIP3    H259031  -0.065   1.557   3.000 -0.2526 -0.8905 -0.0839
12514TIP3   OH259032   4.432   2.866   1.681  0.1415  0.2132 -0.4385
12514TIP3    H159033   4.380   2.942   1.707  0.2493 -0.0560  0.6128
12514TIP3    H259034   4.514   2.902   1.649 -0.3319  0.5975 -1.2434
12515TIP3   OH259035   5.418   4.048   5.943  0.3305  0.6656 -0.6029
12515TIP3    H159036   5.414   4.143   5.932  1.2617  0.4848 -3.2972
12515TIP3    H259037   5.505   4.025   5.912 -0.0825 -1.1355 -0.4920
12516TIP3   OH259038   3.338   1.516  16.280  0.1828  0.4025  0.3831
12516TIP3    H159039   3.432   1.532  16.286  0.7331 -1.8161 -1.0152
12516TIP3    H259040   3.305   1.587  16.225  0.7494  1.9241  1.9064
12517TIP3   OH259041   0.851   5.803   4.818  0.3120  0.0944 -0.4718
12517TIP3    H159042   0.932   5.835   4.780  1.7258 -1.6437  0.8771
12517TIP3    H259043   0.877   5.767   4.904 -2.1228  0.7696  0.6428
12518TIP3   OH259044   0.965   6.209  15.980 -0.3421  0.1323 -0.0875
12518TIP3    H159045   1.025   6.135  15.989  0.2540  0.8097  2.1227
12518TIP3    H259046   1.004   6.263  15.912  0.2737 -0.6282 -0.3547
12519TIP3   OH259047   5.803   0.856   1.540 -0.5216  0.1395  0.2225
12519TIP3    H159048   5.712   0.878   1.562 -0.4745  1.0247 -0.4215
12519TIP3    H259049   5.810   0.875   1.447  0.4277  0.4226  0.3465
12520TIP3   OH259050   5.773   6.198   5.723  0.0651  0.2815 -0.4724
12520TIP3    H159051   5.724   6.265   5.675 -1.1769 -0.2390  0.0205
12520TIP3    H259052   5.810   6.143   5.655  0.8833  1.2951 -0.8817
12521TIP3   OH259053   0.018   5.811  16.079 -0.0379  0.2371 -0.1025
12521TIP3    H159054  -0.030   5.761  16.145 -1.2460  1.9869  0.4068
12521TIP3    H259055   0.065   5.878  16.128 -0.5281  1.2372 -0.9450
12522TIP3   OH259056   2.774   4.583  16.054  0.2146  0.9283 -0.1900
12522TIP3    H159057   2.816   4.520  16.112 -1.0049 -2.9832 -3.0612
12522TIP3    H259058   2.846   4.620  16.002  0.8048 -0.1106 -0.1452
12523TIP3   OH259059   3.892   1.429  11.447  0.2015 -0.0044 -0.6559
12523TIP3    H159060   3.820   1.370  11.425  0.3056 -1.3841  2.2933
12523TIP3    H259061   3.966   1.396  11.396  0.1343 -2.2432  0.5582
12524TIP3   OH259062   6.282   5.415  14.746  0.2578 -0.3152 -0.2798
12524TIP3    H159063   6.359   5.394  14.800 -0.0057 -0.5760 -0.0012
12524TIP3    H259064   6.209   5.376  14.793 -0.4431  2.2500  0.9151
12525TIP3   OH259065   6.614   3.122   0.192 -0.1717 -0.4411  0.1677
12525TIP3    H159066   6.577   3.077   0.268  0.7561 -0.8369  0.3970
12525TIP3    H259067   6.703   3.146   0.218 -0.1718  0.2882 -0.4531
12526TIP3   OH259068   1.421   6.813   0.255 -0.0701  0.0690  0.5323
12526TIP3    H159069   1.462   6.879   0.311  0.6686  0.1831 -0.1122
12526TIP3    H259070   1.495   6.775   0.207 -0.7554  0.4872 -0.8939
12527TIP3   OH259071   1.103   4.388   1.224  0.1557  0.3482  0.0689
12527TIP3    H159072   1.032   4.414   1.165  0.2955 -0.7584 -0.6178
12527TIP3    H259073   1.149   4.469   1.243 -0.3821  0.8486 -0.6999
12528TIP3   OH259074   5.528   5.901   0.563 -0.0341 -0.3728  0.6828
12528TIP3    H159075   5.599   5.865   0.616  1.2231  0.6417 -0.2554
12528TIP3    H259076   5.571   5.961   0.502 -1.4036 -1.6072 -1.6213
12529TIP3   OH259077   0.006   6.193   5.495 -0.0613  0.2162 -0.3078
12529TIP3    H159078   0.017   6.270   5.440  0.9059 -0.2180 -0.7504
12529TIP3    H259079   0.094   6.156   5.503  0.1697  1.1948  2.9461
12530TIP3   OH259080   4.137   5.525  16.457 -0.1663  0.2627  0.1396
12530TIP3    H159081   4.148   5.514  16.363 -1.1965 -2.1580  0.2226
12530TIP3    H259082   4.225   5.522  16.492  0.1643  0.3363 -0.6628
12531TIP3   OH259083   3.244   0.640   2.633  0.3588  0.7827  0.1414
12531TIP3    H159084   3.240   0.719   2.578  1.4764  1.3731  0.8651
12531TIP3    H259085   3.332   0.642   2.671  0.5206 -0.9980 -0.0676
12532TIP3   OH259086   0.936   2.099  12.992  0.1623 -0.1208  0.0205
12532TIP3    H159087   0.879   2.157  13.042  2.5101  0.6956  1.9199
12532TIP3    H259088   0.960   2.149  12.914 -1.6583 -0.4995 -0.8325
12533TIP3   OH259089   1.146   0.829   1.589 -0.1716  0.3854  0.2373
12533TIP3    H159090   1.062   0.860   1.623  0.4359  0.9229  1.3105
12533TIP3    H259091   1.208   0.898   1.613  0.5758  0.0214 -0.5851
12534TIP3   OH259092   4.053   1.352  15.482 -0.1390  0.0950 -0.0398
12534TIP3    H159093   3.980   1.401  15.443 -0.7949  0.5130  1.6247
12534TIP3    H259094   4.032   1.260  15.462 -0.8253  0.2515 -0.0775
12535TIP3   OH259095   5.444   5.512   4.627 -0.2553 -0.5506  0.3488
12535TIP3    H159096   5.378   5.544   4.565  0.4797  1.2055  0.3972
12535TIP3    H259097   5.403   5.522   4.713  0.7629  2.8271  0.6100
12536TIP3   OH259098   0.988   1.732  15.520  0.0193  0.1293 -0.0336
12536TIP3    H159099   1.013   1.736  15.612  0.6221 -0.8983 -0.1294
12536TIP3    H259100   0.922   1.800  15.509 -0.0871  0.2359  1.1658
12537TIP3   OH259101   5.466   2.762   4.545 -0.4230 -0.7495 -0.4986
12537TIP3    H159102   5.404   2.802   4.607 -0.0703 -0.5130 -0.2902
12537TIP3    H259103   5.544   2.745   4.598  0.2143  0.2817 -1.0758
12538TIP3   OH259104   1.187   4.661   4.867 -0.6329 -0.4212 -0.1267
12538TIP3    H159105   1.103   4.661   4.914  0.1876 -0.5549  1.4074
12538TIP3    H259106   1.236   4.732   4.908 -0.1883  0.0351 -1.4110
12539TIP3   OH259107   5.230   1.783  12.445 -0.2298 -0.4025 -0.5485
12539TIP3    H159108   5.160   1.805  12.383 -0.7291 -2.2843 -0.6993
12539TIP3    H259109   5.233   1.857  12.505 -0.0627  1.2711 -2.5148
12540TIP3   OH259110   1.326   3.925   5.641 -0.1879  0.1321  0.0877
12540TIP3    H159111   1.235   3.910   5.617  0.5229 -0.4667 -2.5823
12540TIP3    H259112   1.325   4.004   5.694 -2.3415 -0.3790  0.8730
12541TIP3   OH259113   6.543   0.396   3.055  0.1846  0.1569  0.0518
12541TIP3    H159114   6.514   0.309   3.027 -0.0222  0.8201 -1.9519
12541TIP3    H259115   6.491   0.415   3.133 -0.8981 -0.8760 -0.4010
12542TIP3   OH259116   5.596   4.210   4.478 -0.5286  0.1336  0.0653
12542TIP3    H159117   5.622   4.180   4.565  1.3020  2.2240  0.3221
12542TIP3    H259118   5.506   4.241   4.489 -0.0019  1.2714  1.5012
12543TIP3   OH259119   5.687   0.617   4.213 -0.2792  0.0164 -0.7637
12543TIP3    H159120   5.616   0.563   4.247  0.5737 -0.7650 -0.1530
12543TIP3    H259121   5.680   0.699   4.262 -1.2382  0.2685 -1.2942
12544TIP3   OH259122   5.400   2.938  11.567  0.5419 -0.1611  0.3214
12544TIP3    H159123   5.490   2.966  11.581  1.1794 -1.5403 -0.7271
12544TIP3    H259124   5.398   2.908  11.476 -1.4665  1.5234 -0.2632
12545TIP3   OH259125   2.149   2.357   4.370 -0.2715 -0.3299 -0.2110
12545TIP3    H159126   2.143   2.451   4.351  2.4947 -0.0006  0.1044
12545TIP3    H259127   2.175   2.317   4.287 -0.9646 -0.7621 -0.2257
12546TIP3   OH259128   6.238   5.075  11.755 -0.0263 -0.3038 -0.2005
12546TIP3    H159129   6.201   4.987  11.759 -0.4070 -0.1889 -1.0153
12546TIP3    H259130   6.324   5.063  11.714  0.3367 -0.4085  0.5644
12547TIP3   OH259131   3.712   4.056   3.775 -0.3976  0.0660 -0.1118
12547TIP3    H159132   3.717   4.076   3.681 -1.7242  0.6299 -0.0936
12547TIP3    H259133   3.753   4.131   3.818  1.6633 -0.9129 -0.2467
12548TIP3   OH259134   4.374   2.362  14.219  0.5450  0.1701  0.3015
12548TIP3    H159135   4.317   2.362  14.143  0.6483  1.0894  0.2073
12548TIP3    H259136   4.460   2.338  14.185  0.3810 -0.4234  0.3050
12549TIP3   OH259137   4.360   6.513   5.813  0.2212 -0.0481  0.1382
12549TIP3    H159138   4.453   6.533   5.809 -0.0353  1.5245 -4.0285
12549TIP3    H259139   4.319   6.597   5.832 -0.3633  0.0179 -1.2514
12550TIP3   OH259140   2.831   4.110   1.689 -0.5632 -0.1617  0.2230
12550TIP3    H159141   2.791   4.074   1.609 -0.5211  1.1080 -0.3962
12550TIP3    H259142   2.812   4.204   1.685 -0.3670 -0.0424  1.6125
12551TIP3   OH259143   4.652   5.071  15.840 -0.1944 -0.1610 -0.1590
12551TIP3    H159144   4.717   5.088  15.772  0.7241 -3.3709 -0.2406
12551TIP3    H259145   4.569   5.065  15.793 -0.4812  2.7418 -0.2101
12552TIP3   OH259146   2.747   0.685  15.767 -0.1571  0.1484  0.1087
12552TIP3    H159147   2.737   0.631  15.845  0.3194 -0.6387 -0.3629
12552TIP3    H259148   2.742   0.623  15.694  0.1850  0.7671 -0.4526
12553TIP3   OH259149   4.576   4.419   0.160 -0.5820 -0.1714  0.0245
12553TIP3    H159150   4.497   4.372   0.135 -0.6511 -1.1565  1.8866
12553TIP3    H259151   4.647   4.356   0.144 -0.4862 -0.2956  0.8881
12554TIP3   OH259152   4.897   2.330   3.649 -0.3509  0.0002  0.5192
12554TIP3    H159153   4.871   2.413   3.609 -0.0533  0.6104  1.5432
12554TIP3    H259154   4.950   2.356   3.724  0.5094 -1.1475  0.3248
12555TIP3   OH259155   4.933   6.197   2.064  0.2271 -0.0554  0.0613
12555TIP3    H159156   4.894   6.171   1.981  1.3245  4.9902 -2.4570
12555TIP3    H259157   4.859   6.227   2.117 -0.2372 -0.6765 -0.2247
12556TIP3   OH259158   1.496   6.084   4.592  0.0562  0.0590 -0.1717
12556TIP3    H159159   1.508   6.017   4.659  2.4773  0.5071 -0.0387
12556TIP3    H259160   1.564   6.065   4.527 -1.1057  0.6760 -1.6182
12557TIP3   OH259161   3.174   4.738  14.635  0.5029  0.5390  0.4871
12557TIP3    H159162   3.191   4.673  14.567 -0.7419  0.8160 -0.1247
12557TIP3    H259163   3.234   4.715  14.706  0.5954 -0.8310 -0.0006
12558TIP3   OH259164   4.589   1.259  17.302 -0.0322  0.3416  0.1573
12558TIP3    H159165   4.588   1.333  17.241  2.0626 -1.5078 -2.3966
12558TIP3    H259166   4.612   1.297  17.386 -0.8487  2.7988 -0.6494
12559TIP3   OH259167   1.492   0.442  10.996 -0.0439 -0.0809  0.3903
12559TIP3    H159168   1.533   0.521  10.960 -0.2151  0.3046  1.0265
12559TIP3    H259169   1.430   0.475  11.062 -1.8597 -0.5981 -0.9797
12560TIP3   OH259170   5.540   0.531  11.806  0.5300  0.0533 -0.4653
12560TIP3    H159171   5.548   0.569  11.894  3.3326 -1.5833  0.1370
12560TIP3    H259172   5.467   0.470  11.813  1.2924 -0.7639  1.0978
12561TIP3   OH259173   0.034   3.981   4.371  0.1745  0.3333  0.1037
12561TIP3    H159174   0.073   3.950   4.453 -1.0574 -1.2716  0.1435
12561TIP3    H259175  -0.059   3.991   4.391 -0.3672 -1.2482 -1.3647
12562TIP3   OH259176   0.698   6.434  11.771  0.0001  0.0444  0.8414
12562TIP3    H159177   0.754   6.358  11.755  0.1362  0.1922  0.6093
12562TIP3    H259178   0.750   6.489  11.830 -0.7115 -0.7441  2.2445
12563TIP3   OH259179   6.418   6.140   4.919 -0.0899 -0.3169 -0.5884
12563TIP3    H159180   6.375   6.086   4.986  1.0490 -0.6598 -0.1074
12563TIP3    H259181   6.415   6.229   4.954 -1.1811 -0.1907 -0.9724
12564TIP3   OH259182   3.773   5.402   0.223 -0.0238 -0.4670 -0.0959
12564TIP3    H159183   3.678   5.399   0.225 -0.1312  1.2804  2.7135
12564TIP3    H259184   3.794   5.481   0.173 -0.2280  0.6947  1.5536
12565TIP3   OH259185   4.395   0.528   2.616  0.4099 -0.0147  0.4438
12565TIP3    H159186   4.382   0.437   2.587  3.9470 -0.5878  0.1352
12565TIP3    H259187   4.312   0.572   2.597 -1.3211 -3.0730  0.2808
12566TIP3   OH259188   1.155   0.091  16.565 -0.7958  0.8536  0.5268
12566TIP3    H159189   1.218   0.157  16.595  0.3622  0.2709 -0.5288
12566TIP3    H259190   1.164   0.091  16.470 -1.5190 -0.1121  0.4452
12567TIP3   OH259191   6.616   0.847  14.403  0.9067 -0.2562  0.3312
12567TIP3    H159192   6.665   0.929  14.404 -0.2591  0.5351 -1.9354
12567TIP3    H259193   6.651   0.799  14.328 -1.0497 -0.1166 -0.7089
12568TIP3   OH259194   3.372   5.540   2.423 -0.4114 -0.0180  0.4807
12568TIP3    H159195   3.395   5.479   2.493  1.4540 -2.2778 -1.8671
12568TIP3    H259196   3.286   5.511   2.392  0.1107 -1.0290 -0.0905
12569TIP3   OH259197   5.534   6.259  13.977 -0.3842 -0.0094  0.3566
12569TIP3    H159198   5.525   6.341  14.025 -2.7178 -0.6074  1.0700
12569TIP3    H259199   5.468   6.265  13.908 -3.6111 -2.7861  2.8440
12570TIP3   OH259200   1.825   1.801   5.349 -0.3453  0.5822  0.5498
12570TIP3    H159201   1.858   1.774   5.435 -0.2540  1.6876  0.8781
12570TIP3    H259202   1.888   1.866   5.319 -0.1000 -0.1616 -0.5946
12571TIP3   OH259203   1.914   6.107  15.855  0.3188  0.5203  0.1457
12571TIP3    H159204   1.848   6.129  15.921 -0.3346  1.3541 -0.7516
12571TIP3    H259205   1.986   6.168  15.872  0.4534  0.2625  0.5166
12572TIP3   OH259206   3.340   0.269  16.693  0.6548  0.3754  0.1155
12572TIP3    H159207   3.292   0.207  16.748  0.4506  0.3462 -0.0934
12572TIP3    H259208   3.272   0.311  16.640  1.1016 -1.8142 -2.4029
12573TIP3   OH259209   5.667   0.761  15.700 -0.3888  0.7072 -0.2654
12573TIP3    H159210   5.662   0.696  15.770 -0.1967 -0.7224 -1.5205
12573TIP3    H259211   5.748   0.740  15.653 -0.5165  1.6112 -0.9220
12574TIP3   OH259212   0.486   6.426  17.213  0.1531 -0.2139  0.1660
12574TIP3    H159213   0.559   6.476  17.249 -0.7371  1.2719 -0.0214
12574TIP3    H259214   0.521   6.387  17.132  0.4265  1.4702 -0.5627
12575TIP3   OH259215   5.881   2.424  14.897 -0.3314  0.1548  0.1055
12575TIP3    H159216   5.791   2.452  14.881  0.1143  0.5644 -1.9569
12575TIP3    H259217   5.876   2.329  14.901 -0.7919  0.1461 -0.5268
12576TIP3   OH259218   5.582   4.791   3.279 -0.2468  0.3704  0.0349
12576TIP3    H159219   5.542   4.744   3.206  0.7511 -0.1632 -0.1865
12576TIP3    H259220   5.530   4.871   3.287 -0.8738  0.0571 -0.7295
12577TIP3   OH259221   1.841   3.361   1.027 -0.2061  0.2575  0.0851
12577TIP3    H159222   1.931   3.347   1.055  0.6401  2.6536 -1.1814
12577TIP3    H259223   1.818   3.281   0.979  0.5017 -1.1876  1.9990
12578TIP3   OH259224   5.541   0.982   1.867 -0.2160 -0.5336  0.0483
12578TIP3    H159225   5.636   0.970   1.870 -0.4722 -3.1308  0.4321
12578TIP3    H259226   5.517   1.010   1.956  0.3090  1.7893 -0.4940
12579TIP3   OH259227   5.777   2.486   4.232 -0.3554 -0.1102 -0.2390
12579TIP3    H159228   5.725   2.457   4.307 -1.4717  2.2906  0.0325
12579TIP3    H259229   5.867   2.463   4.254 -0.5658  1.0471  2.1763
12580TIP3   OH259230   5.086   1.163  10.910  0.7979 -0.5369 -0.2088
12580TIP3    H159231   5.004   1.207  10.888  0.0581 -1.6426  0.2787
12580TIP3    H259232   5.120   1.132  10.826  0.3518 -0.6866 -0.3383
12581TIP3   OH259233   5.981   4.452   2.712 -0.1321  0.0011 -0.4695
12581TIP3    H159234   6.017   4.420   2.629  0.5453  1.7253 -0.8969
12581TIP3    H259235   6.057   4.456   2.771 -0.4958 -0.6295  0.0521
12582TIP3   OH259236   0.127   1.462  16.533 -0.6463 -0.0392  0.0694
12582TIP3    H159237   0.058   1.490  16.593  0.4904 -0.0471  1.4228
12582TIP3    H259238   0.105   1.371  16.513 -0.8654 -0.1355  0.7205
12583TIP3   OH259239   1.199   1.546   0.670 -0.0498 -0.1624  0.0489
12583TIP3    H159240   1.292   1.562   0.654 -0.4889  2.8919  0.0638
12583TIP3    H259241   1.188   1.452   0.655  3.2411 -0.8601  1.2615
12584TIP3   OH259242   1.030   3.475   0.600  0.0044  0.2775 -0.4625
12584TIP3    H159243   0.969   3.449   0.670 -0.7235 -0.4672 -1.3442
12584TIP3    H259244   1.086   3.398   0.587  2.6741  1.6421  1.8107
12585TIP3   OH259245   1.087   0.073  13.424 -0.1985  0.1074 -0.1869
12585TIP3    H159246   1.127  -0.010  13.400  2.3157  1.5936 -1.4726
12585TIP3    H259247   0.994   0.052  13.435  0.3940 -2.9149 -0.0321
12586TIP3   OH259248   3.205   1.995   3.853  0.0719 -0.2388 -0.8170
12586TIP3    H159249   3.215   2.011   3.947 -1.0091 -0.4644 -0.6511
12586TIP3    H259250   3.157   2.071   3.821 -0.1955 -0.5027 -1.0492
12587TIP3   OH259251   0.607   3.234   5.344 -0.2404 -0.0166 -0.1998
12587TIP3    H159252   0.588   3.181   5.267 -1.1722  0.4504 -0.2957
12587TIP3    H259253   0.541   3.302   5.344  1.1111  1.3501 -0.2404
12588TIP3   OH259254   5.212   1.817   1.846  0.2634 -0.5159 -0.2766
12588TIP3    H159255   5.284   1.863   1.802  1.0113 -1.2355  0.1566
12588TIP3    H259256   5.176   1.881   1.907 -0.0430  0.1295 -1.1256
12589TIP3   OH259257   3.309   1.105   1.754  0.0901  0.5394 -0.5760
12589TIP3    H159258   3.388   1.108   1.701  1.3310  2.1917  1.2174
12589TIP3    H259259   3.287   1.197   1.770 -0.7642  0.1016  0.9581
12590TIP3   OH259260   5.645   2.671  11.952  0.0536  0.3187 -0.1383
12590TIP3    H159261   5.593   2.610  11.900 -0.5891  0.5871  0.1664
12590TIP3    H259262   5.724   2.623  11.975 -0.5687 -0.5025  0.3410
12591TIP3   OH259263   4.922   3.061  12.402  0.1317 -0.3043  0.4152
12591TIP3    H159264   4.891   2.973  12.423  0.3696 -0.7090 -0.8541
12591TIP3    H259265   4.842   3.110  12.382  0.1321 -0.8892 -1.1772
12592TIP3   OH259266   1.629   3.613  16.804  0.0177  0.0371  0.6282
12592TIP3    H159267   1.659   3.522  16.802  2.2067  0.6826 -2.0683
12592TIP3    H259268   1.647   3.646  16.716 -1.1137  2.9792  1.3877
12593TIP3   OH259269   2.834   0.047   2.296  0.8268  0.3861  0.1830
12593TIP3    H159270   2.866  -0.025   2.241  4.2795  1.1068  1.0308
12593TIP3    H259271   2.748   0.018   2.325 -0.0030 -1.2117 -3.3322
12594TIP3   OH259272   5.979   3.868  14.293  0.4241  0.6851 -0.4839
12594TIP3    H159273   5.999   3.872  14.200 -0.2116 -0.7529 -0.7048
12594TIP3    H259274   5.896   3.915  14.302 -0.4153 -0.6606 -0.9474
12595TIP3   OH259275   0.202   4.318  15.486  0.3103 -0.1491 -0.6624
12595TIP3    H159276   0.197   4.223  15.498  0.5612 -0.0451  0.3346
12595TIP3    H259277   0.248   4.349  15.563 -0.2850  0.8518 -0.7059
12596TIP3   OH259278   4.054   4.098  13.511  0.2044  0.4429 -0.3083
12596TIP3    H159279   3.968   4.126  13.541 -0.3011  0.8171 -1.9853
12596TIP3    H259280   4.051   4.003  13.512 -1.3457  0.3477 -3.0792
12597TIP3   OH259281   3.185   6.647   5.454  0.7092 -0.9088  0.0562
12597TIP3    H159282   3.170   6.724   5.399  2.0109 -0.5166  0.2165
12597TIP3    H259283   3.099   6.628   5.492 -0.1759 -1.0141 -1.8624
12598TIP3   OH259284   2.016   0.670  15.801  0.0523 -0.5228 -0.0728
12598TIP3    H159285   2.047   0.628  15.881  0.2604 -3.1458 -1.4095
12598TIP3    H259286   1.924   0.644  15.794 -0.7999  1.9857  0.6347
12599TIP3   OH259287   4.634   4.109   5.189 -0.0725  0.1829  0.6634
12599TIP3    H159288   4.725   4.093   5.211 -0.1526  0.5946  1.2962
12599TIP3    H259289   4.636   4.184   5.130  0.1627 -1.0639 -0.9997
12600TIP3   OH259290   4.062   3.376  11.282 -0.1745  0.1181  0.3137
12600TIP3    H159291   3.982   3.419  11.311 -1.0441 -0.9613 -0.4249
12600TIP3    H259292   4.067   3.395  11.188  0.2288 -0.1413  0.2794
12601TIP3   OH259293   5.219   2.977  14.877  0.4660  0.4923  0.5447
12601TIP3    H159294   5.230   3.072  14.868  1.1593  0.3501 -0.3323
12601TIP3    H259295   5.179   2.965  14.962 -0.0861  1.6109  0.4594
12602TIP3   OH259296   2.005   0.673   3.300  0.4454 -0.3259  0.1062
12602TIP3    H159297   2.033   0.710   3.217 -0.5810 -0.8978 -0.5101
12602TIP3    H259298   2.046   0.586   3.302  0.0830 -0.4985 -0.0185
12603TIP3   OH259299   2.159   3.526  14.268  0.1748 -0.6308 -0.4146
12603TIP3    H159300   2.227   3.507  14.202  1.1078  3.4026 -0.8765
12603TIP3    H259301   2.201   3.506  14.351  0.7297 -1.3019 -0.8429
12604TIP3   OH259302   2.015   0.435  15.076  0.1754 -0.0940  0.1903
12604TIP3    H159303   2.070   0.465  15.003 -1.5367  0.3101 -1.0047
12604TIP3    H259304   2.063   0.461  15.154  1.7545  0.0745 -0.7721
12605TIP3   OH259305   3.137   1.664  15.283 -0.1974  0.2059  0.4238
12605TIP3    H159306   3.062   1.625  15.237  0.3760 -1.4503  0.8129
12605TIP3    H259307   3.143   1.753  15.249 -0.2564 -0.7081 -2.1842
12606TIP3   OH259308   3.879   2.884  12.253 -0.0879  0.5024  0.1146
12606TIP3    H159309   3.910   2.963  12.208  0.3258 -0.1526 -0.8030
12606TIP3    H259310   3.918   2.812  12.203  0.3647 -0.2729  1.5302
12607TIP3   OH259311   2.831   6.813  13.608  0.1211  0.8607 -0.2217
12607TIP3    H159312   2.802   6.863  13.532  2.8536 -0.8519 -2.6130
12607TIP3    H259313   2.811   6.722  13.586  1.4940  0.2657  0.7980
12608TIP3   OH259314   4.869   6.125  16.115 -0.3677  0.0937  0.4529
12608TIP3    H159315   4.852   6.058  16.049  1.3458  0.4322 -0.3834
12608TIP3    H259316   4.906   6.077  16.189  1.2234  0.1048 -0.2912
12609TIP3   OH259317   0.433   0.300  11.407 -0.5609  0.0648  0.7792
12609TIP3    H159318   0.455   0.291  11.500 -1.9470  0.6622  1.1837
12609TIP3    H259319   0.375   0.226  11.389 -1.7585  0.9564  0.8734
12610TIP3   OH259320   3.760   2.819  16.785 -0.2153 -0.0010  0.6271
12610TIP3    H159321   3.740   2.847  16.696 -0.2879 -1.1603  0.2534
12610TIP3    H259322   3.823   2.883  16.817  0.7607 -0.2507 -0.7133
12611TIP3   OH259323   0.996   4.343  15.875 -0.2707 -0.5218  0.0159
12611TIP3    H159324   1.071   4.300  15.915 -0.4914  0.1694  1.2097
12611TIP3    H259325   0.920   4.294  15.906 -0.4584  0.1619  0.6572
12612TIP3   OH259326   5.338   4.607  11.279 -0.1768 -0.2458  0.2294
12612TIP3    H159327   5.301   4.543  11.219 -1.2322  0.2910  0.2751
12612TIP3    H259328   5.363   4.680  11.223 -0.9746  0.1714  0.3947
12613TIP3   OH259329   0.362   6.023  12.104 -0.8243 -0.2428 -0.8688
12613TIP3    H159330   0.406   6.089  12.051 -0.1803 -0.8340 -1.0810
12613TIP3    H259331   0.366   6.057  12.193  1.6445 -1.0722 -0.6016
12614TIP3   OH259332   3.613   2.786  17.231  0.7689 -0.4864 -0.2034
12614TIP3    H159333   3.658   2.714  17.185  0.0644  0.5632 -2.6859
12614TIP3    H259334   3.585   2.845  17.161 -0.3315  1.2748  1.6362
12615TIP3   OH259335   1.718   6.063   3.912 -0.0058  0.4373  0.3505
12615TIP3    H159336   1.781   6.034   3.978 -0.8283 -0.0892  0.9144
12615TIP3    H259337   1.689   5.982   3.869 -0.4259  0.6574  0.2114
12616TIP3   OH259338   3.769   2.529  16.626  0.6459  0.2154 -0.8162
12616TIP3    H159339   3.853   2.484  16.618  1.3173  1.5565 -1.9089
12616TIP3    H259340   3.768   2.561  16.716  0.1014 -1.9887  0.0158
12617TIP3   OH259341   6.687   1.046   5.424 -0.4575 -0.2600  0.2955
12617TIP3    H159342   6.769   0.998   5.433  0.0541  0.0024 -2.2896
12617TIP3    H259343   6.625   0.997   5.477  1.2475 -0.6775  2.0130
12618TIP3   OH259344   6.091   1.837   2.662  0.1557  0.3478 -0.3993
12618TIP3    H159345   6.097   1.903   2.593  0.2933  0.0147 -0.7091
12618TIP3    H259346   6.053   1.883   2.736  0.5371  0.8495 -0.5148
12619TIP3   OH259347   2.139   1.858  12.431 -0.1669 -0.8120  0.4159
12619TIP3    H159348   2.043   1.866  12.433 -0.0407  1.7970 -0.0478
12619TIP3    H259349   2.163   1.881  12.341  0.9411 -0.7235  0.7205
12620TIP3   OH259350   0.267   0.987   3.464 -1.0456  0.4090 -0.0554
12620TIP3    H159351   0.287   0.894   3.458 -0.6694  0.5873 -2.2622
12620TIP3    H259352   0.237   1.012   3.376  1.0024  2.8221 -0.1942
12621TIP3   OH259353   3.041   6.100   6.062 -0.2068 -0.0502  0.4143
12621TIP3    H159354   2.964   6.080   6.116  1.1848 -1.5411  1.9432
12621TIP3    H259355   3.110   6.121   6.124  0.9304  0.1658 -0.8721
12622TIP3   OH259356   6.533   6.623  16.221  0.0421 -0.3882  0.6133
12622TIP3    H159357   6.571   6.560  16.283  1.8833  0.7256  0.6977
12622TIP3    H259358   6.601   6.634  16.154  0.1376  2.0252  1.0007
12623TIP3   OH259359   1.732   3.527  13.315 -0.0971  0.4799 -0.0808
12623TIP3    H159360   1.778   3.443  13.308 -0.0422  0.6695 -3.0421
12623TIP3    H259361   1.677   3.517  13.392 -0.0261 -2.2540 -0.2855
12624TIP3   OH259362   0.828   0.791  12.237 -0.2008 -0.0305  0.2747
12624TIP3    H159363   0.905   0.796  12.293  0.3437  1.5889 -0.5535
12624TIP3    H259364   0.864   0.779  12.149 -1.0208 -2.0219  0.1663
12625TIP3   OH259365   5.923   2.189   0.178 -0.5168  0.0225  0.1014
12625TIP3    H159366   5.969   2.106   0.182  1.0737  0.8357 -0.5098
12625TIP3    H259367   5.874   2.193   0.260  1.1020 -0.5579  1.1358
12626TIP3   OH259368   5.201   5.226  16.819 -0.4923 -0.0867 -0.4629
12626TIP3    H159369   5.139   5.298  16.835  0.0929  0.2013  0.6210
12626TIP3    H259370   5.285   5.270  16.807 -0.6060 -0.4199 -2.7914
12627TIP3   OH259371   3.952   5.752   1.940 -0.1877  0.3116  0.5993
12627TIP3    H159372   3.878   5.730   1.996  1.4379 -0.2712  2.6090
12627TIP3    H259373   4.029   5.743   1.996  1.5380 -0.2028 -1.7020
12628TIP3   OH259374   0.307   5.604  16.623  0.2390 -0.2415 -0.0240
12628TIP3    H159375   0.379   5.648  16.668  0.5732 -0.8205  0.0207
12628TIP3    H259376   0.259   5.559  16.692 -0.5943  0.7224  0.0388
12629TIP3   OH259377   4.282   5.664   1.767 -0.4915 -0.2107  0.0818
12629TIP3    H159378   4.295   5.693   1.677 -1.0378  1.4763  0.5189
12629TIP3    H259379   4.369   5.664   1.805 -0.5179  1.3421  0.1881
12630TIP3   OH259380   1.842   3.502   6.185 -0.2804  0.0092  0.4620
12630TIP3    H159381   1.810   3.548   6.108  0.8740 -0.8855 -0.5861
12630TIP3    H259382   1.935   3.484   6.166 -0.6824 -2.8448  0.7124
12631TIP3   OH259383   0.058   3.190   4.934  0.3420 -0.2436 -0.0061
12631TIP3    H159384   0.106   3.148   5.005  0.3461 -1.2215 -0.5663
12631TIP3    H259385  -0.030   3.152   4.939  0.0478  0.4329  0.0946
12632TIP3   OH259386   1.988   0.076  17.221 -0.1384  0.2243 -0.4665
12632TIP3    H159387   2.068   0.114  17.184 -0.0554  0.4244 -0.0838
12632TIP3    H259388   2.019   0.006  17.278 -0.0816  1.8316  1.5530
12633TIP3   OH259389   2.507   3.969   4.841 -0.0646  0.0598 -0.1652
12633TIP3    H159390   2.569   3.896   4.841  0.4570  0.4378 -1.8873
12633TIP3    H259391   2.421   3.928   4.856  0.5883 -0.3923  2.9306
12634TIP3   OH259392   6.225   0.052  15.637  0.0830 -0.6050  0.1006
12634TIP3    H159393   6.270  -0.029  15.662  0.5223  0.0255  1.4804
12634TIP3    H259394   6.295   0.114  15.619 -0.2488 -0.3382 -0.2939
12635TIP3   OH259395   6.175   1.981   3.799 -0.1935  0.2409  0.0302
12635TIP3    H159396   6.093   1.972   3.750  0.7902 -1.6171 -1.3724
12635TIP3    H259397   6.211   1.893   3.802  0.8635  0.7011  2.2711
12636TIP3   OH259398   3.558   6.465  11.346  0.2977  0.2261  0.1036
12636TIP3    H159399   3.522   6.464  11.257 -1.2016  1.4303  0.6569
12636TIP3    H259400   3.495   6.515  11.397  2.0228  1.1178  1.4787
12637TIP3   OH259401   0.017   6.417   0.551  0.4780 -0.4704 -0.2464
12637TIP3    H159402   0.100   6.371   0.558  0.7367 -0.2596 -1.7059
12637TIP3    H259403  -0.046   6.358   0.592  1.1957 -1.0281  0.0778
12638TIP3   OH259404   1.144   2.110   1.277 -0.3781 -0.1007  0.7184
12638TIP3    H159405   1.160   2.042   1.211 -0.3016 -1.0019  1.6433
12638TIP3    H259406   1.207   2.179   1.257 -0.3158 -0.3884 -0.1106
12639TIP3   OH259407   0.431   2.971  13.519 -0.2610 -0.4780 -0.8616
12639TIP3    H159408   0.472   2.978  13.433  0.7223  0.2936 -0.3455
12639TIP3    H259409   0.341   3.003  13.506  0.4298  1.4399 -1.2208
12640TIP3   OH259410   3.416   1.244   4.031 -0.1017 -0.1099  0.0344
12640TIP3    H159411   3.382   1.157   4.052 -1.1255  0.4764  0.8947
12640TIP3    H259412   3.383   1.300   4.101  2.9666  0.4758  1.1710
12641TIP3   OH259413   3.637   4.317   2.934 -0.3008  0.7196 -0.0747
12641TIP3    H159414   3.623   4.263   2.856 -0.8528  0.5562  0.1296
12641TIP3    H259415   3.681   4.260   2.996  1.7472  1.3445 -0.8549
12642TIP3   OH259416   1.632   6.767   0.071 -0.0492 -0.5614  0.1946
12642TIP3    H159417   1.572   6.790   0.001 -1.9129 -1.6955  1.3365
12642TIP3    H259418   1.719   6.789   0.037 -0.9954  0.1003 -1.9310
12643TIP3   OH259419   2.932   5.966   5.839  0.2209 -0.2575 -0.1663
12643TIP3    H159420   2.869   5.922   5.895  0.9124 -2.2987 -0.9124
12643TIP3    H259421   2.995   6.004   5.899  0.4789 -1.6757  0.4992
12644TIP3   OH259422   3.429   1.305  15.206  0.3168  0.0829  0.5145
12644TIP3    H159423   3.427   1.221  15.250 -0.3966 -1.5947 -2.4585
12644TIP3    H259424   3.373   1.362  15.259 -1.1258 -2.0016  1.3245
12645TIP3   OH259425   6.661   1.196  15.018  0.1809  0.5528 -0.3248
12645TIP3    H159426   6.607   1.180  14.941  1.1282 -1.2085 -0.6760
12645TIP3    H259427   6.608   1.163  15.091  0.4387 -0.4404 -0.5743
12646TIP3   OH259428   0.770   1.989  16.790  0.1657  0.1351 -0.3427
12646TIP3    H159429   0.823   1.953  16.719  0.8568 -0.5436  0.4886
12646TIP3    H259430   0.813   2.071  16.814 -1.6086  1.8181 -2.4715
12647TIP3   OH259431   1.229   2.936   4.103  0.1156 -0.3730  0.3994
12647TIP3    H159432   1.311   2.952   4.151 -1.5789  2.3740  2.7305
12647TIP3    H259433   1.182   2.873   4.158 -0.2367 -0.2393  0.2483
12648TIP3   OH259434   5.785   3.433  13.654 -0.1051  0.4349  0.1762
12648TIP3    H159435   5.813   3.514  13.696 -0.8402  0.7676  0.0439
12648TIP3    H259436   5.833   3.431  13.571  0.4444  0.3786  0.4929
12649TIP3   OH259437   4.364   2.418  15.623 -0.2723 -0.0790 -0.6057
12649TIP3    H159438   4.395   2.474  15.695 -1.8088  1.9503 -1.4370
12649TIP3    H259439   4.337   2.337  15.667  0.8226  0.2680  0.8089
12650TIP3   OH259440   2.892   2.090  17.101  0.1814  0.5786 -0.4643
12650TIP3    H159441   2.944   2.111  17.023  0.5170  1.0983 -0.1124
12650TIP3    H259442   2.805   2.069  17.067 -0.5282  3.6327 -0.8423
12651TIP3   OH259443   5.791   4.253   6.036  0.7017  0.3504  0.3535
12651TIP3    H159444   5.740   4.314   5.983 -0.7867 -1.6613 -0.6560
12651TIP3    H259445   5.879   4.290   6.037 -0.0629  2.3472 -0.4163
12652TIP3   OH259446   4.666   5.549   4.067  0.0515  0.4875 -0.5123
12652TIP3    H159447   4.688   5.604   4.142 -1.5381 -1.2126  1.3262
12652TIP3    H259448   4.571   5.536   4.074  0.0124 -0.4795 -2.2996
12653TIP3   OH259449   6.235   4.835   1.379 -0.3935  0.1379  0.2313
12653TIP3    H159450   6.143   4.842   1.356  0.0823  2.2700 -1.2507
12653TIP3    H259451   6.238   4.852   1.473 -1.3403  2.1871 -0.0622
12654TIP3   OH259452   1.276   0.105  13.014  0.2934 -0.2724  0.4349
12654TIP3    H159453   1.238   0.030  13.061 -0.7665  0.0774  0.1549
12654TIP3    H259454   1.348   0.067  12.963  0.1135 -1.0087  0.7117
12655TIP3   OH259455   1.041   2.909  15.002  0.2045  0.6309  0.5243
12655TIP3    H159456   1.107   2.840  15.002 -0.0650  0.3098 -1.2283
12655TIP3    H259457   0.966   2.870  15.046 -0.1199 -0.4240 -0.8811
12656TIP3   OH259458   4.499   6.106  12.211 -0.1303  0.5085 -0.6585
12656TIP3    H159459   4.491   6.034  12.147  0.4768  0.2747 -0.4822
12656TIP3    H259460   4.506   6.061  12.295 -0.1503  0.7929 -0.5066
12657TIP3   OH259461   4.470   6.517  15.021 -0.5768 -0.4717  0.0920
12657TIP3    H159462   4.550   6.475  14.988 -0.1333  0.7173 -0.3943
12657TIP3    H259463   4.440   6.572  14.949 -0.0062  1.6012  1.3425
12658TIP3   OH259464   2.883   4.547  11.479 -0.1178  0.4018  0.0177
12658TIP3    H159465   2.885   4.541  11.383  0.4825 -2.2486  0.1296
12658TIP3    H259466   2.865   4.639  11.496  1.5455  1.3290 -2.6232
12659TIP3   OH259467   2.545   6.650   4.229 -0.2904 -0.1581  0.1159
12659TIP3    H159468   2.573   6.608   4.311  0.9536 -0.7243 -0.5794
12659TIP3    H259469   2.626   6.685   4.191 -1.1080  1.7457  0.0130
12660TIP3   OH259470   2.922   0.530  14.165  0.1169 -0.3616  0.5510
12660TIP3    H159471   2.947   0.618  14.137 -0.3447 -0.4755 -0.2535
12660TIP3    H259472   2.831   0.539  14.195 -0.3374 -0.7758 -0.6439
12661TIP3   OH259473   3.377   3.301   2.998  0.1944 -0.1721  0.2009
12661TIP3    H159474   3.328   3.329   2.920  0.3752  1.2264  0.5636
12661TIP3    H259475   3.378   3.205   2.992 -0.1125 -0.1155 -1.3182
12662TIP3   OH259476   1.127   1.472   0.055  0.3248  0.2921  1.1522
12662TIP3    H159477   1.078   1.483   0.136  1.2713  0.1808  1.7595
12662TIP3    H259478   1.148   1.378   0.052  0.1072  0.2537  0.6612
12663TIP3   OH259479   1.697   1.221   0.787 -0.1482  0.1074  0.1272
12663TIP3    H159480   1.702   1.227   0.692 -1.0648  1.7086  0.1410
12663TIP3    H259481   1.769   1.277   0.818 -1.5396  1.9076  0.3195
12664TIP3   OH259482   2.681   3.024   3.298 -0.5365  0.2710  0.1804
12664TIP3    H159483   2.590   3.000   3.280 -0.2588  0.8902 -2.5116
12664TIP3    H259484   2.694   3.107   3.252  1.3985  0.1498  0.3986
12665TIP3   OH259485   5.116   5.302  15.004  0.2166  0.1404  0.3609
12665TIP3    H159486   5.095   5.244  14.931 -0.5976  0.4044  0.3859
12665TIP3    H259487   5.091   5.389  14.975 -0.0211  0.2639  0.9131
12666TIP3   OH259488   0.782   0.936  13.070 -0.2426 -0.5126 -0.4762
12666TIP3    H159489   0.877   0.938  13.065 -0.2867  1.1796 -1.6478
12666TIP3    H259490   0.763   0.923  13.163  1.1156 -1.3929 -0.3016
12667TIP3   OH259491   0.852   1.469  16.957 -0.1212 -0.4598 -0.2492
12667TIP3    H159492   0.857   1.385  17.002 -0.4454  0.3177  1.2993
12667TIP3    H259493   0.941   1.485  16.926  0.6413 -0.0448  2.0108
12668TIP3   OH259494   4.670   1.801  13.503  1.0511  0.3218  0.2876
12668TIP3    H159495   4.590   1.840  13.538  1.4125  0.3475  1.0950
12668TIP3    H259496   4.732   1.873  13.497  1.7377 -0.1103  1.8324
12669TIP3   OH259497   5.517   4.875  13.140  0.0542 -1.0080 -0.2265
12669TIP3    H159498   5.530   4.788  13.102  0.9745 -0.5865 -0.9368
12669TIP3    H259499   5.591   4.926  13.106 -0.8400  0.2236 -0.3703
12670TIP3   OH259500   1.188   0.572   5.748  0.2481  0.4042 -0.4112
12670TIP3    H159501   1.276   0.589   5.782  0.4340 -1.6223  0.2547
12670TIP3    H259502   1.131   0.576   5.825  0.3362 -1.8740 -0.1519
12671TIP3   OH259503   6.538   1.913  11.903  0.5911 -0.0047  0.0081
12671TIP3    H159504   6.465   1.899  11.963  1.3012 -0.7757  0.7286
12671TIP3    H259505   6.572   2.000  11.925 -0.1937  0.4185 -0.4347
12672TIP3   OH259506   4.206   0.519   3.345 -0.0654  0.1002  0.2551
12672TIP3    H159507   4.250   0.438   3.370 -0.1911  0.1692  0.7180
12672TIP3    H259508   4.178   0.557   3.428 -0.8863  0.1217 -0.0199
12673TIP3   OH259509   2.406   4.645   6.434  0.3380  0.7536  0.5431
12673TIP3    H159510   2.447   4.648   6.347  0.0292 -0.2726  0.3536
12673TIP3    H259511   2.314   4.664   6.418  0.2009  0.1485  0.5801
12674TIP3   OH259512   6.019   3.386   1.149  0.0591  0.2571  0.0717
12674TIP3    H159513   6.010   3.291   1.164 -2.3890  0.7165  2.2602
12674TIP3    H259514   5.962   3.403   1.073  0.2583  0.0325 -0.1315
12675TIP3   OH259515   4.236   2.529   2.589  0.5861 -0.9524 -0.0826
12675TIP3    H159516   4.270   2.542   2.678 -1.4384  1.0389  0.5245
12675TIP3    H259517   4.311   2.544   2.532  1.4046  0.3006  1.2447
12676TIP3   OH259518   2.715   6.588  15.741 -0.1813 -0.6403 -0.0618
12676TIP3    H159519   2.772   6.638  15.682 -0.6905 -1.3755 -1.2153
12676TIP3    H259520   2.753   6.501  15.742 -1.7514 -1.4003 -1.5818
12677TIP3   OH259521   4.485   4.086  13.640  0.1835 -0.2706  0.0144
12677TIP3    H159522   4.422   4.149  13.674  1.2223  0.6462  0.2706
12677TIP3    H259523   4.452   4.066  13.552  0.1354  1.0641 -0.2970
12678TIP3   OH259524   2.834   1.874  15.400  0.8229 -0.6096  0.6169
12678TIP3    H159525   2.868   1.856  15.313  1.9158  0.0453  0.8902
12678TIP3    H259526   2.739   1.876  15.388  0.9786  0.5763 -0.8009
12679TIP3   OH259527   3.590   3.139  14.360 -0.2599  0.0476  0.1132
12679TIP3    H159528   3.578   3.049  14.391 -1.1230  0.6220  1.5488
12679TIP3    H259529   3.512   3.156  14.306  0.2300 -0.2632 -0.7157
12680TIP3   OH259530   5.855   3.595   0.179  0.5487 -0.0146 -0.5932
12680TIP3    H159531   5.948   3.604   0.157 -0.0456  0.9462 -3.0922
12680TIP3    H259532   5.852   3.594   0.275  3.3101 -2.4583 -0.4028
12681TIP3   OH259533   2.888   1.035   4.187  0.1270  0.0327  0.3647
12681TIP3    H159534   2.942   1.113   4.175 -0.4408  0.5075  0.8745
12681TIP3    H259535   2.945   0.963   4.161  1.0729  0.5103  1.0703
12682TIP3   OH259536   4.419   2.483  10.849 -0.3974  0.9043 -0.3925
12682TIP3    H159537   4.458   2.537  10.918 -0.3356 -0.4787  0.7064
12682TIP3    H259538   4.489   2.422  10.824 -1.1411 -0.1610  0.0423
12683TIP3   OH259539   4.046   4.237  11.745 -0.4342 -0.0335 -0.1258
12683TIP3    H159540   3.976   4.177  11.770 -0.9144  0.1312 -1.0403
12683TIP3    H259541   4.059   4.222  11.651  0.3491  0.3596 -0.0947
12684TIP3   OH259542   6.115   2.563  15.720 -0.0186 -0.5673 -0.1363
12684TIP3    H159543   6.121   2.469  15.736 -2.5263 -0.7471  0.0371
12684TIP3    H259544   6.085   2.600  15.802 -1.8102 -0.0076 -1.0006
12685TIP3   OH259545   0.593   2.098  15.778 -0.4169 -0.2741  0.3485
12685TIP3    H159546   0.563   2.129  15.692  1.2305 -1.0552 -0.5687
12685TIP3    H259547   0.513   2.074  15.825 -1.3845  0.6824 -0.7660
12686TIP3   OH259548   1.690   3.859   2.564  0.1675 -0.1946 -0.1735
12686TIP3    H159549   1.620   3.874   2.628  0.3300 -2.2171  0.5525
12686TIP3    H259550   1.675   3.771   2.531  1.6216 -0.1804 -0.9912
12687TIP3   OH259551   4.810   1.615   2.142 -0.2972  0.4024 -0.6808
12687TIP3    H159552   4.728   1.661   2.122 -0.7856  0.2606  0.8934
12687TIP3    H259553   4.786   1.523   2.144 -0.4431  0.4546  1.2176
12688TIP3   OH259554   5.904   6.438  15.884  0.0767 -0.3105  0.0748
12688TIP3    H159555   5.848   6.461  15.958 -1.1390  0.0792 -0.9377
12688TIP3    H259556   5.993   6.453  15.916 -0.4979  3.4612  0.3102
12689TIP3   OH259557   5.208   5.412  17.117 -0.0271  0.2931  0.0738
12689TIP3    H159558   5.154   5.333  17.117  0.0414  0.2033  1.9234
12689TIP3    H259559   5.259   5.407  17.198 -0.3041  2.4124  0.4606
12690TIP3   OH259560   3.540   6.136  11.253 -0.5338 -0.7006  0.1605
12690TIP3    H159561   3.520   6.100  11.167  0.3969 -1.1025  0.1010
12690TIP3    H259562   3.621   6.186  11.239 -1.3771  0.8127  0.4023
12691TIP3   OH259563   2.913   5.000   0.636  0.1139 -0.4594  0.3398
12691TIP3    H159564   2.999   5.020   0.672 -0.5075 -1.7925  2.9126
12691TIP3    H259565   2.924   4.916   0.592  0.2910 -0.2372 -0.0397
12692TIP3   OH259566   3.267   3.382  14.899 -0.2167  0.1647  0.2270
12692TIP3    H159567   3.280   3.477  14.893 -0.3919  0.4657  3.0515
12692TIP3    H259568   3.186   3.372  14.949 -0.4292 -1.4981 -0.3770
12693TIP3   OH259569   0.694   6.092   0.114 -0.0430  0.1527  0.5647
12693TIP3    H159570   0.603   6.095   0.081  0.1711  1.5978  0.0136
12693TIP3    H259571   0.740   6.156   0.059  0.8115  1.0768  2.2981
12694TIP3   OH259572   3.889   6.011  15.337 -0.5402  0.3034 -0.5712
12694TIP3    H159573   3.943   5.957  15.279 -0.9372 -1.4647  0.6292
12694TIP3    H259574   3.950   6.047  15.401 -0.5020 -0.2146 -0.3071
12695TIP3   OH259575   0.205   4.584  14.033  0.6663 -0.3230  0.5822
12695TIP3    H159576   0.176   4.503  13.991  1.6384 -0.7586  0.7294
12695TIP3    H259577   0.285   4.560  14.079  0.7325  0.6273  0.9933
12696TIP3   OH259578   3.945   1.836  17.170 -0.4805  0.7742 -1.3391
12696TIP3    H159579   4.000   1.821  17.248 -2.7229  1.5487  0.4999
12696TIP3    H259580   3.909   1.750  17.149  0.1055  0.5688 -1.5285
12697TIP3   OH259581   6.032   2.983  10.580  0.2820  0.4487 -0.6912
12697TIP3    H159582   5.990   2.901  10.555 -1.8518  1.1170  0.4770
12697TIP3    H259583   6.122   2.974  10.550 -0.0775 -2.0246 -1.2137
12698TIP3   OH259584   6.242   4.583   1.270 -0.1804 -0.4539  0.7039
12698TIP3    H159585   6.255   4.668   1.313  2.9269 -0.3142 -0.2667
12698TIP3    H259586   6.214   4.605   1.181 -1.0268 -0.5310  0.9457
12699TIP3   OH259587   6.333   3.955  12.884 -0.4163  0.3773 -0.6329
12699TIP3    H159588   6.282   3.916  12.955 -0.7137  0.5350 -0.7559
12699TIP3    H259589   6.374   3.880  12.840  0.7717  0.3733  0.4563
12700TIP3   OH259590   0.112   5.385   1.048  0.4471  0.0421  0.1273
12700TIP3    H159591   0.123   5.461   0.991 -0.5447 -1.1698 -1.7628
12700TIP3    H259592   0.080   5.421   1.131  0.9169  1.7492 -0.4027
12701TIP3   OH259593   5.415   5.953   0.088 -0.5962 -0.6160 -0.5747
12701TIP3    H159594   5.468   5.913   0.157 -0.6176 -0.5499 -0.5202
12701TIP3    H259595   5.416   6.046   0.108  1.8024 -0.1986 -2.2755
12702TIP3   OH259596   0.354   1.865  16.782 -0.2426 -0.3836  0.2595
12702TIP3    H159597   0.297   1.788  16.793 -0.4877  0.0218  2.3954
12702TIP3    H259598   0.441   1.832  16.804 -0.2023 -0.2719  0.2639
12703TIP3   OH259599   5.917   1.522   6.278 -0.0888 -0.1630  0.0630
12703TIP3    H159600   5.878   1.597   6.234  0.1496  0.7519  1.3342
12703TIP3    H259601   5.849   1.455   6.277 -0.2412 -0.0010 -1.2386
12704TIP3   OH259602   2.605   0.867  15.216  0.0455  0.2853  0.1264
12704TIP3    H159603   2.590   0.951  15.259  0.7763  0.7051 -0.4130
12704TIP3    H259604   2.642   0.890  15.130  1.1171 -0.5910  0.3244
12705TIP3   OH259605   2.854   2.584   2.737  0.4171  0.6225  0.0887
12705TIP3    H159606   2.777   2.550   2.782  0.2139  1.5239  0.4493
12705TIP3    H259607   2.876   2.518   2.672 -1.9415  1.3000 -1.4941
12706TIP3   OH259608   1.099   4.098  16.303  0.6343  0.2639  0.6321
12706TIP3    H159609   1.138   4.136  16.381 -0.7585  0.3270  1.3410
12706TIP3    H259610   1.153   4.021  16.284  0.4653 -0.2797  2.2152
12707TIP3   OH259611   1.405   2.696   2.272  0.4176 -0.6151 -0.1236
12707TIP3    H159612   1.462   2.621   2.253  1.0905  0.0427 -0.7815
12707TIP3    H259613   1.414   2.710   2.366 -0.4189 -1.9068  0.1782
12708TIP3   OH259614   1.697   0.971  15.323 -0.4722 -0.0062 -0.4969
12708TIP3    H159615   1.624   0.909  15.324 -0.7898  0.2937 -2.0829
12708TIP3    H259616   1.659   1.050  15.284  0.6884  0.1792 -1.2664
12709TIP3   OH259617   3.245   4.228   0.390  0.4693 -0.1928 -0.1560
12709TIP3    H159618   3.318   4.279   0.355  0.8235  0.1213  0.9963
12709TIP3    H259619   3.182   4.294   0.420 -0.6075 -0.4564 -1.7175
12710TIP3   OH259620   0.102   1.098  15.771  0.9829 -0.3223  0.3138
12710TIP3    H159621   0.110   1.004  15.754  1.7811 -0.1910 -0.0888
12710TIP3    H259622   0.182   1.121  15.818  0.9885  0.2439  0.0340
12711TIP3   OH259623   3.684   3.912   2.780 -0.6249  0.6470  0.0448
12711TIP3    H159624   3.730   3.972   2.840 -1.1732 -0.4716  1.6622
12711TIP3    H259625   3.593   3.917   2.808 -0.8070 -0.2971 -0.3650
12712TIP3   OH259626   1.336   2.062  10.031 -0.1780 -0.1567  0.2580
12712TIP3    H159627   1.273   1.991  10.017  0.9548 -1.1339  0.0178
12712TIP3    H259628   1.363   2.054  10.122 -0.1364  0.0457  0.2649
12713TIP3   OH259629   0.479   2.847  12.406 -0.1160  0.5693  0.3431
12713TIP3    H159630   0.420   2.822  12.477 -2.8130 -0.0996 -1.9493
12713TIP3    H259631   0.439   2.925  12.368  1.0353  0.6886 -0.6854
12714TIP3   OH259632   0.804   0.764  11.659 -0.2326  0.0214 -0.3704
12714TIP3    H159633   0.745   0.737  11.589 -0.5679 -2.1123  0.6631
12714TIP3    H259634   0.872   0.697  11.661  2.6277  2.6099 -1.8081
12715TIP3   OH259635   6.033   4.229  15.720 -0.3128  0.3797 -0.0314
12715TIP3    H159636   6.060   4.312  15.679  1.6470  1.1509  2.5786
12715TIP3    H259637   5.965   4.254  15.782 -0.1921 -0.0727  0.2886
12716TIP3   OH259638   1.136   0.642   4.619 -0.2042 -0.0487  0.7541
12716TIP3    H159639   1.204   0.585   4.584  1.2224  1.4669  0.9053
12716TIP3    H259640   1.075   0.654   4.546  1.0358  0.5281 -0.2448
12717TIP3   OH259641   1.471   0.084  14.149 -0.1795 -0.1022 -0.5308
12717TIP3    H159642   1.519   0.161  14.178 -0.4633  0.1902 -0.8337
12717TIP3    H259643   1.472   0.025  14.225  0.8300 -0.1934 -0.6001
12718TIP3   OH259644   3.390   2.993  10.854  0.5371  0.1339  0.2717
12718TIP3    H159645   3.322   3.038  10.804  0.8041 -0.0199 -0.2388
12718TIP3    H259646   3.364   2.901  10.854  0.2749  0.2031  0.8535
12719TIP3   OH259647   1.540   6.502   1.478  0.5486 -0.2700 -0.1776
12719TIP3    H159648   1.551   6.559   1.402  0.0139  0.5162  0.3278
12719TIP3    H259649   1.604   6.432   1.464  1.0974  0.3529 -0.8923
12720TIP3   OH259650   2.443   0.880  15.556  0.1228  0.4820  0.1347
12720TIP3    H159651   2.367   0.843  15.511 -0.7033  1.7327  0.4663
12720TIP3    H259652   2.516   0.824  15.529 -1.1870 -1.8829  1.2898
12721TIP3   OH259653   6.669   3.326   4.050 -0.0941 -0.1892  0.5583
12721TIP3    H159654   6.698   3.315   3.959 -0.1964  0.8176  0.3835
12721TIP3    H259655   6.574   3.313   4.046 -0.0190 -0.8015  0.6473
12722TIP3   OH259656   0.214   5.420  11.633 -0.4691  0.3958 -0.2975
12722TIP3    H159657   0.173   5.406  11.548 -0.2452 -1.2059 -0.1637
12722TIP3    H259658   0.307   5.408  11.617 -0.4870 -0.6524  0.2963
12723TIP3   OH259659   3.473   0.108  11.528 -0.5598  0.1152 -0.2284
12723TIP3    H159660   3.469   0.130  11.434  0.1248 -1.3987 -0.6330
12723TIP3    H259661   3.518   0.183  11.568  0.8318 -0.0434 -1.4092
12724TIP3   OH259662   3.931   1.091  14.974 -0.4154  0.5260  0.6336
12724TIP3    H159663   3.898   1.060  14.890 -0.4955  1.6752  0.2355
12724TIP3    H259664   3.862   1.149  15.007  0.0489  0.8527  1.0367
12725TIP3   OH259665   2.844   5.946   3.401 -0.5038  0.3129  0.8682
12725TIP3    H159666   2.860   6.029   3.444 -2.2216  0.8345  0.5923
12725TIP3    H259667   2.830   5.884   3.472  0.3001  0.3536  1.0679
12726TIP3   OH259668   1.005   3.202  10.566 -0.1882 -0.3743 -0.1385
12726TIP3    H159669   0.944   3.144  10.520 -0.8418 -0.8777  1.3047
12726TIP3    H259670   1.052   3.145  10.627 -0.3381  0.4860  0.8159
12727TIP3   OH259671   5.587   6.082   3.147  0.0906 -0.2467 -0.0884
12727TIP3    H159672   5.560   6.023   3.076  0.3848  0.6135 -0.9303
12727TIP3    H259673   5.569   6.170   3.114 -1.8249  0.1296  1.7552
12728TIP3   OH259674   3.421   1.649  12.401 -0.0311 -0.4579 -0.3774
12728TIP3    H159675   3.374   1.721  12.359 -0.9682  0.4871  2.1035
12728TIP3    H259676   3.469   1.690  12.473  0.3566 -2.1545  0.3741
12729TIP3   OH259677   0.016   3.343  10.898  0.1137  0.3428 -0.1918
12729TIP3    H159678  -0.007   3.267  10.951 -0.1657  0.1871 -0.5337
12729TIP3    H259679  -0.043   3.338  10.823  0.4344  0.6232 -0.4607
12730TIP3   OH259680   5.312   4.753   3.612 -0.0151  0.7804 -0.7286
12730TIP3    H159681   5.387   4.711   3.570 -0.9735 -0.0658 -1.6653
12730TIP3    H259682   5.344   4.840   3.637  1.9619 -0.4074  1.1324
12731TIP3   OH259683   5.096   1.021  17.198  0.3723  0.1638 -0.0084
12731TIP3    H159684   5.023   1.078  17.222 -0.3487 -1.1450  1.0114
12731TIP3    H259685   5.124   0.982  17.281  1.7764  0.1125 -0.4906
12732TIP3   OH259686   0.861   1.871  13.381 -0.3902 -0.3786 -0.7511
12732TIP3    H159687   0.879   1.779  13.362  1.2505  0.2141 -2.3450
12732TIP3    H259688   0.943   1.905  13.418 -0.4791  0.7486 -1.5191
12733TIP3   OH259689   2.594   0.336  13.644 -0.2174 -0.0703  0.3420
12733TIP3    H159690   2.626   0.287  13.569 -1.1602  0.9782 -0.8047
12733TIP3    H259691   2.506   0.301  13.659 -0.1733 -0.0203  0.7175
12734TIP3   OH259692   6.431   5.325   4.502 -0.6570 -0.9326 -0.1718
12734TIP3    H159693   6.344   5.313   4.463 -0.9441 -1.5366  0.6349
12734TIP3    H259694   6.445   5.420   4.501 -0.9557 -0.8935 -1.0898
12735TIP3   OH259695   1.715   5.585   0.173 -0.3619  0.3547  0.3907
12735TIP3    H159696   1.766   5.645   0.228  1.3859 -1.4462  0.8559
12735TIP3    H259697   1.624   5.603   0.196  0.0889  2.6879  0.6003
12736TIP3   OH259698   6.775   1.344  15.394 -0.7706 -0.3266 -0.2558
12736TIP3    H159699   6.755   1.323  15.485  1.2760 -2.8399 -0.2645
12736TIP3    H259700   6.806   1.261  15.357 -0.3758  0.9168 -2.9019
12737TIP3   OH259701   2.435   3.280   4.782  0.0928  0.1714 -0.0511
12737TIP3    H159702   2.475   3.333   4.713 -0.5536  0.5271 -0.1578
12737TIP3    H259703   2.362   3.236   4.739  0.7684 -1.0312 -0.0325
12738TIP3   OH259704   3.507   5.936  14.222  0.0147 -0.2115  0.3944
12738TIP3    H159705   3.581   5.878  14.239  0.2225  0.5414  2.3188
12738TIP3    H259706   3.506   5.996  14.297 -0.6550  1.7970 -1.1333
12739TIP3   OH259707   1.857   2.927   2.710  0.2438 -0.6814  0.4140
12739TIP3    H159708   1.835   2.982   2.636  1.6608 -1.1797 -0.4107
12739TIP3    H259709   1.772   2.907   2.751 -0.3401  1.6602  0.4656
12740TIP3   OH259710   0.641   6.170  10.879 -0.8109  0.1998  0.2205
12740TIP3    H159711   0.719   6.173  10.935  0.3819  0.9859 -1.4129
12740TIP3    H259712   0.631   6.259  10.846 -2.4521  0.1282  0.3993
12741TIP3   OH259713   6.561   1.414  14.541 -0.0423  0.1753 -0.4043
12741TIP3    H159714   6.519   1.407  14.626 -1.0282 -0.5032 -0.9295
12741TIP3    H259715   6.552   1.506  14.517 -0.5062  0.2009 -0.1456
12742TIP3   OH259716   2.614   3.862   1.722 -0.8708  0.2525  0.4791
12742TIP3    H159717   2.571   3.947   1.707  0.7739  0.9794 -0.3768
12742TIP3    H259718   2.661   3.874   1.805 -0.7780  0.1283  0.4445
12743TIP3   OH259719   4.612   3.258   5.519 -0.5247  0.3300  0.7588
12743TIP3    H159720   4.671   3.284   5.590 -0.8803  1.3971  0.6783
12743TIP3    H259721   4.612   3.162   5.522  1.3983  0.3035  0.5839
12744TIP3   OH259722   5.045   1.156   1.265  0.0141  0.5020  0.1996
12744TIP3    H159723   4.997   1.164   1.183 -0.8363  0.3871  0.6680
12744TIP3    H259724   5.053   1.246   1.298  0.4679  0.5614 -0.0656
12745TIP3   OH259725   6.715   5.129   0.186  0.5531 -0.0634 -0.5539
12745TIP3    H159726   6.796   5.179   0.195 -0.9950  2.4689  0.2262
12745TIP3    H259727   6.661   5.181   0.127 -0.1723 -2.2446 -1.9483
12746TIP3   OH259728   5.097   4.652  11.380 -0.4660  0.5877  0.2296
12746TIP3    H159729   5.169   4.657  11.318  0.2986  0.5723  1.1029
12746TIP3    H259730   5.083   4.743  11.407 -1.6673  0.7796 -0.9116
12747TIP3   OH259731   1.196   0.883   1.091  0.0882 -0.0445 -0.3156
12747TIP3    H159732   1.286   0.908   1.114 -0.6983  1.4522  1.3038
12747TIP3    H259733   1.144   0.905   1.168 -2.0348  1.1220 -1.9791
12748TIP3   OH259734   5.563   5.779  13.577 -0.8479 -0.0592 -0.3227
12748TIP3    H159735   5.565   5.690  13.611  0.4124 -1.1578 -2.9726
12748TIP3    H259736   5.639   5.821  13.616 -0.3838 -0.7572 -0.4576
12749TIP3   OH259737   3.413   4.492   4.115  0.2557 -0.8124 -0.0030
12749TIP3    H159738   3.480   4.442   4.067 -0.4721 -0.3948 -1.5391
12749TIP3    H259739   3.331   4.468   4.072 -0.1552  1.4821 -0.6295
12750TIP3   OH259740   6.319   2.832  14.643 -0.5759 -0.4001  0.6516
12750TIP3    H159741   6.323   2.737  14.635  0.5789 -0.2701 -1.0234
12750TIP3    H259742   6.396   2.855  14.696 -0.8739 -0.4039  1.0853
12751TIP3   OH259743   0.062   2.734   4.683  0.3043 -0.3066  0.3606
12751TIP3    H159744  -0.022   2.716   4.724 -0.5254  1.0720 -0.6627
12751TIP3    H259745   0.053   2.701   4.593  1.2194 -1.0492  0.5238
12752TIP3   OH259746   3.322   1.712   2.434  0.2519 -0.3973 -0.4922
12752TIP3    H159747   3.365   1.688   2.352 -0.0784 -1.7904 -0.2846
12752TIP3    H259748   3.240   1.663   2.433 -0.8841  1.3977 -0.3972
12753TIP3   OH259749   1.271   6.438  13.484  0.0826 -0.0235  0.0012
12753TIP3    H159750   1.307   6.403  13.402  0.7554  0.5576  0.0399
12753TIP3    H259751   1.337   6.416  13.550 -0.8727 -1.2970  0.5742
12754TIP3   OH259752   1.915   0.193   5.485 -0.1744  0.1919  0.3947
12754TIP3    H159753   1.975   0.147   5.426  1.3049  0.7042  1.4337
12754TIP3    H259754   1.890   0.127   5.550 -0.2099  0.1394  0.3272
12755TIP3   OH259755   1.623   5.519  16.300 -0.2558 -0.8138  0.3991
12755TIP3    H159756   1.695   5.462  16.327 -0.6111 -2.1287 -1.3060
12755TIP3    H259757   1.667   5.599  16.269  0.3386 -0.8284  1.1629
12756TIP3   OH259758   5.311   1.037  14.101  0.0301  0.4263  0.1058
12756TIP3    H159759   5.243   1.013  14.038  0.6878 -0.2653 -0.3686
12756TIP3    H259760   5.393   1.023  14.054  0.5098  1.0683  0.7271
12757TIP3   OH259761   4.103   1.709  14.232 -0.2546  0.3619  0.4042
12757TIP3    H159762   4.071   1.648  14.298 -0.1317  1.0574  1.1278
12757TIP3    H259763   4.136   1.784  14.282 -2.5379  2.0806 -0.4747
12758TIP3   OH259764   3.858   4.872  15.762 -0.1654  0.2001  0.2684
12758TIP3    H159765   3.834   4.861  15.670  0.9953  0.7091 -0.1141
12758TIP3    H259766   3.779   4.850  15.810 -1.0714  0.8245 -0.8841
12759TIP3   OH259767   4.855   3.869   2.689  0.3725  0.1785  0.4972
12759TIP3    H159768   4.944   3.879   2.655  1.3613 -1.6111  2.3307
12759TIP3    H259769   4.836   3.776   2.676 -0.6431  0.2387  1.4790
12760TIP3   OH259770   4.070   6.400   5.079  0.0584  0.3055  0.0588
12760TIP3    H159771   4.111   6.399   5.165 -0.9916 -2.6602  0.6314
12760TIP3    H259772   3.983   6.363   5.092 -0.6830  1.0950 -2.0801
12761TIP3   OH259773   3.218   0.365  12.250  0.1334  0.7515 -0.4482
12761TIP3    H159774   3.302   0.385  12.292  0.2900 -0.9951  0.1538
12761TIP3    H259775   3.185   0.288  12.297 -0.4776 -0.2928 -2.4506
12762TIP3   OH259776   4.864   4.582   0.776 -0.3085  0.4355  0.9621
12762TIP3    H159777   4.770   4.564   0.783 -0.5188  0.6204 -0.8896
12762TIP3    H259778   4.870   4.675   0.755  0.1702  0.0996 -0.5295
12763TIP3   OH259779   0.139   1.145   4.601 -0.2280 -0.1583  0.8271
12763TIP3    H159780   0.108   1.121   4.514  0.0657 -1.8496  1.1521
12763TIP3    H259781   0.073   1.206   4.634 -1.3111 -0.8893  0.1034
12764TIP3   OH259782   0.552   0.212   5.973 -0.2227 -0.1872 -0.9281
12764TIP3    H159783   0.572   0.286   6.030 -0.0260 -0.9075 -0.0260
12764TIP3    H259784   0.475   0.171   6.013 -0.1390 -0.6462 -1.2277
12765TIP3   OH259785   5.108   6.290  16.987 -0.2383  0.3014  0.3756
12765TIP3    H159786   5.109   6.204  17.028 -0.6808  0.2964  0.3753
12765TIP3    H259787   5.199   6.305  16.961 -0.4815 -1.0516 -1.4653
12766TIP3   OH259788   3.683   1.671  12.450  0.1160  0.1336  0.0856
12766TIP3    H159789   3.760   1.715  12.485  0.7124 -1.6664  1.1866
12766TIP3    H259790   3.677   1.700  12.360  2.2255  0.1557 -0.0842
12767TIP3   OH259791   1.448   4.716   1.896 -0.0112  0.0759 -0.0857
12767TIP3    H159792   1.358   4.717   1.927 -1.0752 -0.7722 -2.8319
12767TIP3    H259793   1.482   4.630   1.922 -0.6102 -0.3063 -0.5398
12768TIP3   OH259794   6.576   2.320   2.344  1.0306 -0.2902  0.4542
12768TIP3    H159795   6.576   2.342   2.437 -1.2841 -1.1689  0.7272
12768TIP3    H259796   6.647   2.373   2.307  1.2023  1.0271  2.4921
12769TIP3   OH259797   2.385   2.815   1.355 -0.0769 -0.5920 -0.0502
12769TIP3    H159798   2.458   2.764   1.390  0.9654  0.3680 -0.7225
12769TIP3    H259799   2.321   2.750   1.326  0.7273 -1.4756  0.1185
12770TIP3   OH259800   1.116   1.577  14.903  0.2726 -0.0457 -0.4713
12770TIP3    H159801   1.179   1.510  14.928  0.2748  0.2028  0.1986
12770TIP3    H259802   1.157   1.660  14.928  1.6270  0.5398 -3.9492
12771TIP3   OH259803   2.887   1.007  12.925  0.8716 -0.2516  0.4833
12771TIP3    H159804   2.893   1.068  12.999 -0.1858 -0.6964  0.9447
12771TIP3    H259805   2.843   1.057  12.857  2.6893  0.4784 -0.2184
12772TIP3   OH259806   5.959   2.951  16.584  0.1149  0.5113  0.1183
12772TIP3    H159807   5.864   2.954  16.575  0.3333  0.8531 -2.8799
12772TIP3    H259808   5.982   3.037  16.618 -0.5040  1.4172 -1.6343
12773TIP3   OH259809   1.504   4.467  10.495  0.0788  0.0430 -0.7574
12773TIP3    H159810   1.519   4.502  10.583  2.1577 -1.0290 -0.6439
12773TIP3    H259811   1.555   4.524  10.438 -0.5961  0.2221 -1.2000
12774TIP3   OH259812   6.691   2.430   0.293 -0.6689  0.3366  0.1686
12774TIP3    H159813   6.687   2.386   0.208  1.9524  0.1114  0.1067
12774TIP3    H259814   6.626   2.501   0.285 -1.8169 -0.7998 -1.3121
12775TIP3   OH259815   2.761   3.942   1.920  0.1580 -0.2185 -0.4207
12775TIP3    H159816   2.830   3.888   1.957 -0.0125  0.0867  0.3556
12775TIP3    H259817   2.807   3.998   1.856  0.6745  0.1344  0.2406
12776TIP3   OH259818   6.276   1.961   0.536  0.1332  0.1973 -0.5378
12776TIP3    H159819   6.194   1.925   0.502 -0.7345  0.0860  1.5573
12776TIP3    H259820   6.294   2.037   0.480 -1.7591  0.6242 -0.6285
12777TIP3   OH259821   4.461   3.771  16.142 -0.1502 -0.4239 -0.2771
12777TIP3    H159822   4.415   3.792  16.223 -0.3160  0.6743 -0.6401
12777TIP3    H259823   4.494   3.855  16.110 -0.6886 -0.7255 -1.7101
12778TIP3   OH259824   6.673   4.480  15.392 -0.6006 -0.2711 -0.0551
12778TIP3    H159825   6.609   4.548  15.414  1.0924  1.4016 -0.0320
12778TIP3    H259826   6.748   4.499  15.447  0.3974 -1.4266 -0.9610
12779TIP3   OH259827   3.755   5.217  16.558  0.4899  0.0618 -0.0236
12779TIP3    H159828   3.792   5.252  16.639  0.7752 -0.3117  0.0067
12779TIP3    H259829   3.830   5.201  16.502  0.4727 -1.4335  0.3241
12780TIP3   OH259830   2.201   2.574  10.648 -0.2730  1.0353 -0.4773
12780TIP3    H159831   2.215   2.646  10.709  0.5424 -1.4619  2.6244
12780TIP3    H259832   2.287   2.534  10.638 -0.7223  0.3577 -1.9385
12781TIP3   OH259833   2.131   2.079  13.058  0.3316 -0.0075 -0.6813
12781TIP3    H159834   2.148   2.032  13.139 -2.3202 -0.1807 -0.1484
12781TIP3    H259835   2.121   2.010  12.992  0.3122  0.0138 -0.7004
12782TIP3   OH259836   2.566   6.816  14.811  0.2550  0.3733 -0.5442
12782TIP3    H159837   2.583   6.791  14.902  1.4494  0.6895 -0.6657
12782TIP3    H259838   2.475   6.844  14.810 -0.6238 -2.1717 -0.0030
12783TIP3   OH259839   5.940   0.918  13.765 -0.2018 -0.1117 -0.7103
12783TIP3    H159840   6.008   0.957  13.710 -0.6917 -0.4062 -1.5468
12783TIP3    H259841   5.950   0.824  13.753  1.4038 -0.3586  1.8239
12784TIP3   OH259842   0.199   2.093   2.491 -0.2579 -0.4577 -0.7889
12784TIP3    H159843   0.217   2.166   2.551  0.6467  0.1091 -1.7320
12784TIP3    H259844   0.103   2.093   2.482 -0.3035  0.3002 -0.3944
12785TIP3   OH259845   6.096   6.244  12.467  0.6733 -0.4159 -0.2348
12785TIP3    H159846   6.110   6.337  12.485  0.6174 -0.3318 -0.6149
12785TIP3    H259847   6.097   6.202  12.554  0.5087 -0.0363 -0.0474
12786TIP3   OH259848   2.961   3.365   3.370  0.1579  0.4162 -0.3651
12786TIP3    H159849   3.026   3.314   3.419 -0.3540  0.8938  0.8472
12786TIP3    H259850   2.967   3.453   3.407 -1.2795  0.4289 -0.1121
12787TIP3   OH259851   1.800   1.252  16.573 -0.2527  0.0136 -0.3837
12787TIP3    H159852   1.714   1.227  16.539 -0.2943  0.2563 -0.4550
12787TIP3    H259853   1.810   1.200  16.653  0.2383 -1.2550 -1.2404
12788TIP3   OH259854   4.620   6.552  15.831  0.0531 -0.0863  0.1398
12788TIP3    H159855   4.538   6.572  15.876  0.2570 -0.9978  0.9492
12788TIP3    H259856   4.616   6.603  15.750 -1.5149 -0.4730 -0.0572
12789TIP3   OH259857   0.386   1.209   4.385 -0.0351 -0.5158 -0.1607
12789TIP3    H159858   0.473   1.189   4.350 -0.9099  0.3419 -3.1838
12789TIP3    H259859   0.339   1.126   4.380 -0.3765 -0.2672 -2.0114
12790TIP3   OH259860   2.404   4.675  12.688  0.0762 -0.4593 -0.4448
12790TIP3    H159861   2.350   4.747  12.655  0.6924 -0.9402 -2.6642
12790TIP3    H259862   2.374   4.598  12.640  0.7634 -1.3043  0.4364
12791TIP3   OH259863   1.417   3.210   4.819  0.0265  0.5192  0.0487
12791TIP3    H159864   1.335   3.169   4.792 -0.8198  1.7068  0.7251
12791TIP3    H259865   1.418   3.199   4.915  0.5509  0.6973  0.0665
12792TIP3   OH259866   4.766   4.660   0.310  0.4143  0.3815 -0.3617
12792TIP3    H159867   4.681   4.618   0.317  1.0510 -0.8264  0.4323
12792TIP3    H259868   4.824   4.592   0.277  0.9653  1.3528 -1.4597
12793TIP3   OH259869   5.892   2.072  14.467 -0.0395  0.2395  0.1227
12793TIP3    H159870   5.851   2.029  14.541  0.1579 -1.1460 -0.5459
12793TIP3    H259871   5.837   2.048  14.392 -0.1178  1.4417 -0.2353
12794TIP3   OH259872   0.951   5.788   0.202 -0.4006 -0.0319 -0.6102
12794TIP3    H159873   0.933   5.880   0.222 -1.1407  0.1181 -1.8902
12794TIP3    H259874   1.045   5.778   0.217 -0.6106  0.4299  1.3868
12795TIP3   OH259875   4.545   5.474  12.365  0.0207 -0.1329  0.0939
12795TIP3    H159876   4.468   5.502  12.316 -0.4302 -1.8554 -0.2441
12795TIP3    H259877   4.530   5.507  12.454 -0.3543  0.8708 -0.3311
12796TIP3   OH259878   4.910   1.679   0.682 -0.6379 -0.2062 -0.4582
12796TIP3    H159879   4.893   1.605   0.623 -1.0451 -1.1011  0.7347
12796TIP3    H259880   4.863   1.752   0.642 -0.5181 -0.6737 -1.4827
12797TIP3   OH259881   6.746   5.750   1.269 -0.5453 -0.7260 -0.0139
12797TIP3    H159882   6.820   5.761   1.208 -0.8193 -2.9290 -0.8277
12797TIP3    H259883   6.668   5.763   1.215 -0.7774 -1.9038  0.0079
12798TIP3   OH259884   0.521   5.851  13.171  0.5534 -0.4522  0.4730
12798TIP3    H159885   0.582   5.781  13.197 -0.0158 -1.1786 -0.0839
12798TIP3    H259886   0.436   5.808  13.168  0.1205  0.3809  0.5429
12799TIP3   OH259887   4.627   0.863   6.068  0.0489 -0.6003  0.4866
12799TIP3    H159888   4.679   0.875   5.989  0.8000 -2.4070  0.6479
12799TIP3    H259889   4.566   0.793   6.047 -0.5399 -0.3109  1.1531
12800TIP3   OH259890   6.461   0.220   0.307  0.1727 -0.2512  0.7878
12800TIP3    H159891   6.376   0.199   0.346  0.9334 -1.8252  1.6802
12800TIP3    H259892   6.443   0.296   0.251 -1.8063 -0.5421  0.9520
12801TIP3   OH259893   6.231   2.275   1.627 -0.1406  0.2470  0.5523
12801TIP3    H159894   6.185   2.193   1.610  0.8366  0.2969 -3.1192
12801TIP3    H259895   6.180   2.341   1.580  2.6008  0.5521 -2.2712
12802TIP3   OH259896   2.055   0.160  11.337  0.0760  0.1279  0.2181
12802TIP3    H159897   2.049   0.241  11.287  1.5752 -0.5308 -1.1442
12802TIP3    H259898   2.134   0.171  11.391  0.2867 -0.4081  0.0276
12803TIP3   OH259899   4.582   1.724  12.090 -0.3174  0.4487  0.1668
12803TIP3    H159900   4.610   1.804  12.046 -0.7366  0.1446 -0.6748
12803TIP3    H259901   4.656   1.699  12.145  0.1805  0.8961 -0.2902
12804TIP3   OH259902   3.735   2.026  17.146  0.5092 -0.2636  0.3287
12804TIP3    H159903   3.803   1.973  17.186  1.3307  0.4843 -0.0257
12804TIP3    H259904   3.779   2.109  17.125 -0.4183  0.0972 -0.2526
12805TIP3   OH259905   5.507   4.740   5.127 -0.9293 -0.2160  0.3139
12805TIP3    H159906   5.495   4.645   5.126 -0.9191 -0.2478 -2.3326
12805TIP3    H259907   5.465   4.768   5.208  0.0773 -2.5642  1.7499
12806TIP3   OH259908   6.402   3.659  12.169 -0.3479  0.5367  0.0770
12806TIP3    H159909   6.434   3.631  12.083 -1.8169  0.3409 -0.4294
12806TIP3    H259910   6.435   3.748  12.178  2.2665 -0.4071  0.6144
12807TIP3   OH259911   4.182   6.359   0.945  0.1975 -0.1738 -0.3269
12807TIP3    H159912   4.218   6.272   0.929  0.7350 -1.0119  4.1335
12807TIP3    H259913   4.091   6.342   0.972 -0.3901  0.9269 -1.5109
12808TIP3   OH259914   3.664   1.301   1.987  0.3974  0.0714 -0.2166
12808TIP3    H159915   3.625   1.216   1.964  2.4857 -1.0605  0.0799
12808TIP3    H259916   3.593   1.364   1.978 -0.6736 -1.3307 -2.8183
12809TIP3   OH259917   5.890   0.693  15.583 -0.8988  0.3768 -0.5539
12809TIP3    H159918   5.981   0.667  15.596  0.0021  2.4034 -2.1662
12809TIP3    H259919   5.862   0.646  15.505 -2.0004 -1.8399  1.0781
12810TIP3   OH259920   3.095   0.958  11.288  0.4903 -0.7679 -0.0520
12810TIP3    H159921   3.047   0.970  11.206 -0.7399  0.4707  0.7859
12810TIP3    H259922   3.035   0.910  11.345  0.2537  0.6321  0.9514
12811TIP3   OH259923   0.859   1.932  12.276 -0.1690 -0.0404  0.0770
12811TIP3    H159924   0.817   2.004  12.323 -0.6183 -0.7901  0.8619
12811TIP3    H259925   0.836   1.946  12.184 -0.3278  0.7529  0.2331
12812TIP3   OH259926   2.291   5.735  15.110 -0.0907 -0.0647  0.8430
12812TIP3    H159927   2.239   5.766  15.036  0.7688  0.7600  0.5677
12812TIP3    H259928   2.228   5.727  15.182 -0.8289 -0.3522  0.1785
12813TIP3   OH259929   5.014   4.957  12.589  0.3567  0.4843 -0.5175
12813TIP3    H159930   5.078   4.916  12.646 -0.6039 -0.0762  0.1726
12813TIP3    H259931   5.030   5.051  12.599  0.2664  0.3866  0.5826
12814TIP3   OH259932   2.134   3.971   3.054 -0.3851 -0.1991  0.6929
12814TIP3    H159933   2.211   4.027   3.043 -1.6206  1.6812  1.1927
12814TIP3    H259934   2.161   3.907   3.120  1.3776 -0.8592 -0.5783
12815TIP3   OH259935   0.484   3.738   1.851 -0.2752  0.0585  0.0787
12815TIP3    H159936   0.580   3.730   1.848 -0.2659  0.0102  0.4755
12815TIP3    H259937   0.455   3.661   1.899 -0.5862 -0.4242 -0.8553
12816TIP3   OH259938   5.755   1.524   1.198 -0.5666  0.5004 -0.3349
12816TIP3    H159939   5.692   1.523   1.269  0.9784 -0.0072  1.0870
12816TIP3    H259940   5.702   1.520   1.118 -2.3324  1.0715  0.7677
12817TIP3   OH259941   2.091   4.868  12.040  0.5029  0.1411 -0.0320
12817TIP3    H159942   2.142   4.936  11.996  0.9803  0.0361  0.3482
12817TIP3    H259943   2.000   4.888  12.018  0.7189  0.1251 -1.0133
12818TIP3   OH259944   0.257   6.594  13.003 -0.2352  0.4135 -0.0934
12818TIP3    H159945   0.236   6.674  12.955  0.5191 -0.0177 -1.1806
12818TIP3    H259946   0.207   6.525  12.960 -2.1685  0.5002  1.8578
12819TIP3   OH259947   5.678   3.563  13.123 -0.2299 -1.1177  0.1855
12819TIP3    H159948   5.586   3.558  13.100 -0.2632  0.0003  0.0185
12819TIP3    H259949   5.679   3.568  13.219 -0.5474  1.7484  0.1139
12820TIP3   OH259950   2.608   6.753   5.507 -0.3405 -0.0097  0.0601
12820TIP3    H159951   2.589   6.836   5.463  0.6975  0.5442  0.6225
12820TIP3    H259952   2.610   6.775   5.600  1.6364 -0.2663  0.1304
12821TIP3   OH259953   6.630   2.051   0.683  0.1320 -0.5865  0.1208
12821TIP3    H159954   6.606   1.968   0.641  1.6709 -0.0063 -2.0713
12821TIP3    H259955   6.706   2.029   0.738 -0.8572 -1.0242  1.3574
12822TIP3   OH259956   1.205   0.630   1.770  0.8339 -0.2962 -0.3271
12822TIP3    H159957   1.207   0.707   1.712 -2.3087  0.8845  0.9510
12822TIP3    H259958   1.230   0.664   1.856 -1.6348 -0.3451  0.4898
12823TIP3   OH259959   3.222   5.079   4.892  0.1760 -0.2178  0.3814
12823TIP3    H159960   3.238   5.146   4.959 -3.2928 -0.5721  1.8304
12823TIP3    H259961   3.190   5.128   4.816  1.9233  0.0141 -0.2452
12824TIP3   OH259962   0.607   0.158  12.601  0.4028 -0.2872 -0.0938
12824TIP3    H159963   0.545   0.199  12.661 -0.1478 -0.8968 -0.2283
12824TIP3    H259964   0.657   0.230  12.564 -1.2935  0.3851 -1.1856
12825TIP3   OH259965   2.806   4.803   0.967  0.1794  0.1658 -0.0983
12825TIP3    H159966   2.755   4.745   0.911 -1.5798  0.3022  1.2809
12825TIP3    H259967   2.887   4.754   0.986  0.2865 -0.3424 -1.7707
12826TIP3   OH259968   2.615   4.576   1.753  0.2351 -0.3271  0.0995
12826TIP3    H159969   2.634   4.661   1.792  3.0308 -0.3404 -1.0327
12826TIP3    H259970   2.541   4.592   1.694 -0.2402  0.9435  0.9982
12827TIP3   OH259971   1.871   0.681   4.045  0.4175 -0.5850  0.2399
12827TIP3    H159972   1.819   0.627   4.105  1.1713  0.9166  2.3594
12827TIP3    H259973   1.880   0.765   4.089  1.5588  0.4050 -1.7287
12828TIP3   OH259974   2.223   3.549   2.311 -0.3027  0.4727 -0.0829
12828TIP3    H159975   2.257   3.596   2.388  1.7050 -1.6907  0.4637
12828TIP3    H259976   2.213   3.459   2.341 -0.0888 -0.3000 -2.2006
12829TIP3   OH259977   5.955   2.593   5.897 -0.2717  0.0138  0.6812
12829TIP3    H159978   6.011   2.639   5.960 -0.8246  0.9845  0.4939
12829TIP3    H259979   5.871   2.584   5.941  0.0962 -1.7539  1.0967
12830TIP3   OH259980   2.047   1.190  14.614  0.1348  0.3565  0.0456
12830TIP3    H159981   2.087   1.172  14.699  2.1900 -0.5046 -1.0345
12830TIP3    H259982   1.978   1.123  14.606  1.5371 -1.1483  0.0357
12831TIP3   OH259983   1.352   2.580  17.030  0.1871 -0.6936  0.2885
12831TIP3    H159984   1.269   2.572  16.984 -0.7942  1.8080  1.4775
12831TIP3    H259985   1.418   2.573  16.961 -1.1186  0.1436 -1.0916
12832TIP3   OH259986   5.029   1.129   1.659 -0.5569 -0.2713  0.0146
12832TIP3    H159987   5.002   1.088   1.577 -2.3592 -0.2447  0.5488
12832TIP3    H259988   5.086   1.065   1.701 -2.5833 -1.9260  0.4201
12833TIP3   OH259989   5.935   1.434   0.891 -0.3102 -0.0463  0.1524
12833TIP3    H159990   6.020   1.399   0.866  0.3165  0.8263  0.9404
12833TIP3    H259991   5.872   1.366   0.868  0.4805 -0.2778 -1.4054
12834TIP3   OH259992   2.706   2.222   1.012  0.3619 -0.0815 -0.5425
12834TIP3    H159993   2.740   2.139   0.981  1.2917 -0.5881  1.6677
12834TIP3    H259994   2.611   2.208   1.019  0.6110 -1.3291  0.7517
12835TIP3   OH259995   2.627   6.338   6.416 -0.7361 -0.2274  1.1849
12835TIP3    H159996   2.608   6.249   6.385 -1.1624  0.1764  0.2501
12835TIP3    H259997   2.570   6.350   6.492 -0.0019 -1.0751  1.8911
12836TIP3   OH259998   0.028   5.129   5.953 -0.0161 -0.0254 -0.4343
12836TIP3    H159999   0.066   5.041   5.952  0.0004 -0.0223 -1.6581
12836TIP3    H260000   0.103   5.187   5.941  0.2124  0.3052  1.9840
12837TIP3   OH260001   1.378   5.222   0.049 -0.1080 -0.2445 -0.1221
12837TIP3    H160002   1.392   5.141  -0.001 -1.3501 -1.2010  0.9828
12837TIP3    H260003   1.429   5.288   0.003 -1.4891 -0.9601 -2.9042
12838TIP3   OH260004   4.810   6.255  13.745  0.0967  0.3391 -0.6557
12838TIP3    H160005   4.721   6.289  13.755 -0.3320 -0.9277  0.1638
12838TIP3    H260006   4.865   6.315  13.795 -0.0130  2.0526 -2.4538
12839TIP3   OH260007   4.800   2.098  11.934  0.2705  0.1465  0.4325
12839TIP3    H160008   4.825   2.160  11.866  0.4948 -1.8624 -1.4339
12839TIP3    H260009   4.718   2.133  11.970 -0.2967  0.8845 -1.4629
12840TIP3   OH260010   2.697   4.937  11.422  0.4601  0.2149 -0.2717
12840TIP3    H160011   2.622   4.912  11.476  0.0510  1.5016 -0.2117
12840TIP3    H260012   2.661   4.956  11.336  0.8251  0.1116 -0.4506
12841TIP3   OH260013   1.229   4.550  15.615  0.1359  0.2273 -0.5168
12841TIP3    H160014   1.257   4.618  15.676  1.1123 -0.1469 -0.5435
12841TIP3    H260015   1.273   4.572  15.533 -0.0171 -0.1034 -0.6891
12842TIP3   OH260016   2.687   2.052  14.459 -0.2702 -0.4743 -0.8789
12842TIP3    H160017   2.726   2.137  14.478  3.3077 -1.3495 -3.2138
12842TIP3    H260018   2.732   1.991  14.517 -3.1709 -0.8611  1.1505
12843TIP3   OH260019   0.738   2.442   0.626 -0.0515  0.0306 -0.1565
12843TIP3    H160020   0.652   2.482   0.613 -1.1322 -1.9301  0.5692
12843TIP3    H260021   0.761   2.406   0.541  0.0383  0.5221 -0.3423
12844TIP3   OH260022   6.321   5.039   5.130  0.2860 -0.3172 -0.4181
12844TIP3    H160023   6.353   5.079   5.211 -0.5761  0.4846 -0.4584
12844TIP3    H260024   6.394   5.046   5.068  0.3699  0.5916 -0.2169
12845TIP3   OH260025   0.610   2.339  14.704  0.0473 -0.1079  0.2482
12845TIP3    H160026   0.530   2.312  14.749 -0.5689 -0.3705 -0.9625
12845TIP3    H260027   0.580   2.377  14.621  1.1909 -1.1317 -0.6853
12846TIP3   OH260028   6.646   3.222   6.108 -0.7945 -0.3434  0.2584
12846TIP3    H160029   6.685   3.262   6.186 -0.7296  1.0432 -0.4638
12846TIP3    H260030   6.720   3.178   6.065 -0.2846  1.0685 -0.3537
12847TIP3   OH260031   0.750   5.897  16.350 -0.2219 -0.8030  0.4185
12847TIP3    H160032   0.794   5.981  16.365  0.2004 -1.2098  1.4974
12847TIP3    H260033   0.797   5.858  16.277  1.4404 -1.3740  1.7513
12848TIP3   OH260034   3.120   5.725   3.548 -0.3165 -0.1176  0.0378
12848TIP3    H160035   3.044   5.697   3.497 -0.0203 -2.5764  0.8193
12848TIP3    H260036   3.193   5.720   3.486 -0.7462  2.7157 -0.8518
12849TIP3   OH260037   5.892   0.121  17.213 -0.0822  0.0540 -0.7297
12849TIP3    H160038   5.868   0.058  17.145 -0.5683 -0.9583  0.3523
12849TIP3    H260039   5.980   0.151  17.189  0.2488 -1.2035 -1.1504
12850TIP3   OH260040   0.645   1.534  17.120 -0.5248  0.7730  0.6647
12850TIP3    H160041   0.722   1.528  17.063 -0.6035  1.0137  0.5328
12850TIP3    H260042   0.572   1.505  17.066 -0.6189  1.1238  0.6041
12851TIP3   OH260043   6.278   6.395  12.761 -0.5244 -0.1339 -0.4143
12851TIP3    H160044   6.250   6.304  12.765 -1.0189  0.0539  1.6969
12851TIP3    H260045   6.211   6.439  12.709 -0.6863 -0.8273 -0.8019
12852TIP3   OH260046   6.488   5.785   2.202  1.2307  0.6740  0.0138
12852TIP3    H160047   6.532   5.869   2.189  0.0448  1.2221 -0.5836
12852TIP3    H260048   6.518   5.731   2.129  0.2319  1.3467 -0.9168
12853TIP3   OH260049   4.341   1.130  14.704 -0.2849 -0.3973  0.1021
12853TIP3    H160050   4.407   1.200  14.711  0.6855 -1.2765  0.0613
12853TIP3    H260051   4.361   1.071  14.776 -0.2380 -1.3153 -0.6403
12854TIP3   OH260052   2.490   2.389   5.286  0.1614 -0.3077 -0.0194
12854TIP3    H160053   2.507   2.476   5.321 -1.4689  0.0776 -0.1316
12854TIP3    H260054   2.574   2.344   5.293  1.0111  1.2295  0.1276
12855TIP3   OH260055   1.485   5.804   1.928 -0.7892 -1.0316 -0.9070
12855TIP3    H160056   1.410   5.862   1.943 -0.2838 -0.4696 -0.5077
12855TIP3    H260057   1.554   5.840   1.983  0.7356  0.2850 -3.4755
12856TIP3   OH260058   2.233   1.890  16.282  0.1349  0.4920 -0.1430
12856TIP3    H160059   2.327   1.882  16.266  0.0794  0.5374 -0.5139
12856TIP3    H260060   2.200   1.938  16.206 -0.1982  0.4273 -0.0408
12857TIP3   OH260061   0.112   3.421  16.647 -0.5706  0.0419 -0.2263
12857TIP3    H160062   0.178   3.355  16.670  0.6662  0.9767 -0.9595
12857TIP3    H260063   0.100   3.472  16.728 -0.8039 -0.4636  0.0623
12858TIP3   OH260064   6.238   4.254   6.786  0.5189 -0.1670  0.3653
12858TIP3    H160065   6.272   4.194   6.720 -0.6321  0.4289 -0.8350
12858TIP3    H260066   6.292   4.239   6.863  0.2974 -2.6835  0.0953
12859TIP3   OH260067   1.752   4.676   3.098  0.0192  0.3044 -0.3574
12859TIP3    H160068   1.798   4.669   3.014 -0.3677 -0.4208 -0.5122
12859TIP3    H260069   1.736   4.770   3.109  3.0346  0.8267  0.5064
12860TIP3   OH260070   6.026   1.039   3.275  0.0148  0.3571 -0.6576
12860TIP3    H160071   6.034   0.946   3.296  0.1663  0.6419  0.6241
12860TIP3    H260072   6.112   1.076   3.293 -0.1006  0.7786 -0.9568
12861TIP3   OH260073   1.521   5.669  14.290  0.1848  0.6756 -0.1903
12861TIP3    H160074   1.434   5.676  14.329  0.0196 -1.2372 -0.1337
12861TIP3    H260075   1.505   5.669  14.196 -0.0947 -1.4645 -0.1838
12862TIP3   OH260076   6.809   6.711  17.005 -0.2353 -0.0406 -0.2350
12862TIP3    H160077   6.789   6.677  16.918 -1.0205  0.8006 -0.3967
12862TIP3    H260078   6.892   6.758  16.994 -1.6820  2.4840 -1.2304
12863TIP3   OH260079   3.778   6.235  15.547 -0.3372 -0.4874 -0.3181
12863TIP3    H160080   3.781   6.209  15.455 -0.7660  0.4070 -0.5868
12863TIP3    H260081   3.779   6.331  15.546 -0.7458 -0.4601  0.5926
12864TIP3   OH260082   6.530   0.870   2.051  0.5148  0.3994  0.2750
12864TIP3    H160083   6.481   0.878   1.969 -1.0956  0.1735  1.1696
12864TIP3    H260084   6.522   0.778   2.076  1.9790  0.2059  0.1280
12865TIP3   OH260085   5.277   2.519  12.346 -0.0104 -0.1645 -0.0730
12865TIP3    H160086   5.217   2.474  12.405  0.2226 -1.1094 -0.5385
12865TIP3    H260087   5.362   2.476  12.361  0.2549  0.2388 -0.3962
12866TIP3   OH260088   2.691   3.388  16.441 -0.5103 -0.0931  0.0466
12866TIP3    H160089   2.716   3.443  16.515  1.2888  0.5618 -0.9784
12866TIP3    H260090   2.644   3.447  16.382  1.6992  0.5389 -1.2034
12867TIP3   OH260091   4.688   1.249   3.421 -0.4723 -0.6983  0.2282
12867TIP3    H160092   4.672   1.304   3.497  1.1211 -1.2904  1.0506
12867TIP3    H260093   4.689   1.310   3.347  2.3345  0.6591  1.2262
12868TIP3   OH260094   1.106   0.496  13.872  0.2053 -0.0808  0.0297
12868TIP3    H160095   1.200   0.504  13.889  0.2835 -1.7284  0.5249
12868TIP3    H260096   1.097   0.412  13.827 -0.8892  0.7022 -1.2801
12869TIP3   OH260097   4.877   5.133   5.238 -0.2450  0.0491 -0.3352
12869TIP3    H160098   4.904   5.197   5.173  1.2459  0.0248  0.2289
12869TIP3    H260099   4.878   5.181   5.321 -1.4671 -0.0956 -0.2206
12870TIP3   OH260100   2.923   6.634   0.986 -0.1848 -0.3149 -0.2137
12870TIP3    H160101   3.006   6.650   1.032  0.2254 -1.4535 -0.5106
12870TIP3    H260102   2.865   6.703   1.016  0.5289 -0.1684  0.8923
12871TIP3   OH260103   2.836   4.374   1.404  0.6396 -0.5517  0.6517
12871TIP3    H160104   2.808   4.439   1.340 -0.0853 -2.1662 -0.7347
12871TIP3    H260105   2.809   4.290   1.367  2.2518 -1.7330  2.0006
12872TIP3   OH260106   5.177   6.732   5.692  0.2006  0.0796 -0.2568
12872TIP3    H160107   5.253   6.764   5.643  0.1373  1.8410  0.7153
12872TIP3    H260108   5.157   6.803   5.753  0.9479 -2.3779  3.1138
12873TIP3   OH260109   3.805   5.170   1.602  0.1385  0.3485  0.9224
12873TIP3    H160110   3.811   5.102   1.535 -1.5251  0.8488  0.2261
12873TIP3    H260111   3.880   5.227   1.584  0.8638 -0.6173  0.7748
12874TIP3   OH260112   5.516   1.825   1.077 -0.7160  0.3154 -0.5638
12874TIP3    H160113   5.608   1.844   1.058 -0.4595 -0.5341 -0.2426
12874TIP3    H260114   5.497   1.745   1.028 -0.8337 -0.3584  0.5253
12875TIP3   OH260115   1.458   2.298  11.233 -0.1964 -0.1000  0.4254
12875TIP3    H160116   1.529   2.297  11.169 -0.1292 -1.6275  0.4852
12875TIP3    H260117   1.382   2.329  11.184  0.4892  1.6198  0.3798
12876TIP3   OH260118   1.898   5.424   5.630 -0.3433 -0.9073 -0.6431
12876TIP3    H160119   1.883   5.390   5.719  0.7757  0.3331  0.0555
12876TIP3    H260120   1.864   5.356   5.572 -0.7002 -1.9402  0.7315
12877TIP3   OH260121   5.623   4.014   1.312  0.2568  0.0405 -0.9927
12877TIP3    H160122   5.578   4.054   1.238  1.7926  1.0880 -1.4097
12877TIP3    H260123   5.708   4.058   1.316 -0.8331  2.2954  3.2714
12878TIP3   OH260124   4.108   3.936  12.295 -0.2904 -0.2539 -0.1746
12878TIP3    H160125   4.046   4.002  12.266 -1.3464 -1.5728 -1.0258
12878TIP3    H260126   4.067   3.897  12.372 -0.6727 -1.2948 -0.8810
12879TIP3   OH260127   5.391   6.278   5.993  0.2835 -0.3098 -0.3687
12879TIP3    H160128   5.364   6.278   6.085 -0.6966 -0.3745 -0.6452
12879TIP3    H260129   5.477   6.238   5.994 -0.3727 -1.7920  0.3531
12880TIP3   OH260130   4.057   1.377  14.258 -0.0945 -0.5264 -0.6361
12880TIP3    H160131   4.001   1.313  14.301 -0.3155  0.4964  0.6647
12880TIP3    H260132   4.144   1.362  14.297 -0.0156 -0.4404 -0.7780
12881TIP3   OH260133   4.244   4.885   4.545  0.4711  0.1575 -0.0942
12881TIP3    H160134   4.264   4.792   4.536 -0.5455 -0.2527  1.4717
12881TIP3    H260135   4.199   4.908   4.463  2.2355 -0.2431 -1.2499
12882TIP3   OH260136   0.083   2.398  11.067  0.4021 -0.4275 -0.0695
12882TIP3    H160137   0.036   2.316  11.080  0.7629 -0.8788 -1.4582
12882TIP3    H260138   0.134   2.384  10.987  2.8654  0.0634  1.3230
12883TIP3   OH260139   6.155   0.418   3.946 -0.6902  0.4974  0.0666
12883TIP3    H160140   6.164   0.510   3.969 -0.9893  0.3241  0.9212
12883TIP3    H260141   6.177   0.371   4.027 -2.2748 -0.1357  0.1628
12884TIP3   OH260142   0.438   0.844  14.372  0.3073  0.4988  0.0159
12884TIP3    H160143   0.420   0.753  14.394  1.6216  0.1240 -0.3544
12884TIP3    H260144   0.385   0.861  14.294  0.9445 -0.3300 -0.6174
12885TIP3   OH260145   0.338   3.124   6.026 -1.2396 -0.3576 -0.6790
12885TIP3    H160146   0.399   3.051   6.020 -1.4294 -0.4818 -1.1023
12885TIP3    H260147   0.356   3.164   6.111  1.6735  1.5722 -2.0449
12886TIP3   OH260148   0.578   2.374  12.539  0.0298  0.0879  0.0228
12886TIP3    H160149   0.658   2.323  12.538 -1.0563 -1.7202 -1.3969
12886TIP3    H260150   0.532   2.345  12.618 -0.6703 -1.3515 -0.8787
12887TIP3   OH260151   0.041   6.051  11.374 -0.4349 -0.5288  0.5274
12887TIP3    H160152  -0.033   6.033  11.316 -1.5744  0.2219  1.7043
12887TIP3    H260153   0.055   5.970  11.422 -1.1016 -0.4115  0.9364
12888TIP3   OH260154   4.294   3.407   3.461 -0.1930  0.3502  0.1898
12888TIP3    H160155   4.327   3.496   3.453 -0.4929  0.5036  0.6382
12888TIP3    H260156   4.248   3.405   3.545 -0.9124  0.0100 -0.2046
12889TIP3   OH260157   0.181   4.998  17.150  0.0418  0.1972  0.0511
12889TIP3    H160158   0.185   4.959  17.237 -1.3479 -0.4919 -0.1703
12889TIP3    H260159   0.272   5.018  17.129  1.0862 -4.1018 -0.3457
12890TIP3   OH260160   3.038   5.163   2.158  0.0790 -0.2482 -0.1048
12890TIP3    H160161   3.010   5.217   2.085 -0.2981  0.3219  0.4532
12890TIP3    H260162   3.055   5.077   2.120  0.1431  0.1134 -0.9017
12891TIP3   OH260163   4.969   6.793  12.327 -0.1942  0.7466 -0.2514
12891TIP3    H160164   5.020   6.775  12.248 -1.0087 -0.8838 -0.4496
12891TIP3    H260165   5.009   6.740  12.395 -1.0455  0.1683 -0.1893
12892TIP3   OH260166   0.333   2.140  16.715 -0.0100 -0.2045  0.0734
12892TIP3    H160167   0.306   2.050  16.732 -0.5553 -0.2146 -0.7799
12892TIP3    H260168   0.415   2.132  16.667 -0.0637 -0.2412 -0.0119
12893TIP3   OH260169   6.678   6.475  13.288 -0.1712 -0.1862 -0.0125
12893TIP3    H160170   6.610   6.458  13.354  0.3378  0.1121  0.6032
12893TIP3    H260171   6.760   6.475  13.338  0.4920 -2.2288 -1.0024
12894TIP3   OH260172   2.571   4.857   1.800  0.2321  0.0082  1.3300
12894TIP3    H160173   2.601   4.943   1.828  1.7184  0.1069 -0.3754
12894TIP3    H260174   2.539   4.870   1.711 -1.9549 -0.7551  1.9502
12895TIP3   OH260175   5.420   1.711  11.205  0.2597  0.2538 -0.5053
12895TIP3    H160176   5.389   1.620  11.210  0.9728  0.0216 -0.1354
12895TIP3    H260177   5.416   1.732  11.112 -0.6430  0.1110 -0.5114
12896TIP3   OH260178   6.294   5.230   1.349 -0.2921  0.4378 -0.0571
12896TIP3    H160179   6.269   5.321   1.338 -2.2794  0.0706  0.9549
12896TIP3    H260180   6.305   5.196   1.260 -3.6790  0.6368 -0.6721
12897TIP3   OH260181   4.260   4.275   0.687 -0.0245 -0.5044 -0.5746
12897TIP3    H160182   4.309   4.243   0.763  1.0397 -2.1541 -1.8928
12897TIP3    H260183   4.184   4.217   0.680 -1.1724  0.8122  0.2764
12898TIP3   OH260184   2.942   6.556   1.633  0.0899  0.3147 -0.0945
12898TIP3    H160185   3.023   6.597   1.603  1.3608 -0.7713  1.6598
12898TIP3    H260186   2.892   6.628   1.673  0.8510  0.7363  0.1214
12899TIP3   OH260187   1.669   1.406   2.662 -0.3727  0.0635  0.5892
12899TIP3    H160188   1.593   1.463   2.663  0.0556  0.6526  0.2887
12899TIP3    H260189   1.686   1.390   2.569 -0.9026 -1.1266  0.6762
12900TIP3   OH260190   3.892   3.374   2.646  0.2297  0.2277 -0.0566
12900TIP3    H160191   3.927   3.285   2.644 -0.5459 -0.0805 -0.1459
12900TIP3    H260192   3.828   3.376   2.575 -2.6634 -0.3758  2.3503
12901TIP3   OH260193   5.115   0.531  12.006  0.6357 -0.1558 -0.1444
12901TIP3    H160194   5.155   0.609  12.044 -1.2415  0.4951  0.5980
12901TIP3    H260195   5.086   0.559  11.919  1.4471 -0.5333 -0.5498
12902TIP3   OH260196   5.414   2.027  16.134  0.0904  0.0700 -0.2065
12902TIP3    H160197   5.460   1.949  16.104 -0.8087 -0.3520 -0.5299
12902TIP3    H260198   5.362   2.055  16.058  1.3456  1.7294 -0.5202
12903TIP3   OH260199   6.153   2.335   2.930 -0.0029  0.0588  0.0234
12903TIP3    H160200   6.154   2.243   2.904 -0.5043  0.4941 -1.6770
12903TIP3    H260201   6.065   2.350   2.963  0.0320 -0.0279  0.1571
12904TIP3   OH260202   1.410   0.198  11.822  0.3700 -0.2414  0.2600
12904TIP3    H160203   1.463   0.159  11.891  1.2128  0.7675  0.2183
12904TIP3    H260204   1.320   0.188  11.852  0.6944 -0.3258  1.2336
12905TIP3   OH260205   0.884   0.381  15.430 -0.1601  0.2440  0.2819
12905TIP3    H160206   0.791   0.404  15.421 -0.2764  0.4204  1.7311
12905TIP3    H260207   0.913   0.365  15.340 -0.5411  4.1648 -0.7387
12906TIP3   OH260208   1.732   5.374   0.688 -0.1757 -0.0646 -0.3292
12906TIP3    H160209   1.807   5.402   0.634 -0.5463 -1.6032 -1.7455
12906TIP3    H260210   1.664   5.438   0.668  0.3519  0.6242  0.0057
12907TIP3   OH260211   3.808   2.251  14.686 -0.3370 -0.0089  0.6664
12907TIP3    H160212   3.810   2.193  14.763  0.1669 -0.4394  0.3342
12907TIP3    H260213   3.771   2.333  14.720  0.7817  0.1429  1.6196
12908TIP3   OH260214   4.438   4.130  12.683  0.3413  0.3550  0.6697
12908TIP3    H160215   4.496   4.176  12.622 -0.8402  0.7748 -0.1581
12908TIP3    H260216   4.458   4.169  12.769 -0.0654  1.8636  0.1082
12909TIP3   OH260217   0.346   3.537   2.032 -0.0952 -0.2780  0.0149
12909TIP3    H160218   0.383   3.546   2.120 -1.0712 -0.4839  0.4558
12909TIP3    H260219   0.254   3.516   2.046 -0.5375  0.7821 -1.0650
12910TIP3   OH260220   0.331   4.467   4.294  0.2844  0.0510  0.6809
12910TIP3    H160221   0.387   4.469   4.372  0.3248 -0.0663  0.6553
12910TIP3    H260222   0.373   4.404   4.236  0.9301  1.0421  0.0463
12911TIP3   OH260223   3.281   4.548   5.848 -0.1562 -0.6640 -0.8276
12911TIP3    H160224   3.374   4.560   5.869 -0.2990 -0.3391 -0.3622
12911TIP3    H260225   3.240   4.528   5.932 -0.3447 -1.8949 -1.1856
12912TIP3   OH260226   3.100   5.541   3.803  0.1508  0.1739 -0.3308
12912TIP3    H160227   3.169   5.593   3.762 -0.9931  1.7737 -0.3174
12912TIP3    H260228   3.032   5.534   3.735 -0.6006  0.5333  0.3677
12913TIP3   OH260229   5.326   1.260  14.864 -0.1972 -0.1279  0.2539
12913TIP3    H160230   5.275   1.285  14.941 -1.6129 -0.6873 -0.4786
12913TIP3    H260231   5.318   1.165  14.859  1.2218 -0.2799  0.3054
12914TIP3   OH260232   5.654   3.661  15.967  0.2085  0.7038 -0.6762
12914TIP3    H160233   5.614   3.692  16.048 -0.0530  1.1336 -0.9584
12914TIP3    H260234   5.597   3.590  15.938  0.7030  0.0777 -0.1213
12915TIP3   OH260235   4.653   3.589  11.819  0.2374 -0.2039 -0.3506
12915TIP3    H160236   4.745   3.574  11.843  0.1734  0.9396  0.7273
12915TIP3    H260237   4.632   3.517  11.760  1.4536 -1.2063  0.3793
12916TIP3   OH260238   2.952   4.203  15.107 -0.4004 -0.5104 -0.4733
12916TIP3    H160239   2.945   4.219  15.013  1.4425  0.5328 -0.4908
12916TIP3    H260240   2.999   4.120  15.113  2.5666  1.0247 -0.6004
12917TIP3   OH260241   0.901   5.197   5.555 -0.2383 -0.2188  0.1760
12917TIP3    H160242   0.876   5.119   5.506 -1.1883 -0.4038  0.9299
12917TIP3    H260243   0.877   5.177   5.646 -1.9537  1.5144  0.1619
12918TIP3   OH260244   0.958   3.170   5.785  0.6705 -0.3502  0.1682
12918TIP3    H160245   0.995   3.251   5.750  2.0129 -1.3166 -0.7471
12918TIP3    H260246   0.914   3.130   5.710 -0.3403 -0.3089  0.7137
12919TIP3   OH260247   2.199   1.040   1.548 -0.3661 -0.3256 -0.8541
12919TIP3    H160248   2.258   1.022   1.621 -0.3531 -0.5470 -0.9204
12919TIP3    H260249   2.204   1.135   1.536 -0.4017 -0.2838 -0.5379
12920TIP3   OH260250   5.618   1.823  14.475  0.4428  0.3638  0.2563
12920TIP3    H160251   5.640   1.886  14.543 -0.8283 -0.6643  1.6982
12920TIP3    H260252   5.620   1.738  14.519 -1.1846 -0.2623 -0.7675
12921TIP3   OH260253   5.605   6.606   0.142  0.0623 -0.4814  0.2398
12921TIP3    H160254   5.602   6.640   0.052 -1.5861  0.4207  0.5939
12921TIP3    H260255   5.635   6.680   0.194  1.4214 -1.1245  0.4129
12922TIP3   OH260256   2.393   4.940   3.008  0.4511  0.4860 -0.2116
12922TIP3    H160257   2.392   4.895   2.924  0.4259  0.2748 -0.0973
12922TIP3    H260258   2.349   5.024   2.991  0.1532  0.3074 -0.3308
12923TIP3   OH260259   5.107   3.076   4.690 -0.1703  0.2385 -0.0602
12923TIP3    H160260   5.143   3.123   4.766 -1.5276  0.6885  0.3387
12923TIP3    H260261   5.115   3.139   4.618 -1.8830  1.1117  0.4494
12924TIP3   OH260262   1.066   5.804  16.413 -0.2929  0.7846 -0.1711
12924TIP3    H160263   1.020   5.739  16.467  0.8945  0.9261  1.0544
12924TIP3    H260264   1.104   5.753  16.341 -0.4842  0.3259  0.0500
12925TIP3   OH260265   3.916   5.275  16.026  0.0805 -0.5296 -0.2620
12925TIP3    H160266   3.999   5.314  15.999  0.1517 -0.1827  0.4441
12925TIP3    H260267   3.930   5.181  16.020  0.1271 -0.4733 -1.3272
12926TIP3   OH260268   4.371   0.053   3.083 -0.1521 -0.0749 -0.1344
12926TIP3    H160269   4.409   0.068   3.170  2.7394 -1.0410 -1.1078
12926TIP3    H260270   4.295  -0.002   3.099  1.6835 -2.3058  1.6994
12927TIP3   OH260271   1.068   0.922  13.057  0.0211  0.1577  0.3758
12927TIP3    H160272   1.152   0.881  13.035 -0.8626 -3.3835  2.6789
12927TIP3    H260273   1.084   0.969  13.139  0.7365  3.8502 -1.6608
12928TIP3   OH260274   6.164   3.606  12.717  0.1404  0.5828 -0.1819
12928TIP3    H160275   6.089   3.549  12.735 -0.3310  0.7695 -1.4725
12928TIP3    H260276   6.159   3.623  12.624  0.6015  2.2889  0.0831
12929TIP3   OH260277   4.152   0.144   2.238 -0.0522  0.8975 -0.2984
12929TIP3    H160278   4.171   0.078   2.305  0.4918 -0.8606 -2.0992
12929TIP3    H260279   4.076   0.110   2.192 -1.5381  2.9671  0.4666
12930TIP3   OH260280   0.772   1.582  13.600  0.3996  0.4146  0.2265
12930TIP3    H160281   0.818   1.653  13.645  0.5967  0.0114  0.6706
12930TIP3    H260282   0.811   1.580  13.513 -0.3512  1.5518 -0.1532
12931TIP3   OH260283   3.425   5.800   3.157  0.0618  0.6152  0.0144
12931TIP3    H160284   3.331   5.787   3.145  0.1981 -0.5030 -0.0054
12931TIP3    H260285   3.462   5.787   3.069  0.2825  0.5405  0.1187
12932TIP3   OH260286   2.007   3.544  14.556 -0.2238 -0.4531 -0.2043
12932TIP3    H160287   2.048   3.527  14.641 -0.9229 -0.9632  0.0453
12932TIP3    H260288   1.976   3.458  14.527  0.5242 -0.3868 -1.2642
12933TIP3   OH260289   0.021   2.143   3.955 -0.0532 -0.3545  0.2832
12933TIP3    H160290   0.030   2.052   3.927 -0.9767 -0.4623  0.3217
12933TIP3    H260291  -0.050   2.178   3.901  1.0100  0.6687 -0.5218
12934TIP3   OH260292   5.030   2.826   3.411 -0.5129  0.5506  0.3088
12934TIP3    H160293   5.044   2.883   3.336 -1.4012  1.2558  0.6602
12934TIP3    H260294   5.049   2.880   3.488 -0.0455 -0.0277  0.6114
12935TIP3   OH260295   1.289   2.532   4.465 -0.0385  0.1457  0.4354
12935TIP3    H160296   1.271   2.563   4.554  0.4542 -1.4155  1.1297
12935TIP3    H260297   1.265   2.439   4.468  0.9976 -0.1832 -0.7481
12936TIP3   OH260298   2.468   4.635  13.331 -0.2171  0.2179 -0.2261
12936TIP3    H160299   2.542   4.691  13.308 -0.6737  0.5131 -1.0414
12936TIP3    H260300   2.477   4.620  13.425  1.3618 -0.4886 -0.4530
12937TIP3   OH260301   1.069   3.641  17.109  0.5921 -0.1037 -0.1276
12937TIP3    H160302   1.031   3.556  17.132 -1.4116  0.2685 -1.7242
12937TIP3    H260303   1.161   3.634  17.136  0.4020 -2.6064  0.1760
12938TIP3   OH260304   2.587   5.538  11.757 -0.1237 -0.0334 -0.3937
12938TIP3    H160305   2.621   5.607  11.813 -0.3254  0.9571 -1.4528
12938TIP3    H260306   2.610   5.565  11.668  1.6622 -2.3783 -0.7363
12939TIP3   OH260307   1.695   1.210   1.552 -0.6012 -0.0573  0.4742
12939TIP3    H160308   1.643   1.211   1.472 -0.1156  0.7027  0.1627
12939TIP3    H260309   1.655   1.276   1.608  0.6233  1.2689 -0.1659
12940TIP3   OH260310   3.087   6.322  15.349 -0.4318  0.2839 -0.0608
12940TIP3    H160311   3.062   6.280  15.266 -1.8819  0.9400  0.0141
12940TIP3    H260312   3.014   6.380  15.370 -0.1024  0.1166  1.7042
12941TIP3   OH260313   1.438   2.412  16.607  0.0609 -0.0159 -0.7391
12941TIP3    H160314   1.410   2.420  16.516 -0.8276 -0.4149 -0.5106
12941TIP3    H260315   1.356   2.410  16.657  0.4946 -1.4248 -0.0599
12942TIP3   OH260316   2.021   4.458  16.554 -0.2876 -0.3869 -0.6259
12942TIP3    H160317   1.929   4.453  16.581 -0.6658  1.9237 -1.2656
12942TIP3    H260318   2.019   4.506  16.471  1.5773  0.7824 -0.0499
12943TIP3   OH260319   3.553   2.305   5.789  0.7545  0.6622 -0.1791
12943TIP3    H160320   3.611   2.379   5.810 -1.7762  2.8749 -0.3731
12943TIP3    H260321   3.518   2.326   5.703  0.3534 -1.0784 -0.4717
12944TIP3   OH260322   4.863   1.575   4.478  0.1570  0.3822 -0.4361
12944TIP3    H160323   4.773   1.546   4.465  0.3086 -0.2809 -0.0392
12944TIP3    H260324   4.890   1.533   4.559  0.6287  1.0657 -0.2322
12945TIP3   OH260325   4.067   4.601  13.722  0.7686 -0.3117  0.2104
12945TIP3    H160326   4.087   4.620  13.630 -0.1649  0.7052  0.1904
12945TIP3    H260327   4.152   4.597  13.765  1.1744  1.7556 -0.2560
12946TIP3   OH260328   1.128   6.436  16.661 -0.5264 -0.6595 -0.9197
12946TIP3    H160329   1.150   6.434  16.755 -0.6461  4.9235 -0.4883
12946TIP3    H260330   1.034   6.449  16.659 -0.4935 -0.5526 -1.8180
12947TIP3   OH260331   6.584   5.490   2.091  0.3350 -0.1846  0.1320
12947TIP3    H160332   6.514   5.487   2.026  1.1748 -0.5867 -0.7865
12947TIP3    H260333   6.648   5.550   2.054  1.0091 -0.7286  0.3841
12948TIP3   OH260334   1.028   4.924  10.952  0.0607  0.0573 -0.1895
12948TIP3    H160335   1.073   4.996  10.909 -0.3729  0.0181 -0.7149
12948TIP3    H260336   1.069   4.919  11.039 -0.4950  1.5196  0.1939
12949TIP3   OH260337   2.027   2.197  12.816  0.8378 -0.3160  0.6973
12949TIP3    H160338   2.057   2.180  12.905  0.4054  0.4138  0.9867
12949TIP3    H260339   1.976   2.277  12.822 -1.0853 -1.4344  0.2057
12950TIP3   OH260340   4.778   0.982  17.075 -0.1801 -0.1643  0.1190
12950TIP3    H160341   4.712   0.928  17.119 -0.0525 -0.0910  0.4077
12950TIP3    H260342   4.848   0.992  17.140  0.0150 -0.0560 -0.1030
12951TIP3   OH260343   0.798   2.226  12.610  0.6912  0.1831  0.5907
12951TIP3    H160344   0.792   2.239  12.705 -0.3698  0.1396  0.5494
12951TIP3    H260345   0.891   2.216  12.593  0.9084  0.2900  1.6182
12952TIP3   OH260346   5.806   0.927   4.960 -0.9619  0.2849  0.3199
12952TIP3    H160347   5.711   0.914   4.960 -1.0891  1.1272 -0.0809
12952TIP3    H260348   5.834   0.897   5.046 -1.6082  0.1216  0.4806
12953TIP3   OH260349   0.563   5.979  15.806  0.8993 -0.6921  0.2742
12953TIP3    H160350   0.600   6.046  15.864 -0.5460 -0.7232  1.2957
12953TIP3    H260351   0.636   5.951  15.752  1.7846  0.9412  0.5666
12954TIP3   OH260352   0.764   1.928  12.828  0.1810  1.1225 -0.4480
12954TIP3    H160353   0.688   1.960  12.877 -0.2013  1.4175 -1.2222
12954TIP3    H260354   0.839   1.953  12.881 -0.2931 -0.0480  0.8319
12955TIP3   OH260355   2.768   2.308  12.507 -0.0115 -0.4311  0.0069
12955TIP3    H160356   2.681   2.282  12.476 -0.0298 -1.1456  0.6070
12955TIP3    H260357   2.773   2.270  12.595  0.7679 -0.0798  0.1156
12956TIP3   OH260358   1.106   3.096  17.262  0.0759  0.3330 -0.3577
12956TIP3    H160359   1.149   3.024  17.216  1.2311  1.6518 -1.4321
12956TIP3    H260360   1.150   3.100  17.347  0.3160  0.0715 -0.4667
12957TIP3   OH260361   5.021   3.522  14.472 -0.4408  0.9025 -0.0100
12957TIP3    H160362   4.970   3.601  14.458 -0.7542  0.4687 -1.4604
12957TIP3    H260363   5.010   3.471  14.392 -0.3145 -0.6602  0.9248
12958TIP3   OH260364   0.346   0.567  14.379 -0.7611  0.1262 -0.1319
12958TIP3    H160365   0.345   0.482  14.423 -0.9465  0.0239 -0.3295
12958TIP3    H260366   0.257   0.601  14.390 -0.2749  1.0266  1.3378
12959TIP3   OH260367   4.601   6.557   5.957  0.4467  0.3437 -0.1736
12959TIP3    H160368   4.593   6.647   5.926 -2.3844  0.3830  0.4109
12959TIP3    H260369   4.587   6.562   6.052 -1.7527 -0.8334 -0.3582
12960TIP3   OH260370   4.835   2.609  15.641  0.0041  0.0364 -0.0177
12960TIP3    H160371   4.806   2.653  15.562  1.6644 -0.9911 -1.2612
12960TIP3    H260372   4.771   2.636  15.708  0.4401  3.6021 -0.8422
12961TIP3   OH260373   2.852   1.407   3.100  0.5574 -0.6325 -0.5003
12961TIP3    H160374   2.931   1.424   3.152  0.0518  1.0224 -0.2410
12961TIP3    H260375   2.882   1.347   3.032  1.5178 -1.8526  0.9236
12962TIP3   OH260376   1.710   1.435  11.932  0.0786  0.1540  0.1928
12962TIP3    H160377   1.663   1.472  12.007  0.3233  0.9310 -0.0211
12962TIP3    H260378   1.713   1.507  11.869  1.6110  0.1344  0.2185
12963TIP3   OH260379   3.631   0.693  16.061 -0.1092 -0.3293  0.1041
12963TIP3    H160380   3.651   0.736  15.977 -0.0869  1.4935  0.9964
12963TIP3    H260381   3.539   0.667  16.053  0.0028 -0.5344 -0.6208
12964TIP3   OH260382   0.573   3.429   4.337 -0.2324  0.2424  0.3554
12964TIP3    H160383   0.635   3.357   4.347 -1.9253 -1.6748 -1.8671
12964TIP3    H260384   0.487   3.390   4.354 -1.1489  1.9495 -0.0759
12965TIP3   OH260385   0.640   6.093   5.592  0.3268 -0.0022  0.5761
12965TIP3    H160386   0.709   6.079   5.656  1.0201  0.0468 -0.1519
12965TIP3    H260387   0.608   6.182   5.610  0.6966  0.1102  0.6772
12966TIP3   OH260388   1.198   5.334  11.979  0.0561  0.0510  0.1931
12966TIP3    H160389   1.265   5.343  12.046  1.4679  0.9055 -1.2443
12966TIP3    H260390   1.151   5.418  11.981 -1.6360 -0.8659  1.7967
12967TIP3   OH260391   5.091   4.844  13.441  0.3026  0.8256  0.3518
12967TIP3    H160392   5.016   4.896  13.469  0.6632  1.0283  0.9780
12967TIP3    H260393   5.092   4.769  13.501  1.0076  1.1922  0.8112
12968TIP3   OH260394   1.238   2.292   2.681  0.0088  0.1424  0.0756
12968TIP3    H160395   1.317   2.277   2.733  1.1497  1.7052 -1.0714
12968TIP3    H260396   1.185   2.213   2.692  0.1233  0.4099  3.6177
12969TIP3   OH260397   2.151   3.972   3.794  0.5585  0.1208 -0.2021
12969TIP3    H160398   2.192   3.947   3.877  1.0013  1.1258 -0.1037
12969TIP3    H260399   2.167   4.066   3.786 -0.0046  0.1567 -1.1400
12970TIP3   OH260400   2.143   2.634   1.867  0.5599  0.2980  0.4265
12970TIP3    H160401   2.233   2.626   1.900  0.5904 -2.1597 -0.0449
12970TIP3    H260402   2.122   2.727   1.878  2.5695  0.6506  2.0385
12971TIP3   OH260403   4.935   4.093   0.934 -0.0501 -0.1166  0.1396
12971TIP3    H160404   4.977   4.155   0.874  2.1860  0.6955  2.3991
12971TIP3    H260405   4.978   4.010   0.917 -0.5752 -0.2750 -0.4632
12972TIP3   OH260406   3.135   0.577  15.529 -0.6594 -0.3190 -0.7402
12972TIP3    H160407   3.172   0.490  15.517 -0.7847 -0.1848 -2.1934
12972TIP3    H260408   3.200   0.624  15.582 -0.4677 -1.1952 -0.1799
12973TIP3   OH260409   6.259   2.197   5.451  0.5763  0.0836  0.5158
12973TIP3    H160410   6.345   2.216   5.414  0.4308  0.4023  0.3377
12973TIP3    H260411   6.264   2.231   5.540  0.2961  1.0212  0.1779
12974TIP3   OH260412   0.214   0.067  11.438 -0.4072 -0.0368 -0.4333
12974TIP3    H160413   0.168   0.146  11.412 -0.9813 -0.2669 -0.1382
12974TIP3    H260414   0.195   0.004  11.368  0.5308  0.2532 -0.9668
12975TIP3   OH260415   0.641   6.715   4.307  0.2190 -0.7190  0.3025
12975TIP3    H160416   0.634   6.765   4.388  0.2494 -1.3639  0.7089
12975TIP3    H260417   0.735   6.697   4.298  0.4239  0.6635 -0.6963
12976TIP3   OH260418   2.834   0.545  13.401 -0.2165 -0.0897 -0.1799
12976TIP3    H160419   2.918   0.533  13.356  0.2514  0.5881  0.4961
12976TIP3    H260420   2.770   0.553  13.330 -0.1429 -3.2026 -0.7376
12977TIP3   OH260421   5.639   1.672  15.857  0.4405  0.2767  0.3551
12977TIP3    H160422   5.659   1.764  15.843 -1.6252  0.9051  1.0262
12977TIP3    H260423   5.694   1.624  15.795  1.3289  1.9787 -0.2092
12978TIP3   OH260424   5.147   4.881  12.807  0.0925  0.4257 -0.0507
12978TIP3    H160425   5.083   4.811  12.818  1.5447 -0.9240  0.1746
12978TIP3    H260426   5.141   4.932  12.888  0.8075 -1.0101  0.9471
12979TIP3   OH260427   6.120   1.640   0.209 -0.1371 -0.1748  0.1873
12979TIP3    H160428   6.124   1.635   0.304 -1.4981  0.0085  0.2717
12979TIP3    H260429   6.039   1.596   0.186  0.2236 -0.3050 -0.9086
12980TIP3   OH260430   3.060   6.034   1.433 -0.1792 -0.2870 -0.0903
12980TIP3    H160431   3.047   6.021   1.527 -0.0709 -1.2184 -0.1904
12980TIP3    H260432   3.059   5.945   1.397  0.7467 -0.0020 -0.8377
12981TIP3   OH260433   6.411   4.395   0.831 -0.0674 -0.0552 -0.5116
12981TIP3    H160434   6.325   4.365   0.862 -0.0935  0.0033 -0.5261
12981TIP3    H260435   6.421   4.354   0.745 -0.1620  0.0842 -0.5894
12982TIP3   OH260436   6.279   1.860  15.041  0.3446  0.6990  0.0195
12982TIP3    H160437   6.188   1.832  15.048  0.2527  0.3009 -1.9776
12982TIP3    H260438   6.281   1.919  14.965  1.9809 -0.5382 -0.9857
12983TIP3   OH260439   5.386   1.701   3.617 -0.4780  0.2903 -0.3414
12983TIP3    H160440   5.370   1.700   3.522 -1.1245 -2.5019 -0.2826
12983TIP3    H260441   5.329   1.771   3.650 -1.2090  0.4605 -1.8649
12984TIP3   OH260442   3.909   6.685   6.331 -0.0278 -0.1880 -0.1047
12984TIP3    H160443   3.966   6.758   6.353 -0.0389 -0.4004  0.6449
12984TIP3    H260444   3.915   6.626   6.406 -0.7882 -0.4812 -0.2652
12985TIP3   OH260445   1.429   2.633  12.385 -0.1518  0.3115 -0.3207
12985TIP3    H160446   1.435   2.637  12.480 -0.6086 -0.8421 -0.2279
12985TIP3    H260447   1.469   2.715  12.355  2.1370 -0.3187  0.7689
12986TIP3   OH260448   1.619   6.028  15.065  0.3771  0.2285 -0.6936
12986TIP3    H160449   1.529   6.060  15.063  0.2477  0.1666  1.7039
12986TIP3    H260450   1.659   6.073  15.140  2.0984 -0.3892 -1.1892
12987TIP3   OH260451   2.388   1.749   3.754 -0.1730  0.4858 -0.2412
12987TIP3    H160452   2.335   1.766   3.676  2.0641  0.6411 -1.8563
12987TIP3    H260453   2.360   1.663   3.784  0.5858 -0.7774 -2.8150
12988TIP3   OH260454   0.477   4.514   3.235  0.4273 -0.0881 -0.1808
12988TIP3    H160455   0.389   4.488   3.206 -0.0906 -1.1907  2.1196
12988TIP3    H260456   0.464   4.546   3.324  2.1968  1.0269 -0.2847
12989TIP3   OH260457   2.095   2.048   2.401 -0.6277 -0.1251  0.4382
12989TIP3    H160458   2.063   1.970   2.446 -1.0519 -0.8304 -1.0205
12989TIP3    H260459   2.042   2.053   2.321  1.4518 -0.1070 -1.0167
12990TIP3   OH260460   2.318   5.074  13.757  0.0083 -0.0305  0.0870
12990TIP3    H160461   2.236   5.069  13.805  0.8669  0.2558  1.6555
12990TIP3    H260462   2.328   5.167  13.735  0.2172  0.0409  0.4728
12991TIP3   OH260463   5.712   0.091  15.608 -1.0716  0.2984  0.6347
12991TIP3    H160464   5.800   0.068  15.636 -0.5016 -0.2025 -1.4645
12991TIP3    H260465   5.661   0.091  15.690  0.6717 -0.1511  1.7857
12992TIP3   OH260466   1.658   3.586   2.474 -0.0031 -0.7994 -0.1125
12992TIP3    H160467   1.581   3.574   2.420  0.6950 -0.5911 -1.1886
12992TIP3    H260468   1.661   3.509   2.531 -1.9034 -0.0190  1.1277
12993TIP3   OH260469   2.735   3.891   5.693  0.2983  0.2362  0.1128
12993TIP3    H160470   2.751   3.829   5.623  2.3211 -0.8686  1.4513
12993TIP3    H260471   2.674   3.846   5.751  1.9463 -0.7067  1.2054
12994TIP3   OH260472   5.044   0.727   1.733  0.2074  0.0223  1.0251
12994TIP3    H160473   4.962   0.730   1.783 -0.7348 -2.2584 -0.2782
12994TIP3    H260474   5.038   0.648   1.680  1.7312  1.6017 -1.7644
12995TIP3   OH260475   4.560   3.276  14.892  0.2860  0.1650 -0.0542
12995TIP3    H160476   4.477   3.237  14.863  1.1275 -2.0056  0.2487
12995TIP3    H260477   4.586   3.222  14.967  1.0724  1.9905  1.0550
12996TIP3   OH260478   0.509   0.687   1.657 -0.8121 -0.3345  0.0541
12996TIP3    H160479   0.448   0.620   1.626  0.5708 -1.6212 -0.0169
12996TIP3    H260480   0.503   0.683   1.752 -2.0202  0.7186  0.0510
12997TIP3   OH260481   5.300   5.264   5.827 -0.4806 -0.6315 -1.0253
12997TIP3    H160482   5.281   5.218   5.908 -1.2154  0.3689 -0.6105
12997TIP3    H260483   5.384   5.308   5.843 -0.4604 -0.7033 -0.9358
12998TIP3   OH260484   2.372   4.009  15.921  0.1839  0.5236  0.3991
12998TIP3    H160485   2.447   3.978  15.870 -0.2721  1.0682 -0.6585
12998TIP3    H260486   2.313   4.045  15.855 -1.4350 -0.7346  1.1054
12999TIP3   OH260487   2.636   1.089  15.967 -0.3503  0.2098 -0.2319
12999TIP3    H160488   2.615   1.007  16.011  1.3342  0.3763  0.9529
12999TIP3    H260489   2.681   1.061  15.887 -1.6723 -0.0393 -0.9217
13000TIP3   OH260490   5.135   4.341  14.985 -0.0513  0.2095  0.2887
13000TIP3    H160491   5.074   4.340  15.059  1.3171 -2.8114  1.5269
13000TIP3    H260492   5.176   4.255  14.986  0.8353  0.4200 -3.3916
13001TIP3   OH260493   0.300   4.211   5.435 -0.1362 -0.0318  0.2393
13001TIP3    H160494   0.345   4.128   5.418 -0.2864 -0.0761  0.0550
13001TIP3    H260495   0.368   4.268   5.471 -0.3062 -0.6089  1.5158
13002TIP3   OH260496   1.875   3.013  13.682 -0.3740 -0.0616 -0.3294
13002TIP3    H160497   1.783   2.988  13.689 -0.6189  0.0553 -2.6167
13002TIP3    H260498   1.879   3.100  13.721 -0.7006 -0.9910  2.0042
13003TIP3   OH260499   2.742   6.118   3.996 -0.1490  0.3502 -0.0604
13003TIP3    H160500   2.716   6.062   3.922 -0.4793 -1.3467  1.2891
13003TIP3    H260501   2.680   6.191   3.994 -1.6894 -0.9139 -0.0543
13004TIP3   OH260502   2.934   1.911   1.817 -0.4064  0.6326  0.0284
13004TIP3    H160503   2.840   1.925   1.828 -0.3513  0.6922  0.4560
13004TIP3    H260504   2.943   1.879   1.727 -0.7364  1.4777 -0.3117
13005TIP3   OH260505   2.541   1.804  15.628  0.5536  0.4872  0.1015
13005TIP3    H160506   2.566   1.724  15.581  1.2265  0.4623  0.4923
13005TIP3    H260507   2.472   1.843  15.573  0.4903 -0.1563 -0.2891
13006TIP3   OH260508   1.808   3.752   6.337  0.0500 -0.1899  0.9048
13006TIP3    H160509   1.746   3.823   6.353 -0.9178 -1.5756  3.8929
13006TIP3    H260510   1.754   3.673   6.333  1.1765 -0.9303 -1.6777
13007TIP3   OH260511   1.115   1.419   4.663  0.2200 -0.2887 -0.2632
13007TIP3    H160512   1.105   1.483   4.593 -1.6138  2.1479  2.0039
13007TIP3    H260513   1.025   1.393   4.684  0.6546 -0.5110  1.4945
13008TIP3   OH260514   0.764   1.108  16.446 -0.3620 -0.8826 -0.1071
13008TIP3    H160515   0.673   1.134  16.429 -0.9017 -1.8524  1.1172
13008TIP3    H260516   0.802   1.184  16.489 -0.0564  0.1759 -2.1133
13009TIP3   OH260517   3.554   4.270   3.478 -0.4708  0.4157 -0.1206
13009TIP3    H160518   3.571   4.287   3.571 -2.7943  0.5590  0.3337
13009TIP3    H260519   3.530   4.355   3.442  2.0958  0.7264 -1.3455
13010TIP3   OH260520   3.848   1.968   1.254  0.0054  0.1556 -0.1322
13010TIP3    H160521   3.785   2.040   1.256 -0.7086 -0.4587  1.3588
13010TIP3    H260522   3.933   2.010   1.242 -0.7537  0.8595 -5.3893
13011TIP3   OH260523   2.576   2.402   0.080 -0.4879  0.1782 -0.5838
13011TIP3    H160524   2.612   2.445   0.003 -1.4728  2.4423  0.1234
13011TIP3    H260525   2.532   2.324   0.046  3.5634 -1.9010 -1.6362
13012TIP3   OH260526   5.342   3.544   5.620  0.2306 -0.1204 -0.0408
13012TIP3    H160527   5.268   3.582   5.665  0.2183  0.4057 -0.4984
13012TIP3    H260528   5.405   3.616   5.612  0.4474 -0.3447 -0.3839
13013TIP3   OH260529   2.260   5.585  17.149 -0.0210  0.2948 -0.5306
13013TIP3    H160530   2.306   5.505  17.173 -0.1494  0.8746  1.9733
13013TIP3    H260531   2.170   5.572  17.179 -0.2301  1.0515 -0.7972
13014TIP3   OH260532   4.690   2.784  16.299  0.4102  0.0888  0.3323
13014TIP3    H160533   4.753   2.849  16.267  0.2679  0.1439  0.1622
13014TIP3    H260534   4.605   2.814  16.265  0.4389 -0.5772 -0.3552
13015TIP3   OH260535   2.097   6.279   4.555  0.1807 -0.8291  0.0181
13015TIP3    H160536   2.033   6.230   4.608 -1.4261  0.7346 -0.3645
13015TIP3    H260537   2.162   6.310   4.618 -1.0230 -0.0476  0.9282
13016TIP3   OH260538   6.275   0.319   2.958 -0.4635  0.5079 -0.2274
13016TIP3    H160539   6.267   0.371   3.039  0.7547 -0.4549  0.5573
13016TIP3    H260540   6.292   0.230   2.989 -1.1877 -0.1077 -1.5596
13017TIP3   OH260541   5.895   4.460   3.579 -0.3538 -0.0057 -0.2463
13017TIP3    H160542   5.838   4.514   3.524 -0.8140  0.8423  1.0163
13017TIP3    H260543   5.880   4.492   3.668 -0.4099 -2.0107  0.5300
13018TIP3   OH260544   3.038   5.815  15.939  0.2048  0.2589  0.9694
13018TIP3    H160545   3.049   5.722  15.963 -1.2752 -0.2394 -0.1386
13018TIP3    H260546   3.074   5.863  16.014  1.9396 -1.1882  1.1365
13019TIP3   OH260547   3.068   0.956   0.301  0.1454  0.1539  0.4142
13019TIP3    H160548   3.069   0.862   0.322 -1.1269 -0.3227 -1.4092
13019TIP3    H260549   3.159   0.978   0.284  0.3910 -0.9133  0.2619
13020TIP3   OH260550   4.720   4.242  11.511  0.2336 -0.4820  0.0185
13020TIP3    H160551   4.639   4.278  11.473  0.6670 -0.1711 -0.6348
13020TIP3    H260552   4.786   4.309  11.494  0.9793 -1.4256 -0.9126
13021TIP3   OH260553   1.024   3.059   1.829 -0.3744  0.2173  0.4538
13021TIP3    H160554   0.941   3.077   1.873 -0.0065  0.5147  1.0467
13021TIP3    H260555   1.041   2.966   1.846 -1.3694 -0.2624 -1.0413
13022TIP3   OH260556   6.579   3.146  13.553  0.2642  0.4384 -0.3266
13022TIP3    H160557   6.553   3.114  13.640 -1.0003 -0.4561 -0.9960
13022TIP3    H260558   6.674   3.145  13.554  0.3535 -3.2209 -0.2084
13023TIP3   OH260559   0.695   1.533  12.755 -0.6066 -0.1565 -0.0034
13023TIP3    H160560   0.627   1.553  12.820 -0.8121  1.6952 -0.7417
13023TIP3    H260561   0.700   1.611  12.701 -1.7735 -2.2806 -3.4760
13024TIP3   OH260562   0.609   2.019  14.097  0.0198  0.0434  0.4527
13024TIP3    H160563   0.646   2.102  14.068 -0.2459  0.3986  1.1023
13024TIP3    H260564   0.522   2.016  14.058 -0.3694  0.5580  1.2575
13025TIP3   OH260565   3.093   6.179   4.592 -0.7741  0.1467 -0.5334
13025TIP3    H160566   3.146   6.100   4.587 -1.5166 -0.4249  0.2678
13025TIP3    H260567   3.118   6.230   4.514  0.0663 -0.6421 -0.7960
13026TIP3   OH260568   4.236   5.843   4.563  0.0256 -0.5413 -0.0682
13026TIP3    H160569   4.290   5.782   4.614  0.9744 -0.6432 -1.1469
13026TIP3    H260570   4.279   5.928   4.574 -0.8145 -0.2182  0.7575
13027TIP3   OH260571   0.136   0.708   4.920  0.0629 -0.0894  0.7729
13027TIP3    H160572   0.102   0.622   4.894 -0.2813  0.2750 -0.0042
13027TIP3    H260573   0.096   0.769   4.858  0.3649  0.6250  1.2753
13028TIP3   OH260574   4.884   4.062  11.376  0.3040 -0.5309 -0.0876
13028TIP3    H160575   4.909   3.992  11.436  0.3525 -0.9643 -0.6063
13028TIP3    H260576   4.806   4.101  11.416  0.4903 -0.6419  0.3923
13029TIP3   OH260577   6.110   6.009   2.243  0.1715  0.0395  0.7377
13029TIP3    H160578   6.173   6.081   2.255  0.7989 -0.2557 -0.6232
13029TIP3    H260579   6.074   6.023   2.156  0.4197 -1.3776  0.3836
13030TIP3   OH260580   2.012   6.098  11.868  0.2956  0.6486  0.3276
13030TIP3    H160581   2.018   6.184  11.909 -1.1832  1.2276 -0.6015
13030TIP3    H260582   1.984   6.116  11.779  0.5159 -0.7774 -0.0553
13031TIP3   OH260583   3.715   2.329   1.875  0.0568  0.3807  0.2872
13031TIP3    H160584   3.724   2.351   1.782  0.1253  0.9487  0.4257
13031TIP3    H260585   3.787   2.269   1.893 -0.1491  0.0116 -0.1035
13032TIP3   OH260586   1.863   4.809  13.982  0.2751 -0.1890  0.0284
13032TIP3    H160587   1.810   4.848  13.912  1.9152  0.3014 -0.9832
13032TIP3    H260588   1.799   4.762  14.036 -0.9163 -1.5743 -2.4392
13033TIP3   OH260589   4.393   5.276  14.515 -0.1696 -0.1109 -0.6112
13033TIP3    H160590   4.384   5.300  14.608 -1.2776 -1.2962 -0.3940
13033TIP3    H260591   4.304   5.278  14.481  0.1479 -0.4195 -1.4757
13034TIP3   OH260592   4.038   2.634   0.566  0.3668  0.2318  0.2501
13034TIP3    H160593   4.034   2.541   0.542  0.2483  0.2187  0.3201
13034TIP3    H260594   4.020   2.681   0.485  1.0686  0.2032  0.0706
13035TIP3   OH260595   2.626   0.393   3.699  0.3490  0.5574 -0.4406
13035TIP3    H160596   2.545   0.374   3.653 -0.5238  0.8167  0.9237
13035TIP3    H260597   2.607   0.471   3.751  1.2090  0.1607  0.5211
13036TIP3   OH260598   0.013   0.784   2.296 -0.5821  0.1504 -0.3628
13036TIP3    H160599  -0.003   0.745   2.210  0.1506  0.3015 -0.5711
13036TIP3    H260600   0.064   0.718   2.343 -1.9491 -0.4257  0.3804
13037TIP3   OH260601   2.298   3.094  15.967  0.2096  1.1274  0.2583
13037TIP3    H160602   2.216   3.118  16.010 -1.3242 -0.9516 -1.3208
13037TIP3    H260603   2.321   3.009  16.004  0.8519  1.0110 -0.3902
13038TIP3   OH260604   6.009   4.383  14.470 -0.3706  0.2557 -0.2374
13038TIP3    H160605   6.077   4.361  14.407  0.2029 -0.1879  0.5168
13038TIP3    H260606   5.929   4.345  14.433  0.0742 -0.5449 -0.4062
13039TIP3   OH260607   6.082   6.798  15.961 -0.5659 -1.2053  0.6965
13039TIP3    H160608   6.169   6.805  15.999 -0.2131 -0.9431 -0.1403
13039TIP3    H260609   6.036   6.877  15.991  0.5373  0.3597 -1.4526
13040TIP3   OH260610   1.223   5.788   0.224  0.3414 -0.5101  0.9563
13040TIP3    H160611   1.247   5.867   0.274 -2.4176  1.2154 -0.2485
13040TIP3    H260612   1.280   5.791   0.147 -0.6916  1.1749  0.2051
13041TIP3   OH260613   1.064   5.898   1.829  0.1434  0.1191  0.1819
13041TIP3    H160614   1.135   5.923   1.889 -0.0051  1.2501 -0.0862
13041TIP3    H260615   1.051   5.976   1.775  0.3860 -0.9366 -1.4416
13042TIP3   OH260616   4.817   4.370   6.169 -0.2493 -0.5833  0.6774
13042TIP3    H160617   4.738   4.416   6.195  0.0114 -0.3927  1.1371
13042TIP3    H260618   4.887   4.434   6.181  0.1733 -1.2095  1.7001
13043TIP3   OH260619   4.583   6.460  13.497 -0.1502 -0.7622  0.2997
13043TIP3    H160620   4.587   6.431  13.405 -1.4109 -0.4916  0.1352
13043TIP3    H260621   4.539   6.545  13.493 -0.3939 -0.8357  1.1680
13044TIP3   OH260622   6.586   4.954   0.001 -0.1591  0.0218 -0.3149
13044TIP3    H160623   6.528   5.009   0.055  2.0761  3.2202 -0.8394
13044TIP3    H260624   6.649   4.919   0.064  0.4196  0.9314 -0.3661
13045TIP3   OH260625   5.530   5.600   3.191  0.0448 -0.5420 -0.5579
13045TIP3    H160626   5.610   5.585   3.242  0.0114  0.3064 -0.2440
13045TIP3    H260627   5.460   5.603   3.257 -0.2043 -0.9346 -0.8007
13046TIP3   OH260628   6.278   0.103   6.021  0.4726  0.1386  0.3725
13046TIP3    H160629   6.282   0.131   6.112 -0.8715  1.0496  0.1664
13046TIP3    H260630   6.321   0.174   5.972  0.8864 -0.1873  0.2572
13047TIP3   OH260631   6.769   1.859  11.646  0.7449  0.1238  1.1325
13047TIP3    H160632   6.759   1.935  11.589  0.6409 -1.3213 -0.9353
13047TIP3    H260633   6.701   1.868  11.712 -0.0522  1.2161  0.1971
13048TIP3   OH260634   2.086   5.835  14.373 -0.3676 -0.0787  0.0508
13048TIP3    H160635   2.046   5.841  14.460 -1.1044 -0.3987 -0.2566
13048TIP3    H260636   2.149   5.907  14.371 -0.3668 -0.0433  0.8364
13049TIP3   OH260637   6.477   4.964   3.584  0.4350  0.5703  0.7763
13049TIP3    H160638   6.564   4.947   3.550 -0.6514  1.0409 -2.5265
13049TIP3    H260639   6.449   4.880   3.621  1.7797  0.0714  0.7094
13050TIP3   OH260640   5.985   1.850  13.369 -0.2179 -0.0273 -0.2597
13050TIP3    H160641   5.937   1.921  13.327  2.3541  1.7132 -0.4761
13050TIP3    H260642   5.973   1.775  13.311 -0.9619  0.9121 -1.3522
13051TIP3   OH260643   1.771   2.626   2.310 -0.0484 -0.1892  0.2038
13051TIP3    H160644   1.859   2.654   2.334 -0.2823  1.2113 -0.4689
13051TIP3    H260645   1.777   2.531   2.301  1.3280 -0.1332  0.4020
13052TIP3   OH260646   5.887   1.196   2.405 -0.3994  0.5529 -0.0035
13052TIP3    H160647   5.895   1.101   2.394  0.9657  0.6710 -0.1560
13052TIP3    H260648   5.833   1.224   2.331 -2.0112 -0.2568  0.8059
13053TIP3   OH260649   2.967   1.244  13.068 -0.7991  0.5772 -0.3118
13053TIP3    H160650   3.043   1.226  13.012 -0.7453 -0.8769  0.1824
13053TIP3    H260651   3.004   1.252  13.156 -1.2538 -0.8637  0.0432
13054TIP3   OH260652   6.811   5.178  17.107  0.6011  0.5300 -0.0768
13054TIP3    H160653   6.891   5.127  17.110 -0.3607 -1.0245  0.4677
13054TIP3    H260654   6.803   5.217  17.193  0.1072 -0.4469  0.3421
13055TIP3   OH260655   4.431   3.896  16.965  0.0306 -0.0606 -0.0529
13055TIP3    H160656   4.349   3.945  16.954 -2.0012 -3.2293 -0.3778
13055TIP3    H260657   4.427   3.864  17.055 -0.1054 -1.7846 -0.6311
13056TIP3   OH260658   4.612   6.126   0.248  0.4863  0.0458  0.0991
13056TIP3    H160659   4.520   6.152   0.237  0.3160 -0.8093 -0.6299
13056TIP3    H260660   4.614   6.034   0.221  1.6685  0.2198 -0.4721
13057TIP3   OH260661   6.004   4.126   6.696  0.4238  0.2868  0.2943
13057TIP3    H160662   6.065   4.192   6.728 -0.3919  2.6745 -2.7381
13057TIP3    H260663   6.061   4.058   6.659  1.2629  1.2183 -0.1750
13058TIP3   OH260664   1.260   1.806   1.346  0.9342 -0.1701  0.0267
13058TIP3    H160665   1.331   1.805   1.410  0.1571 -0.8393  0.9110
13058TIP3    H260666   1.302   1.828   1.263  1.9086  1.1379  0.8317
13059TIP3   OH260667   1.727   6.579   1.167 -0.2456  0.1337  0.3723
13059TIP3    H160668   1.692   6.495   1.196 -0.5169 -0.0449 -0.4322
13059TIP3    H260669   1.693   6.589   1.078 -0.8908  1.4740  0.7376
13060TIP3   OH260670   5.725   5.838  16.075 -0.2048  0.0703  0.0985
13060TIP3    H160671   5.649   5.868  16.025  0.1421 -0.3044 -0.6621
13060TIP3    H260672   5.765   5.919  16.108 -0.6759  0.2959  0.1201
13061TIP3   OH260673   4.756   2.017  16.590 -0.4554 -0.2249 -0.3903
13061TIP3    H160674   4.698   2.093  16.591 -2.3246 -1.5968 -0.7813
13061TIP3    H260675   4.794   2.014  16.678 -1.6122  0.2296  0.1338
13062TIP3   OH260676   0.076   4.746   0.313  0.2716 -0.2266  0.4591
13062TIP3    H160677   0.008   4.796   0.268 -0.4449  0.7427  2.5057
13062TIP3    H260678   0.031   4.666   0.341  0.3415 -0.1924  0.6630
13063TIP3   OH260679   2.182   0.670  10.804 -0.0148  0.5245  0.2494
13063TIP3    H160680   2.088   0.656  10.814  0.1144 -1.4962 -0.8292
13063TIP3    H260681   2.198   0.756  10.842 -2.5588  1.6537 -0.9828
13064TIP3   OH260682   3.371   4.971   1.814  0.1836 -0.3857  0.1570
13064TIP3    H160683   3.311   4.897   1.818 -1.0576  0.5644 -0.2020
13064TIP3    H260684   3.456   4.933   1.791 -0.3039 -1.7377  0.5294
13065TIP3   OH260685   3.417   1.997  13.920 -0.1017 -0.4016  0.1219
13065TIP3    H160686   3.344   2.050  13.954  0.5993  0.7383 -0.1256
13065TIP3    H260687   3.442   2.040  13.839 -0.2903 -1.8254 -0.7200
13066TIP3   OH260688   4.005   0.470  12.896 -0.1395  0.2546 -0.0842
13066TIP3    H160689   3.995   0.385  12.853 -0.2698  0.7966 -1.1513
13066TIP3    H260690   4.067   0.453  12.967 -0.5226 -0.8274  0.0114
13067TIP3   OH260691   4.168   5.200  11.454  0.1833 -0.5735 -0.3620
13067TIP3    H160692   4.075   5.178  11.457  0.0328  0.1185  0.2636
13067TIP3    H260693   4.197   5.196  11.545  0.7765 -0.8105 -0.5553
13068TIP3   OH260694   4.733   6.018  14.024  0.3738 -0.2641 -0.3951
13068TIP3    H160695   4.687   5.969  14.092  0.7870 -2.0074 -1.3306
13068TIP3    H260696   4.691   6.104  14.025  0.3577 -0.2233  2.0318
13069TIP3   OH260697   6.513   1.867  13.761  0.4942  0.2036  0.7341
13069TIP3    H160698   6.549   1.822  13.685  0.5643  1.4301  0.0139
13069TIP3    H260699   6.482   1.797  13.819  1.4923 -0.7753  0.1019
13070TIP3   OH260700   5.290   4.578   2.422 -0.3504 -0.2704  0.3019
13070TIP3    H160701   5.360   4.540   2.474 -2.5339 -1.0529  2.8690
13070TIP3    H260702   5.250   4.644   2.479 -0.4908  1.6349 -1.8486
13071TIP3   OH260703   2.067   0.376   3.308 -0.1703 -0.0002 -0.5017
13071TIP3    H160704   2.016   0.342   3.234 -0.8545 -1.1782  0.4883
13071TIP3    H260705   2.142   0.317   3.315 -2.3651 -2.7799  2.4664
13072TIP3   OH260706   4.309   5.199  15.943  0.0009 -0.7184 -0.0122
13072TIP3    H160707   4.360   5.226  15.866  0.5094  0.7866  0.8121
13072TIP3    H260708   4.236   5.149  15.907  0.9161 -1.1295 -1.3728
13073TIP3   OH260709   0.870   6.222  14.709 -0.7949  0.3588  0.1780
13073TIP3    H160710   0.852   6.300  14.656 -0.0455  0.5547  0.1933
13073TIP3    H260711   0.826   6.151  14.663  1.1690  0.2210 -1.6542
13074TIP3   OH260712   5.770   1.086  10.784 -0.4478 -0.4006 -0.0322
13074TIP3    H160713   5.736   1.151  10.723  0.6502 -2.2680 -2.8307
13074TIP3    H260714   5.860   1.114  10.801 -0.4257 -0.4255 -0.1074
13075TIP3   OH260715   2.741   3.538   4.776 -0.3586  0.3268  0.4822
13075TIP3    H160716   2.783   3.485   4.844  0.0405  2.1436  1.7087
13075TIP3    H260717   2.814   3.578   4.728 -0.6495  1.3392  0.8650
13076TIP3   OH260718   2.273   0.178  10.913 -0.5146  0.4429 -0.3681
13076TIP3    H160719   2.256   0.227  10.833 -1.5039 -0.7473 -0.9155
13076TIP3    H260720   2.369   0.172  10.919 -0.3226  2.9158  0.0495
13077TIP3   OH260721   3.930   1.504  16.158  0.1518  0.3414 -0.0437
13077TIP3    H160722   3.996   1.454  16.206 -0.4522 -2.1120 -1.6135
13077TIP3    H260723   3.882   1.550  16.227  1.1395 -0.7646  1.4691
13078TIP3   OH260724   2.330   0.388   3.179  0.6482 -0.3142 -0.4633
13078TIP3    H160725   2.286   0.443   3.114  0.5561  0.4057  0.1835
13078TIP3    H260726   2.419   0.377   3.146  0.5872  0.0052 -0.7417
13079TIP3   OH260727   1.115   6.494   4.776 -0.4398  0.8962 -0.3957
13079TIP3    H160728   1.103   6.525   4.865  1.4610  1.1470 -0.1855
13079TIP3    H260729   1.152   6.406   4.786 -2.4437 -0.0515 -0.9693
13080TIP3   OH260730   0.835   4.096   6.584  0.1089  0.1436  0.2351
13080TIP3    H160731   0.743   4.076   6.601 -0.7718  1.9891 -1.9133
13080TIP3    H260732   0.868   4.022   6.534 -0.9240  0.5465 -1.0705
13081TIP3   OH260733   6.073   5.622  11.985  0.5395  0.1573 -0.6867
13081TIP3    H160734   6.002   5.631  12.049  0.8433  0.9186 -0.4505
13081TIP3    H260735   6.130   5.555  12.022 -0.0167 -0.4216 -0.8499
13082TIP3   OH260736   6.774   0.368  16.237  0.3161 -0.3893 -0.0293
13082TIP3    H160737   6.693   0.376  16.186  1.3090  0.5721 -1.5275
13082TIP3    H260738   6.754   0.411  16.320 -0.5746  0.2436 -0.5503
13083TIP3   OH260739   5.042   6.204  14.189 -0.2491  0.0102  0.1766
13083TIP3    H160740   5.052   6.135  14.124 -0.6263  0.8217 -0.7649
13083TIP3    H260741   5.119   6.260  14.178 -1.0134  0.9526 -0.5821
13084TIP3   OH260742   2.080   4.772  14.149 -0.0782 -0.1115  0.0120
13084TIP3    H160743   2.050   4.687  14.180 -0.0874 -0.2412 -0.3514
13084TIP3    H260744   2.015   4.797  14.082  0.7093 -0.4741 -0.9122
13085TIP3   OH260745   0.099   1.300   2.718 -0.0189  0.0447  0.1765
13085TIP3    H160746   0.073   1.373   2.663 -0.7482  0.8202  1.5100
13085TIP3    H260747   0.164   1.336   2.778 -1.0332 -0.1205  1.4416
13086TIP3   OH260748   4.793   6.327  14.150 -0.1110 -0.5337  0.9017
13086TIP3    H160749   4.845   6.407  14.149 -0.9753  0.0507  1.6356
13086TIP3    H260750   4.858   6.257  14.143  0.6426  0.2161  0.0409
13087TIP3   OH260751   0.456   6.070   4.718  0.1328  0.5087 -0.3132
13087TIP3    H160752   0.445   6.161   4.743  0.2876  0.5577 -0.4225
13087TIP3    H260753   0.407   6.061   4.636 -2.0036 -0.1154  0.9636
13088TIP3   OH260754   3.798   0.152   0.917 -0.5040  0.4684 -0.3903
13088TIP3    H160755   3.713   0.114   0.937 -0.2658  0.1105 -0.0482
13088TIP3    H260756   3.834   0.177   1.002 -0.7022  1.5718 -0.6096
13089TIP3   OH260757   5.707   5.586   1.824 -0.2284 -0.0442 -0.1243
13089TIP3    H160758   5.633   5.617   1.876 -0.8726 -0.0578 -1.0249
13089TIP3    H260759   5.747   5.518   1.878 -0.1797  0.7369  0.8656
13090TIP3   OH260760   5.728   1.579  14.216 -0.4029  0.3522  0.1303
13090TIP3    H160761   5.811   1.532  14.226 -0.1565  0.4594 -1.2626
13090TIP3    H260762   5.753   1.672  14.216 -0.6634  0.4278  0.8557
13091TIP3   OH260763   3.163   5.184  14.890 -0.2322 -0.0469  0.2979
13091TIP3    H160764   3.234   5.242  14.917 -0.4437  0.3021  0.1016
13091TIP3    H260765   3.175   5.174  14.795  0.5482 -1.3182  0.4998
13092TIP3   OH260766   5.308   2.845  13.305 -0.1771  0.3079  0.2010
13092TIP3    H160767   5.387   2.833  13.359 -0.9620 -0.3528  1.2583
13092TIP3    H260768   5.338   2.891  13.227  1.2028  0.3151  0.7158
13093TIP3   OH260769   0.987   3.741   1.536  0.1636 -0.3001 -0.7099
13093TIP3    H160770   0.951   3.795   1.606  0.8580 -0.5095 -0.1753
13093TIP3    H260771   0.920   3.740   1.468 -1.1681 -1.3392  0.5670
13094TIP3   OH260772   4.794   1.981   5.297  0.7030  0.6084 -0.5656
13094TIP3    H160773   4.871   1.926   5.294 -0.1606 -0.7343  0.5269
13094TIP3    H260774   4.735   1.945   5.231  1.4351  2.3980 -2.2867
13095TIP3   OH260775   0.288   4.174   2.002 -0.2458 -0.2722 -0.4658
13095TIP3    H160776   0.311   4.083   1.984 -0.9880 -0.5647  0.0667
13095TIP3    H260777   0.332   4.194   2.084 -1.1191 -0.5455  0.0729
13096TIP3   OH260778   2.123   0.356   5.499 -0.3197  0.0269 -0.1123
13096TIP3    H160779   2.050   0.298   5.518  0.6789 -1.2405 -0.0161
13096TIP3    H260780   2.143   0.398   5.583 -0.6873  0.0751 -0.0494
13097TIP3   OH260781   0.824   5.940  14.569  0.2883 -0.2370  0.5037
13097TIP3    H160782   0.913   5.914  14.548 -0.2138 -1.2271 -0.5140
13097TIP3    H260783   0.774   5.858  14.568 -1.0539  0.5352 -1.1951
13098TIP3   OH260784   1.691   2.299  15.579  0.0922 -0.0987 -0.0163
13098TIP3    H160785   1.641   2.379  15.589 -0.1835 -0.3742  0.8630
13098TIP3    H260786   1.692   2.260  15.666 -0.3787 -1.4073 -0.5734
13099TIP3   OH260787   3.083   3.591   3.466  0.0077 -0.7947 -0.3170
13099TIP3    H160788   3.132   3.674   3.462  0.2173 -0.9518 -1.1262
13099TIP3    H260789   3.093   3.562   3.557  0.2165 -0.1030 -0.1119
13100TIP3   OH260790   3.366   4.142   5.433 -0.1870 -0.0131  0.2711
13100TIP3    H160791   3.377   4.219   5.489  3.3171  0.1601 -0.4094
13100TIP3    H260792   3.393   4.068   5.487  0.2468 -0.2388 -0.2392
13101TIP3   OH260793   4.970   5.005  12.194  0.4511  0.1802  0.0340
13101TIP3    H160794   4.883   4.973  12.218 -0.2399  0.8756 -1.3896
13101TIP3    H260795   4.978   5.090  12.239  1.8684 -1.3681  2.9785
13102TIP3   OH260796   1.630   6.815   0.687 -0.0702 -0.4432  0.3660
13102TIP3    H160797   1.719   6.781   0.688 -0.4492 -1.4806 -0.1756
13102TIP3    H260798   1.640   6.908   0.666  0.7305 -1.0881 -2.5824
13103TIP3   OH260799   1.934   2.358   4.534 -0.8129  0.0691  0.4267
13103TIP3    H160800   1.977   2.384   4.615  0.3506  2.1059 -0.7701
13103TIP3    H260801   2.005   2.330   4.476 -1.4483  0.1234 -0.4168
13104TIP3   OH260802   5.351   4.659   2.151  0.0453  0.1297  0.0161
13104TIP3    H160803   5.351   4.578   2.101 -0.8406  1.1044 -1.6352
13104TIP3    H260804   5.336   4.631   2.242  0.4314 -1.5764 -0.4051
13105TIP3   OH260805   3.623   5.712  13.473 -0.0729  0.1027  0.7580
13105TIP3    H160806   3.646   5.670  13.391  2.5794  2.1404  0.3360
13105TIP3    H260807   3.531   5.737  13.461  0.1628  0.1320 -1.5284
13106TIP3   OH260808   0.318   2.513  14.797  0.7992  0.0852 -0.2882
13106TIP3    H160809   0.325   2.418  14.809  0.3910  0.1949  0.8912
13106TIP3    H260810   0.409   2.543  14.794  0.9433 -0.4025 -1.3133
13107TIP3   OH260811   1.875   0.142   5.033 -0.1670 -0.0797  0.0629
13107TIP3    H160812   1.938   0.078   5.001  0.8995  0.8435  0.2410
13107TIP3    H260813   1.857   0.198   4.957 -1.8331 -1.1287 -0.3580
13108TIP3   OH260814   0.281   4.891   6.970  0.2316 -0.3098 -0.2180
13108TIP3    H160815   0.220   4.965   6.979 -1.1683 -1.4792  0.2267
13108TIP3    H260816   0.317   4.901   6.882  1.0635  1.6293  0.2931
13109TIP3   OH260817   1.708   1.546   5.733  0.0707  0.0370 -0.1505
13109TIP3    H160818   1.635   1.534   5.794  0.5587  0.4798  0.5310
13109TIP3    H260819   1.781   1.501   5.775  0.8098  1.6309  0.3478
13110TIP3   OH260820   3.123   5.617   5.089 -0.6556 -0.0293 -0.0509
13110TIP3    H160821   3.043   5.565   5.088 -1.8521  1.6948  0.2709
13110TIP3    H260822   3.092   5.708   5.083  1.2255  0.7315  0.8811
13111TIP3   OH260823   6.573   4.362  15.967 -0.0068  0.1652  0.4376
13111TIP3    H160824   6.491   4.366  16.016 -0.1448 -0.3476  0.2526
13111TIP3    H260825   6.614   4.448  15.981 -0.8518  0.6414  0.0583
13112TIP3   OH260826   6.098   3.212   1.905  0.3576  0.4898  0.0510
13112TIP3    H160827   6.017   3.180   1.946  0.0440 -1.7140 -2.0563
13112TIP3    H260828   6.149   3.133   1.890  2.3082  1.7091  0.0311
13113TIP3   OH260829   4.511   5.667   2.593  0.5009 -0.8019 -0.5412
13113TIP3    H160830   4.432   5.622   2.625 -0.4927 -0.7073 -2.6904
13113TIP3    H260831   4.506   5.659   2.498  2.2597  0.6342 -0.8042
13114TIP3   OH260832   1.356   6.201   5.621  0.3381  0.5111 -0.3631
13114TIP3    H160833   1.442   6.241   5.627 -0.0965  1.3740  0.3506
13114TIP3    H260834   1.327   6.217   5.531  1.3759 -0.7914 -0.9650
13115TIP3   OH260835   3.536   3.354  16.920 -0.1546 -0.7706 -0.1689
13115TIP3    H160836   3.525   3.446  16.896  1.1402 -0.1075  1.5580
13115TIP3    H260837   3.449   3.325  16.944 -0.3914  0.3781  0.4463
13116TIP3   OH260838   6.310   3.641   1.821 -0.2854 -0.1000  0.1611
13116TIP3    H160839   6.318   3.552   1.856 -0.6447 -0.0237  0.4381
13116TIP3    H260840   6.221   3.667   1.842 -0.3129  0.1744 -0.2855
13117TIP3   OH260841   4.559   0.200  11.568 -0.6043  0.3982 -0.4842
13117TIP3    H160842   4.540   0.220  11.660  0.4089 -1.0812  0.0744
13117TIP3    H260843   4.654   0.197  11.563 -0.5241  2.6460 -2.1128
13118TIP3   OH260844   0.689   4.111   2.857 -0.1423  0.3504 -0.2222
13118TIP3    H160845   0.752   4.122   2.786 -0.0945  1.5534 -0.0077
13118TIP3    H260846   0.714   4.028   2.898 -1.3582 -1.3954 -2.7408
13119TIP3   OH260847   6.678   3.267  10.370  0.7843  0.0052  0.0073
13119TIP3    H160848   6.613   3.291  10.437  0.9641  1.9213 -0.4453
13119TIP3    H260849   6.758   3.249  10.420  1.7837  4.2676  0.3273
13120TIP3   OH260850   3.064   5.807  14.208 -0.1410  0.3042  0.4765
13120TIP3    H160851   3.024   5.844  14.130  2.4049 -1.4538 -1.8319
13120TIP3    H260852   2.994   5.756  14.249 -1.2369  0.2470 -1.3813
13121TIP3   OH260853   2.812   6.315  15.476 -0.0437  0.1406 -0.1470
13121TIP3    H160854   2.791   6.227  15.445  1.0204 -0.8010  1.6389
13121TIP3    H260855   2.729   6.363  15.473 -0.5294 -0.7373 -1.6480
13122TIP3   OH260856   3.713   6.603   5.229  0.3513  0.6711  0.9528
13122TIP3    H160857   3.758   6.520   5.219  0.4137  0.9619 -2.4619
13122TIP3    H260858   3.782   6.669   5.227  0.1148  0.9469 -1.1160
13123TIP3   OH260859   3.063   4.572  11.693  0.0335 -0.4584  0.2559
13123TIP3    H160860   2.986   4.621  11.664  0.8956  0.9382  0.2296
13123TIP3    H260861   3.081   4.512  11.622 -0.3633 -0.0116 -0.2320
13124TIP3   OH260862   2.980   1.691   3.001 -0.2708 -0.3854  0.6711
13124TIP3    H160863   3.026   1.622   2.953  0.2730  1.0818 -1.0368
13124TIP3    H260864   2.894   1.695   2.960 -0.9440 -1.1787  1.9379
13125TIP3   OH260865   4.642   0.523  12.045 -0.3565  0.4412  0.1889
13125TIP3    H160866   4.724   0.497  12.087 -0.4294 -0.1758 -0.0389
13125TIP3    H260867   4.661   0.518  11.951 -0.2881  1.4987  0.1339
13126TIP3   OH260868   3.813   1.814  13.223 -0.2094 -0.2455  0.2507
13126TIP3    H160869   3.793   1.899  13.184  0.5374 -0.6758 -1.1176
13126TIP3    H260870   3.866   1.835  13.300  0.6875  0.5085 -0.5485
13127TIP3   OH260871   2.490   1.998   0.971  0.5506  0.1811 -0.5786
13127TIP3    H160872   2.574   2.006   0.926  1.5352  0.7873  1.2931
13127TIP3    H260873   2.512   1.979   1.062 -1.3644 -0.2659 -0.1544
13128TIP3   OH260874   6.660   4.700  16.272  0.4517  0.0135 -0.0752
13128TIP3    H160875   6.669   4.605  16.268  1.3417  0.1294 -1.3748
13128TIP3    H260876   6.650   4.727  16.181 -0.6837  1.0965  0.3474
13129TIP3   OH260877   4.237   0.578  16.076 -0.3307  0.2088 -0.0558
13129TIP3    H160878   4.237   0.669  16.107  0.8105 -0.2085  1.3068
13129TIP3    H260879   4.188   0.530  16.143  0.8164 -0.4664  0.3396
13130TIP3   OH260880   3.818   6.095  14.256 -0.2212 -0.2701 -0.7441
13130TIP3    H160881   3.851   6.167  14.203 -0.0928  1.0464  1.0299
13130TIP3    H260882   3.887   6.029  14.253 -0.0903 -0.0938 -1.9266
13131TIP3   OH260883   5.257   4.040   0.549  0.1624 -0.3611  0.4022
13131TIP3    H160884   5.305   4.084   0.620  2.9944 -2.5280  0.0424
13131TIP3    H260885   5.271   4.096   0.473 -1.1080  0.9172  1.0816
13132TIP3   OH260886   5.559   1.568   4.761 -0.2616  0.2169  0.3790
13132TIP3    H160887   5.526   1.611   4.840  0.8493  0.5540  0.6793
13132TIP3    H260888   5.653   1.560   4.775 -0.0497  0.2055 -0.8746
13133TIP3   OH260889   2.665   6.782   5.792 -0.4471 -0.0706 -0.3104
13133TIP3    H160890   2.663   6.871   5.826 -0.1105  0.2439 -1.0965
13133TIP3    H260891   2.731   6.737   5.845 -0.9648  0.0039  0.4105
13134TIP3   OH260892   5.945   5.311  13.501  0.2642 -0.4524  0.1203
13134TIP3    H160893   5.946   5.346  13.590  0.2307 -2.5228  0.9971
13134TIP3    H260894   5.864   5.344  13.463 -0.2396 -0.3548  1.2212
13135TIP3   OH260895   1.983   2.012   5.358  0.0038 -0.0540 -0.4143
13135TIP3    H160896   2.065   1.977   5.324 -0.2051  0.0985 -1.0769
13135TIP3    H260897   2.008   2.093   5.402  0.3214 -0.4280  0.1158
13136TIP3   OH260898   4.874   6.070  11.755 -0.6942  0.0112  0.6928
13136TIP3    H160899   4.833   6.077  11.841  0.9555 -1.9433  1.7314
13136TIP3    H260900   4.808   6.027  11.701 -1.1102 -0.3960  1.5042
13137TIP3   OH260901   6.550   0.612  14.056 -0.5524  0.1856 -0.0588
13137TIP3    H160902   6.513   0.582  14.139  1.9855  1.7687  1.8197
13137TIP3    H260903   6.603   0.688  14.080  1.7097 -0.3376 -2.8662
13138TIP3   OH260904   1.671   6.491  14.263  0.1204 -0.5410  0.4055
13138TIP3    H160905   1.743   6.554  14.262  1.4805 -2.0276 -1.1123
13138TIP3    H260906   1.667   6.457  14.174 -1.0605 -2.0363  0.9762
13139TIP3   OH260907   2.332   6.733  11.943 -0.0704 -0.6141  0.5647
13139TIP3    H160908   2.421   6.701  11.960  0.0708 -1.4614 -1.4517
13139TIP3    H260909   2.289   6.661  11.896  0.2029  1.8604 -4.1048
13140TIP3   OH260910   0.508   0.273  14.934 -0.0513 -0.7590  0.1100
13140TIP3    H160911   0.560   0.228  15.001 -0.7254  1.7600  2.5100
13140TIP3    H260912   0.572   0.314  14.877  0.7063  1.3072  2.3160
13141TIP3   OH260913   0.522   6.676  15.079 -0.1879  0.7057  0.2182
13141TIP3    H160914   0.609   6.641  15.100 -0.1378  1.8640  2.2718
13141TIP3    H260915   0.473   6.601  15.046  0.9918 -0.4366  0.9535
13142TIP3   OH260916   2.482   2.285   0.727 -0.4455  0.0892  0.0841
13142TIP3    H160917   2.575   2.279   0.708 -0.8292 -1.9097 -1.5039
13142TIP3    H260918   2.453   2.364   0.680 -0.1119 -1.0798 -2.2040
13143TIP3   OH260919   2.588   4.733  16.488 -0.1290  0.7413  0.2351
13143TIP3    H160920   2.536   4.699  16.415 -0.3924  2.4311 -0.4216
13143TIP3    H260921   2.550   4.692  16.565 -0.7805  0.0097 -0.4506
13144TIP3   OH260922   3.584   0.916  16.356  0.3121  0.1959 -0.4223
13144TIP3    H160923   3.510   0.857  16.343  1.4406 -1.6815  1.0938
13144TIP3    H260924   3.613   0.939  16.268  0.0912 -1.9036 -1.0869
13145TIP3   OH260925   3.261   4.498  11.471 -0.4450  1.2330 -0.0994
13145TIP3    H160926   3.186   4.438  11.476 -0.1967  0.8883 -0.4415
13145TIP3    H260927   3.310   4.469  11.394  1.9655 -0.8214  2.0209
13146TIP3   OH260928   5.894   6.473  16.188 -0.0882 -0.0953  0.3957
13146TIP3    H160929   5.837   6.548  16.203  1.2380  1.2607 -0.9934
13146TIP3    H260930   5.975   6.493  16.234 -0.2769 -1.4786  1.4033
13147TIP3   OH260931   3.150   2.776   0.049 -0.5008 -0.1907  0.0355
13147TIP3    H160932   3.146   2.852   0.107 -0.3279 -1.8958  2.4276
13147TIP3    H260933   3.243   2.752   0.048 -0.5629 -0.4060 -0.6443
13148TIP3   OH260934   1.359   2.401   3.161 -0.0710 -0.3300  0.3633
13148TIP3    H160935   1.319   2.478   3.200  0.8219  0.1316  0.4063
13148TIP3    H260936   1.440   2.388   3.211  0.8745  0.0095 -1.0009
13149TIP3   OH260937   2.804   5.955   2.397 -0.0055  0.4349  0.1352
13149TIP3    H160938   2.835   6.016   2.464  1.1312  0.0283 -0.0130
13149TIP3    H260939   2.839   5.989   2.315 -1.3810  0.9217 -0.2775
13150TIP3   OH260940   4.394   5.897   5.036  0.3233 -0.2688 -0.1838
13150TIP3    H160941   4.441   5.883   5.119 -0.3297 -1.6197 -0.0178
13150TIP3    H260942   4.427   5.982   5.005  2.3824 -0.8418  0.2384
13151TIP3   OH260943   0.060   1.351  15.841 -0.0933 -0.1861 -0.3599
13151TIP3    H160944   0.091   1.407  15.769 -0.4543 -0.7168 -0.9389
13151TIP3    H260945   0.055   1.264  15.802 -0.0350 -0.5297  0.3942
13152TIP3   OH260946   5.698   5.621  16.988 -0.7046 -0.1886  0.1040
13152TIP3    H160947   5.751   5.618  16.908 -2.9459  1.2137 -1.5332
13152TIP3    H260948   5.608   5.609  16.958 -1.8953  2.6887  2.0389
13153TIP3   OH260949   4.508   1.337  14.761  0.2668 -0.9678  0.5840
13153TIP3    H160950   4.486   1.421  14.802  0.0878 -0.5297 -0.3990
13153TIP3    H260951   4.587   1.309  14.807  1.0579  0.3566  0.0887
13154TIP3   OH260952   3.668   3.522   2.827 -0.6145 -0.4869 -0.6121
13154TIP3    H160953   3.628   3.492   2.745 -1.4848 -1.4424  0.1221
13154TIP3    H260954   3.691   3.441   2.872  1.6790  0.0400 -0.7486
13155TIP3   OH260955   5.888   2.590  15.565 -0.0889 -0.9120  0.1322
13155TIP3    H160956   5.976   2.575  15.599  0.7591  0.1279 -1.4540
13155TIP3    H260957   5.894   2.565  15.472 -1.4203 -0.6955 -0.0317
13156TIP3   OH260958   6.125   5.643   6.412 -0.2678  0.7422 -0.0801
13156TIP3    H160959   6.177   5.687   6.346 -0.4956  0.2153 -0.6194
13156TIP3    H260960   6.155   5.552   6.409 -1.7966  0.2372 -1.0017
13157TIP3   OH260961   5.188   4.230  12.782  0.2382  0.4543  0.2244
13157TIP3    H160962   5.145   4.227  12.696  0.7012  2.0200 -0.0870
13157TIP3    H260963   5.132   4.287  12.835 -0.0470 -0.5012  0.9869
13158TIP3   OH260964   1.354   0.497  13.606  0.5810  0.0931  0.5294
13158TIP3    H160965   1.445   0.529  13.606  1.1887 -1.2400 -3.0370
13158TIP3    H260966   1.302   0.574  13.585  1.2833  0.2082 -0.8879
13159TIP3   OH260967   5.599   0.933  16.810  0.6300 -0.4103  0.2188
13159TIP3    H160968   5.630   0.931  16.719  0.0130 -1.4466  0.0220
13159TIP3    H260969   5.556   1.018  16.818  0.8081 -0.2493 -0.4155
13160TIP3   OH260970   0.871   0.732   4.044  0.1789  0.2907  0.1155
13160TIP3    H160971   0.946   0.777   4.084  1.1170  1.4309 -2.6917
13160TIP3    H260972   0.842   0.791   3.975 -2.6101 -0.6873  0.3516
13161TIP3   OH260973   5.292   4.479   4.985  0.9585  0.0360 -0.1852
13161TIP3    H160974   5.228   4.467   5.056  1.5713 -2.8707  0.0201
13161TIP3    H260975   5.377   4.479   5.029  1.4550 -3.3419 -0.8589
13162TIP3   OH260976   4.088   0.694   1.269  0.0061 -0.1875  0.4278
13162TIP3    H160977   4.109   0.601   1.261 -0.2670 -0.2484  0.4216
13162TIP3    H260978   4.137   0.736   1.197 -0.1505 -0.3701  0.2148
13163TIP3   OH260979   3.111   3.703  17.069  0.3632 -0.3487  0.3185
13163TIP3    H160980   3.025   3.707  17.028  1.3487  3.3432 -1.9786
13163TIP3    H260981   3.109   3.772  17.135  1.6027  0.1219 -0.0997
13164TIP3   OH260982   3.171   6.324   4.358  0.3597 -0.4654  0.3183
13164TIP3    H160983   3.175   6.384   4.432  2.2299 -0.2133  0.0726
13164TIP3    H260984   3.118   6.370   4.292  0.3569  0.1811  0.7603
13165TIP3   OH260985   5.029   6.717  16.246  0.1429  0.4495  0.4670
13165TIP3    H160986   4.996   6.795  16.290  0.8023  2.1590 -1.8974
13165TIP3    H260987   5.095   6.750  16.185  1.1511 -2.0885  0.0617
13166TIP3   OH260988   0.315   6.304   3.564 -0.3717  0.1844 -0.3637
13166TIP3    H160989   0.258   6.329   3.492 -0.0904  0.8387 -0.3683
13166TIP3    H260990   0.314   6.379   3.623 -1.4115 -0.7392  0.8420
13167TIP3   OH260991   5.512   5.448  16.477 -0.2883  0.4328  0.0602
13167TIP3    H160992   5.548   5.360  16.466  0.8143  0.9783 -0.8575
13167TIP3    H260993   5.491   5.477  16.388 -3.2228  0.0957  0.5237
13168TIP3   OH260994   0.873   2.854  11.416  0.1199  0.1078 -0.4316
13168TIP3    H160995   0.826   2.898  11.345 -1.9876 -3.0353 -1.1694
13168TIP3    H260996   0.895   2.768  11.381  0.4467 -0.9868  2.2137
13169TIP3   OH260997   5.574   0.958   5.293 -0.4602 -0.4003  0.0427
13169TIP3    H160998   5.529   0.880   5.261  0.0917 -0.6350 -0.1716
13169TIP3    H260999   5.665   0.945   5.267 -0.6796  1.2130 -1.7875
13170TIP3   OH261000   4.944   0.822  11.463  0.4875  0.0793 -0.1259
13170TIP3    H161001   5.036   0.812  11.439 -0.1218  0.6674 -3.2114
13170TIP3    H261002   4.898   0.822  11.379 -2.0433  2.7713  1.0802
13171TIP3   OH261003   3.313   6.115   3.794  0.8051 -0.1170  0.0918
13171TIP3    H161004   3.364   6.095   3.715  0.6240 -0.1450 -0.0188
13171TIP3    H261005   3.238   6.056   3.790 -0.3292  1.2963 -0.8093
13172TIP3   OH261006   6.540   0.522   2.537  0.5565  0.1318  0.2001
13172TIP3    H161007   6.619   0.541   2.587 -1.3010  0.6559  3.1540
13172TIP3    H261008   6.481   0.479   2.599 -0.6669 -2.5892 -2.5293
13173TIP3   OH261009   4.314   6.567   1.493  0.2041  0.2183  0.2897
13173TIP3    H161010   4.298   6.567   1.398  0.0916 -1.4547  0.2755
13173TIP3    H261011   4.398   6.613   1.503  1.2779 -1.3806 -0.8529
13174TIP3   OH261012   3.336   3.148   0.053  0.2045 -0.3648 -0.1887
13174TIP3    H161013   3.259   3.205   0.052 -0.8727 -1.6770  1.5406
13174TIP3    H261014   3.335   3.107   0.140  1.0851 -2.7465 -1.1918
13175TIP3   OH261015   5.621   2.753  12.631  0.3366 -0.4042  0.3441
13175TIP3    H161016   5.567   2.675  12.642  0.6811 -0.7019 -0.0283
13175TIP3    H261017   5.710   2.719  12.619  0.7560  0.1203  1.8593
13176TIP3   OH261018   5.599   1.714  16.739 -0.6105  0.1985  0.0238
13176TIP3    H161019   5.610   1.654  16.665  1.1508 -0.4581  0.7608
13176TIP3    H261020   5.505   1.727  16.746 -0.9178 -1.1332 -1.2325
13177TIP3   OH261021   3.514   4.230   4.614  0.1936  0.4210 -0.9357
13177TIP3    H161022   3.426   4.224   4.578 -0.4048 -0.4923  0.5911
13177TIP3    H261023   3.502   4.264   4.702  1.4382  0.8845 -0.9177
13178TIP3   OH261024   4.100   5.411   0.374  0.2750 -0.6553 -0.5673
13178TIP3    H161025   4.184   5.449   0.348  0.2633  0.8340  1.3965
13178TIP3    H261026   4.036   5.481   0.364 -0.0666 -0.6276  1.4205
13179TIP3   OH261027   3.716   2.236   2.350  0.0693 -0.5191  0.0036
13179TIP3    H161028   3.801   2.223   2.308  0.7183 -0.6883  1.3175
13179TIP3    H261029   3.721   2.186   2.432 -1.6619 -1.3289 -0.3459
13180TIP3   OH261030   2.988   4.793  12.235 -0.0090  0.0509 -0.6345
13180TIP3    H161031   2.897   4.811  12.212  0.1977  1.5794 -0.3606
13180TIP3    H261032   3.030   4.878  12.235  1.6677 -0.7260 -1.6762
13181TIP3   OH261033   0.885   2.741   1.283  0.3005  0.0378 -0.6935
13181TIP3    H161034   0.820   2.807   1.261  0.7634  0.6142 -0.3648
13181TIP3    H261035   0.834   2.669   1.320 -0.2483  0.0263 -1.4572
13182TIP3   OH261036   2.366   2.235  14.632 -0.5851  0.4276 -0.2057
13182TIP3    H161037   2.405   2.281  14.558  1.6166  0.3191  0.7833
13182TIP3    H261038   2.384   2.291  14.707  0.1202 -0.9321  0.6949
13183TIP3   OH261039   1.585   3.289   4.278  0.2049  0.1748 -0.4648
13183TIP3    H161040   1.552   3.377   4.259  0.4270  0.5884  0.9413
13183TIP3    H261041   1.632   3.299   4.361  0.7172 -1.1623 -0.5751
13184TIP3   OH261042   3.610   4.713  12.907  0.1177  0.0192 -0.7240
13184TIP3    H161043   3.635   4.776  12.975  1.3131 -0.2886 -0.8668
13184TIP3    H261044   3.540   4.661  12.947  0.7699 -0.1197  0.2702
13185TIP3   OH261045   5.907   3.906   2.447  0.0084  0.4069 -0.0103
13185TIP3    H161046   5.949   3.942   2.369  2.6191 -0.8716  0.6747
13185TIP3    H261047   5.941   3.960   2.519  0.4802 -0.6195  0.5619
13186TIP3   OH261048   6.133   1.091   6.608  0.3450  0.7465  0.1878
13186TIP3    H161049   6.054   1.129   6.646 -1.2588  0.6117 -2.7320
13186TIP3    H261050   6.169   1.161   6.553  1.2141  0.2260  0.0831
13187TIP3   OH261051   2.358   2.492   0.245 -0.0078 -0.4727 -0.1657
13187TIP3    H161052   2.371   2.586   0.258  0.2752 -0.5535  0.1436
13187TIP3    H261053   2.441   2.462   0.207 -0.2618 -0.5197 -0.6964
13188TIP3   OH261054   4.574   4.269  11.105 -0.1584  0.0163 -0.4122
13188TIP3    H161055   4.540   4.322  11.032 -1.8779 -1.4684 -0.7728
13188TIP3    H261056   4.623   4.199  11.062  3.3358  1.9431  0.0959
13189TIP3   OH261057   5.779   5.757  11.462 -0.1273  0.9180 -0.4633
13189TIP3    H161058   5.819   5.703  11.531 -0.4237 -0.0360 -1.0199
13189TIP3    H261059   5.851   5.777  11.403 -0.1689  0.4288 -0.6884
13190TIP3   OH261060   5.360   1.905   5.460 -0.3737 -0.5671 -0.3697
13190TIP3    H161061   5.418   1.980   5.474 -2.1940  0.7566  0.5006
13190TIP3    H261062   5.285   1.941   5.413 -1.3073 -1.8266  0.0845
13191TIP3   OH261063   3.958   4.994   5.025 -0.0509  0.3845  0.0954
13191TIP3    H161064   3.887   5.017   4.965  0.4963  1.0742 -0.3029
13191TIP3    H261065   3.962   5.067   5.087  0.0580  0.1600  0.3567
13192TIP3   OH261066   1.281   1.312  12.577  0.0549 -0.4245 -0.3135
13192TIP3    H161067   1.311   1.221  12.588 -2.4392 -1.1157  1.7389
13192TIP3    H261068   1.351   1.365  12.616  1.3881 -1.4577 -1.2049
13193TIP3   OH261069   3.756   1.156  11.658 -0.2473  0.7736  0.1655
13193TIP3    H161070   3.753   1.193  11.569 -1.8946 -0.6402 -0.4427
13193TIP3    H261071   3.696   1.211  11.708 -1.4856 -0.0750 -0.3403
13194TIP3   OH261072   6.804   3.866   5.583 -0.7379 -0.3580  0.0687
13194TIP3    H161073   6.888   3.820   5.591 -1.3114 -1.4918 -0.1758
13194TIP3    H261074   6.790   3.906   5.668 -0.6543 -1.4373  0.6138
13195TIP3   OH261075   5.204   4.858   3.285 -0.3424  0.3048  0.0469
13195TIP3    H161076   5.292   4.895   3.284  0.2606 -1.0522 -1.2126
13195TIP3    H261077   5.168   4.884   3.369  1.7863 -0.2981  1.2253
13196TIP3   OH261078   0.616   0.408  15.460  0.1057 -0.3766  0.4434
13196TIP3    H161079   0.590   0.323  15.424  1.0100 -0.3959 -0.1904
13196TIP3    H261080   0.590   0.403  15.552 -1.8899 -0.4778 -0.0613
13197TIP3   OH261081   6.443   3.310   0.029  0.2406 -0.5073 -0.1446
13197TIP3    H161082   6.376   3.296   0.096  0.4008  0.7979  0.3084
13197TIP3    H261083   6.510   3.245   0.049 -0.0423 -0.5987  0.5403
13198TIP3   OH261084   1.016   6.162   4.604  0.0655 -0.3449 -0.0265
13198TIP3    H161085   1.092   6.145   4.548  1.8525  1.5119  1.6330
13198TIP3    H261086   0.954   6.207   4.547  0.7228 -0.7916 -1.1379
13199TIP3   OH261087   6.418   2.273   5.066 -0.1404  0.5453  0.3392
13199TIP3    H161088   6.395   2.191   5.109  0.0894  0.3494  0.0833
13199TIP3    H261089   6.360   2.338   5.107 -1.1187  0.0706 -0.2547
13200TIP3   OH261090   4.329   4.147  15.849 -0.0141 -0.4145 -0.2263
13200TIP3    H161091   4.304   4.092  15.923  2.6010 -0.0612  1.0483
13200TIP3    H261092   4.363   4.085  15.784 -0.8607 -0.6058 -0.4922
13201TIP3   OH261093   0.038   0.480   4.156 -0.2665  0.4916 -0.8472
13201TIP3    H161094   0.061   0.388   4.142 -0.9486  0.3608 -1.1566
13201TIP3    H261095  -0.016   0.479   4.235  2.0235  0.9942  0.8108
13202TIP3   OH261096   0.358   4.710   0.880 -0.0291 -0.0525  0.0096
13202TIP3    H161097   0.309   4.788   0.852 -2.7947 -0.9118  1.9896
13202TIP3    H261098   0.370   4.659   0.800 -2.7046  0.1137 -0.5849
13203TIP3   OH261099   6.372   6.353   3.852 -0.5337  0.4680 -0.1911
13203TIP3    H161100   6.350   6.390   3.767 -0.8611  0.3289 -0.1713
13203TIP3    H261101   6.322   6.406   3.914 -1.3966 -0.3046 -0.2013
13204TIP3   OH261102   2.223   0.350   2.904 -0.3873 -0.3103 -0.3065
13204TIP3    H161103   2.199   0.432   2.949 -0.2538 -0.0388 -0.7229
13204TIP3    H261104   2.163   0.346   2.830 -0.0203 -0.3042 -0.6042
13205TIP3   OH261105   1.979   2.071  16.662  0.5814 -0.0319 -1.1503
13205TIP3    H161106   1.883   2.063  16.658  0.4696  0.3625  0.1176
13205TIP3    H261107   1.994   2.165  16.671  1.1598  0.0119 -2.4250
13206TIP3   OH261108   2.356   6.266   0.933 -0.4058  0.0770 -0.1228
13206TIP3    H161109   2.366   6.353   0.973  0.3841  0.8011 -1.7432
13206TIP3    H261110   2.436   6.255   0.882 -1.4712 -0.6345 -1.7155
13207TIP3   OH261111   5.027   4.688  17.241  0.1508  0.3133  0.0336
13207TIP3    H161112   4.942   4.733  17.237 -0.0404 -0.0269  0.1960
13207TIP3    H261113   5.061   4.694  17.152  0.1358  0.7864  0.0550
13208TIP3   OH261114   2.805   0.987  16.477 -0.3688 -0.3631 -0.0275
13208TIP3    H161115   2.856   0.966  16.399  1.3761  0.3746  0.8507
13208TIP3    H261116   2.810   0.908  16.531  0.4703 -0.0607  0.3550
13209TIP3   OH261117   3.806   4.837   5.479 -0.3274  0.4965  0.1321
13209TIP3    H161118   3.860   4.898   5.530  0.0727  0.6784 -0.4938
13209TIP3    H261119   3.752   4.893   5.424  0.3266  0.2985 -0.7352
13210TIP3   OH261120   0.128   4.675  15.473  0.6175  0.1668  0.2679
13210TIP3    H161121   0.131   4.745  15.407 -2.3531  1.5168  1.3855
13210TIP3    H261122   0.150   4.596  15.424 -0.5290  1.2454 -2.1694
13211TIP3   OH261123   3.655   2.458   2.890 -0.7735 -0.1132  0.1430
13211TIP3    H161124   3.582   2.398   2.874  0.6138 -1.3442 -2.0837
13211TIP3    H261125   3.632   2.537   2.841 -0.0139 -1.0785 -1.9202
13212TIP3   OH261126   1.075   1.310   0.615  0.4958  0.2673 -0.0805
13212TIP3    H161127   1.095   1.241   0.552 -1.7602  0.7884 -1.4866
13212TIP3    H261128   0.984   1.334   0.596  0.3224  1.7209  2.2026
13213TIP3   OH261129   0.472   1.476  15.131 -0.2701 -0.3868  0.9184
13213TIP3    H161130   0.466   1.408  15.064  0.5500  1.2946 -0.9655
13213TIP3    H261131   0.556   1.460  15.175  1.4515  1.0913 -1.5885
13214TIP3   OH261132   4.299   6.394  12.640  0.1094 -0.4256 -0.3426
13214TIP3    H161133   4.283   6.300  12.641 -0.9791 -0.2671  0.9816
13214TIP3    H261134   4.221   6.431  12.599  0.6448 -0.1173 -1.0843
13215TIP3   OH261135   5.705   3.930  13.497 -0.1575  0.1864 -0.6450
13215TIP3    H161136   5.690   3.895  13.409  0.7028  0.1576 -0.7855
13215TIP3    H261137   5.624   3.911  13.544 -0.0024 -1.3499 -0.9382
13216TIP3   OH261138   0.415   6.778  16.555 -0.5088 -0.4901 -0.3573
13216TIP3    H161139   0.411   6.842  16.627 -0.9250  1.3066 -1.8815
13216TIP3    H261140   0.333   6.728  16.564 -0.7001 -0.0893  0.2363
13217TIP3   OH261141   2.933   2.862  13.383 -0.4749 -0.4212  0.5965
13217TIP3    H161142   2.931   2.866  13.479 -0.2440 -0.2083  0.5950
13217TIP3    H261143   2.970   2.947  13.357  1.3022 -1.2193  0.3945
13218TIP3   OH261144   1.709   4.852   0.332  0.1344  0.2356 -0.2100
13218TIP3    H161145   1.642   4.877   0.395  0.5768 -0.9692  0.7765
13218TIP3    H261146   1.710   4.756   0.335  0.0007  0.1173 -2.2461
13219TIP3   OH261147   1.827   3.629   1.203 -0.6820 -0.4351  0.1408
13219TIP3    H161148   1.801   3.579   1.125  0.7826  0.0426 -0.6822
13219TIP3    H261149   1.902   3.581   1.238  0.2161  0.7065 -0.1767
13220TIP3   OH261150   5.869   5.791   0.945 -0.4809 -0.1959  0.0174
13220TIP3    H161151   5.835   5.880   0.944  0.4614  0.2308 -2.3408
13220TIP3    H261152   5.795   5.737   0.918 -0.2282  0.3603 -2.0063
13221TIP3   OH261153   6.697   0.515   1.763 -0.2512 -0.1523 -0.0953
13221TIP3    H161154   6.677   0.456   1.836  1.8955 -0.8186  0.0309
13221TIP3    H261155   6.692   0.459   1.685  1.3166 -0.4466 -0.0222
13222TIP3   OH261156   5.483   1.412   1.746 -0.5692  0.4164 -0.6065
13222TIP3    H161157   5.418   1.464   1.794 -1.1158 -1.7989  1.2287
13222TIP3    H261158   5.567   1.446   1.776 -0.8754  1.5854 -1.0180
13223TIP3   OH261159   5.497   6.460  14.471 -0.1321  0.4456 -0.0747
13223TIP3    H161160   5.432   6.490  14.535  0.1533  1.0363 -0.0547
13223TIP3    H261161   5.568   6.524  14.477  0.3129 -0.0142 -0.3243
13224TIP3   OH261162   6.183   6.191   3.505  0.4848  0.1671 -0.3047
13224TIP3    H161163   6.159   6.167   3.595 -0.8243  1.2063 -0.3514
13224TIP3    H261164   6.159   6.283   3.497 -0.2595 -0.1235 -1.9766
13225TIP3   OH261165   5.907   3.493  12.987 -0.7861 -0.7197 -0.3599
13225TIP3    H161166   5.919   3.559  12.918 -0.1902 -1.1456 -0.6744
13225TIP3    H261167   5.827   3.520  13.032  0.1979  1.0663  0.4699
13226TIP3   OH261168   6.792   1.039   3.838 -0.3986 -0.2228  0.0628
13226TIP3    H161169   6.807   1.008   3.748  0.3175  0.2029  0.0201
13226TIP3    H261170   6.819   0.966   3.894 -0.2154 -0.2489 -0.0590
13227TIP3   OH261171   3.280   3.189  16.234  0.5212 -0.0700 -0.0605
13227TIP3    H161172   3.202   3.222  16.280 -0.8149 -1.6708 -1.0476
13227TIP3    H261173   3.318   3.266  16.193  0.4217  1.0269  1.7731
13228TIP3   OH261174   6.805   0.330   3.347 -0.3155 -0.4574  0.4629
13228TIP3    H161175   6.738   0.278   3.302 -0.2016  0.0578 -0.3384
13228TIP3    H261176   6.828   0.279   3.424 -1.5125 -0.7180  0.6700
13229TIP3   OH261177   2.306   1.589   6.189  0.2654  0.3855 -0.2160
13229TIP3    H161178   2.215   1.613   6.205  0.4974  0.9744  0.2461
13229TIP3    H261179   2.350   1.672   6.171  0.5205  0.0107 -1.4515
13230TIP3   OH261180   5.296   5.727   5.731 -1.0419  0.3329  0.0284
13230TIP3    H161181   5.369   5.703   5.675 -0.9433  0.5847  0.0483
13230TIP3    H261182   5.282   5.651   5.787 -2.8319 -1.0080 -2.0589
13231TIP3   OH261183   6.084   1.102  11.603  0.6701  0.2516  0.1148
13231TIP3    H161184   6.133   1.134  11.528  1.6540  1.0436  1.0639
13231TIP3    H261185   6.007   1.059  11.565  0.0190  2.4940 -1.2670
13232TIP3   OH261186   5.857   1.283  13.816 -0.0923  0.2214  0.4995
13232TIP3    H161187   5.873   1.367  13.771  0.0554 -0.9869 -1.8760
13232TIP3    H261188   5.920   1.282  13.888  0.9008  1.5540 -0.2886
13233TIP3   OH261189   1.959   6.337  12.293 -0.1372  0.3204  0.3107
13233TIP3    H161190   2.030   6.359  12.233  1.1764 -1.5645  1.0926
13233TIP3    H261191   2.002   6.322  12.377 -1.4155 -1.1511  0.7425
13234TIP3   OH261192   6.795   4.560  15.923  0.2629 -0.1845  0.0575
13234TIP3    H161193   6.734   4.626  15.956 -0.9909 -1.8305  1.2332
13234TIP3    H261194   6.823   4.513  16.001  2.5066  0.0244 -0.5541
13235TIP3   OH261195   0.729   5.262  12.779 -0.0799  0.2572  0.6703
13235TIP3    H161196   0.669   5.206  12.828 -1.5598  1.5497  0.4338
13235TIP3    H261197   0.705   5.351  12.806  2.1690  0.8151  1.0277
13236TIP3   OH261198   1.357   3.718   6.252  0.5432  0.0842 -0.3503
13236TIP3    H161199   1.386   3.641   6.202  1.3414 -0.1603  0.4657
13236TIP3    H261200   1.272   3.692   6.287  0.5868 -0.2438 -0.4792
13237TIP3   OH261201   5.291   5.814  13.186 -0.2213 -0.1920 -0.2937
13237TIP3    H161202   5.353   5.809  13.113  1.0688 -3.7115  0.7950
13237TIP3    H261203   5.342   5.785  13.262 -2.4929 -0.3880  1.2570
13238TIP3   OH261204   2.674   5.704   2.144 -0.4543 -0.6786  0.1493
13238TIP3    H161205   2.715   5.699   2.230 -0.4778 -0.0664  0.2021
13238TIP3    H261206   2.627   5.788   2.145 -2.1752 -1.6175  0.3019
13239TIP3   OH261207   5.141   1.852  15.283 -0.2628  0.0637 -0.0887
13239TIP3    H161208   5.066   1.847  15.224  0.3929  1.2911 -1.0834
13239TIP3    H261209   5.179   1.764  15.281 -2.3693 -0.9672  1.4541
13240TIP3   OH261210   2.169   1.553  14.626 -0.3057 -0.5448  0.3690
13240TIP3    H161211   2.218   1.479  14.590  1.1874  0.2245  0.7607
13240TIP3    H261212   2.189   1.626  14.568 -1.8677 -0.4255 -0.0891
13241TIP3   OH261213   2.128   1.232   2.665 -0.5306 -0.1688 -0.0184
13241TIP3    H161214   2.174   1.316   2.667  0.2523 -0.4987 -1.7998
13241TIP3    H261215   2.044   1.252   2.624 -0.1933 -0.2997 -0.7901
13242TIP3   OH261216   4.123   3.022  16.699  0.7014  0.2801 -0.7069
13242TIP3    H161217   4.087   3.064  16.621  2.2972  0.5831 -1.3205
13242TIP3    H261218   4.063   3.048  16.770 -1.1383 -0.5110 -1.8841
13243TIP3   OH261219   5.777   5.214   0.147  0.5278  0.4626  0.3388
13243TIP3    H161220   5.717   5.240   0.077  2.3196  0.1579 -1.4184
13243TIP3    H261221   5.744   5.130   0.178 -0.0649  0.4020 -0.4483
13244TIP3   OH261222   3.805   4.966  13.813 -0.2086 -0.4832 -0.4244
13244TIP3    H161223   3.794   4.878  13.777  0.1346 -0.4413 -0.6351
13244TIP3    H261224   3.798   4.955  13.907 -0.9206 -0.6231 -0.4886
13245TIP3   OH261225   4.739   3.826   4.094  0.2049 -0.3589 -0.0415
13245TIP3    H161226   4.745   3.843   4.000  1.0358 -0.0400  0.0572
13245TIP3    H261227   4.794   3.748   4.107 -1.3724 -1.5194 -0.0807
13246TIP3   OH261228   3.431   6.730  15.651  0.2655 -0.1939 -0.3827
13246TIP3    H161229   3.444   6.640  15.619 -0.6741  0.0228 -1.4326
13246TIP3    H261230   3.517   6.771  15.643  1.0384 -1.3336  1.3126
13247TIP3   OH261231   3.357   3.125  15.019  0.3366  0.7276  0.2945
13247TIP3    H161232   3.383   3.199  15.073 -1.0395 -0.5180  2.8356
13247TIP3    H261233   3.439   3.078  15.002  0.8677  1.4483  0.8209
13248TIP3   OH261234   6.488   3.138   3.664  0.0470  0.0639 -0.0847
13248TIP3    H161235   6.397   3.140   3.691  0.5273 -0.0897  1.7041
13248TIP3    H261236   6.516   3.048   3.683  0.2885 -0.2090 -1.6597
13249TIP3   OH261237   3.648   1.603  12.746 -0.5040 -0.3494  0.5442
13249TIP3    H161238   3.674   1.517  12.779  2.1013  0.5186  1.0423
13249TIP3    H261239   3.622   1.588  12.655  2.1178 -1.4259 -0.1249
13250TIP3   OH261240   5.075   6.605  14.662 -0.2564  0.1130 -0.0255
13250TIP3    H161241   5.093   6.525  14.612 -0.1892  0.8537 -1.2272
13250TIP3    H261242   4.980   6.616  14.655 -0.8128 -1.6435  2.9884
13251TIP3   OH261243   1.225   5.622  14.998  0.6010  0.3411  0.5499
13251TIP3    H161244   1.277   5.687  15.045  2.6453 -0.3182 -0.6677
13251TIP3    H261245   1.194   5.668  14.920  2.3926 -0.1718 -0.5231
13252TIP3   OH261246   3.781   5.507   3.929  0.1654  0.0212 -0.3824
13252TIP3    H161247   3.779   5.532   4.021 -0.2985  0.5537 -0.5267
13252TIP3    H261248   3.869   5.472   3.915 -0.0798 -0.9657  0.4875
13253TIP3   OH261249   3.209   4.299  15.648 -0.4056 -0.0901 -0.5489
13253TIP3    H161250   3.233   4.208  15.666 -1.6731 -0.0051  1.9243
13253TIP3    H261251   3.158   4.295  15.567  2.3250 -1.0548 -2.3780
13254TIP3   OH261252   2.830   3.095  11.497  0.1392  0.2512 -0.0286
13254TIP3    H161253   2.773   3.134  11.431  1.3546  0.9728 -0.7108
13254TIP3    H261254   2.917   3.129  11.475  0.7953 -0.6436  1.0897
13255TIP3   OH261255   2.472   5.743   0.875  0.3833 -0.0260  0.3569
13255TIP3    H161256   2.405   5.811   0.883  0.1304 -0.1050 -0.9679
13255TIP3    H261257   2.427   5.662   0.898 -0.4633 -0.3176 -2.1004
13256TIP3   OH261258   3.153   1.380  16.058  0.0991 -0.1745  0.1912
13256TIP3    H161259   3.236   1.397  16.015 -0.1358 -0.7212 -0.4850
13256TIP3    H261260   3.177   1.352  16.147  0.5953  0.5546  0.2937
13257TIP3   OH261261   4.183   0.821  13.826 -0.0776  0.6575  0.2286
13257TIP3    H161262   4.225   0.873  13.896 -0.0674  0.5286  0.3174
13257TIP3    H261263   4.102   0.869  13.807  0.4737  1.3364 -0.4805
13258TIP3   OH261264   5.859   0.341   1.815 -0.6566  0.2348  0.4439
13258TIP3    H161265   5.800   0.412   1.791 -2.4222 -1.4625 -0.6196
13258TIP3    H261266   5.906   0.373   1.891 -0.5014  2.9565 -0.6738
13259TIP3   OH261267   0.149   0.825  15.192 -0.2740  0.1542 -0.0109
13259TIP3    H161268   0.084   0.859  15.130 -1.1287 -0.3357  0.5861
13259TIP3    H261269   0.219   0.790  15.137 -0.3857  0.9283 -0.6653
13260TIP3   OH261270   3.333   0.200  13.708 -0.0681  0.2405  0.2354
13260TIP3    H161271   3.397   0.241  13.766  0.6569 -1.0636  0.4019
13260TIP3    H261272   3.251   0.245  13.727 -0.0928 -0.8239  3.0586
13261TIP3   OH261273   0.791   3.469   5.116  0.2933 -0.1223 -0.3193
13261TIP3    H161274   0.857   3.537   5.103  0.6398 -0.5994 -1.1457
13261TIP3    H261275   0.775   3.468   5.211  0.7802  0.6354 -0.2251
13262TIP3   OH261276   3.936   5.527  12.710 -0.2721 -0.2760 -0.1488
13262TIP3    H161277   3.913   5.594  12.774  0.5473 -1.8195  1.8618
13262TIP3    H261278   4.019   5.557  12.672 -0.7421  0.6235 -0.4779
13263TIP3   OH261279   5.412   3.962   1.569  0.2484 -0.1113 -0.5266
13263TIP3    H161280   5.434   4.011   1.648 -0.7571 -1.2961  0.5315
13263TIP3    H261281   5.480   3.987   1.506  0.2604  1.9477  0.2222
13264TIP3   OH261282   4.872   5.784   4.859 -0.0204 -0.2438  0.4841
13264TIP3    H161283   4.910   5.741   4.936 -0.5805 -2.2499 -0.2970
13264TIP3    H261284   4.860   5.713   4.796 -2.5019  0.7968 -0.3061
13265TIP3   OH261285   3.679   6.528   2.128 -0.4976 -0.2667  0.1393
13265TIP3    H161286   3.727   6.603   2.163  0.3830 -1.2936  1.2165
13265TIP3    H261287   3.640   6.487   2.205 -0.7448 -1.0615 -0.3996
13266TIP3   OH261288   4.299   3.749   3.952  0.5782  0.1314  0.1762
13266TIP3    H161289   4.356   3.710   4.018  0.0317 -0.5297  0.2647
13266TIP3    H261290   4.262   3.826   3.994 -2.2207 -1.9317  1.8501
13267TIP3   OH261291   2.378   5.440   4.437  0.0724 -0.5878 -0.3519
13267TIP3    H161292   2.369   5.417   4.344  0.4086 -1.2893 -0.2106
13267TIP3    H261293   2.301   5.401   4.479 -0.7191  0.7270 -0.5034
13268TIP3   OH261294   3.117   0.550  16.803 -0.2641  0.1192 -0.0180
13268TIP3    H161295   3.143   0.599  16.881 -1.0553  2.2037 -1.0048
13268TIP3    H261296   3.151   0.461  16.818  2.7355  1.3239  1.0957
13269TIP3   OH261297   2.790   3.424   2.041  0.0952  0.0186  0.1621
13269TIP3    H161298   2.763   3.426   1.949 -1.6833 -1.7753  0.5826
13269TIP3    H261299   2.749   3.501   2.080  0.7628  0.7224 -0.5055
13270TIP3   OH261300   1.681   4.952  10.950 -0.1070 -0.3373  0.1506
13270TIP3    H161301   1.722   5.019  10.894 -0.8386  1.6433  1.8471
13270TIP3    H261302   1.589   4.953  10.924 -0.0837 -0.8418  0.0467
13271TIP3   OH261303   0.735   1.874   2.630 -0.4093  0.7387 -0.3530
13271TIP3    H161304   0.744   1.779   2.640 -0.3148  0.5903 -1.6083
13271TIP3    H261305   0.643   1.891   2.651 -1.0327  0.0119 -2.2320
13272TIP3   OH261306   0.893   2.170   1.334 -0.5591 -0.5985  0.0994
13272TIP3    H161307   0.988   2.173   1.319 -0.6253 -0.9148 -0.4172
13272TIP3    H261308   0.881   2.215   1.417  0.1363 -1.2659  0.5853
13273TIP3   OH261309   6.420   4.925  16.307  0.0926  0.5250  0.4351
13273TIP3    H161310   6.407   4.840  16.349  1.3584  1.7854  3.6794
13273TIP3    H261311   6.372   4.918  16.224 -0.9094 -2.8628  1.1370
13274TIP3   OH261312   5.239   1.048   4.456 -0.0763 -0.3111  0.0549
13274TIP3    H161313   5.192   1.009   4.383  1.0554  1.2829 -1.6087
13274TIP3    H261314   5.318   1.086   4.417  0.1958  1.2820  1.9767
13275TIP3   OH261315   2.387   3.129  11.918 -0.4069  0.3526 -0.2582
13275TIP3    H161316   2.365   3.167  11.833 -0.2362 -1.3955 -1.1084
13275TIP3    H261317   2.412   3.205  11.972 -2.1908  1.6769 -1.2030
13276TIP3   OH261318   1.946   4.477   3.138 -0.1204  0.4288 -0.4761
13276TIP3    H161319   1.879   4.545   3.143 -1.0327 -0.4281 -0.6497
13276TIP3    H261320   1.924   4.427   3.059  0.1594 -0.4305 -0.0257
13277TIP3   OH261321   3.274   5.723   4.096  0.4184  0.2445 -0.3929
13277TIP3    H161322   3.351   5.695   4.047 -0.1229 -0.9392 -0.6140
13277TIP3    H261323   3.210   5.747   4.029 -0.1973 -1.0329 -0.3008
13278TIP3   OH261324   0.201   1.479  14.842 -0.0387 -0.0525  0.1285
13278TIP3    H161325   0.235   1.408  14.788 -0.6355 -0.1200 -0.1548
13278TIP3    H261326   0.106   1.467  14.842 -0.3253  1.7702 -1.3774
13279TIP3   OH261327   5.881   6.618   6.772  0.1675 -0.0498  0.1452
13279TIP3    H161328   5.825   6.696   6.777  1.0807  1.1412 -4.0745
13279TIP3    H261329   5.963   6.645   6.814 -0.3962  0.2835  1.0610
13280TIP3   OH261330   0.597   0.480  15.852 -0.2358 -0.1843  0.1110
13280TIP3    H161331   0.517   0.528  15.869 -0.7232 -0.5153 -1.0996
13280TIP3    H261332   0.657   0.506  15.921 -1.1506  0.6168  0.6148
13281TIP3   OH261333   3.375   3.215  14.220  0.0599 -0.2462 -0.4140
13281TIP3    H161334   3.362   3.234  14.127  0.6555  0.9646 -0.2697
13281TIP3    H261335   3.312   3.145  14.239 -0.2091 -0.3771 -1.6700
13282TIP3   OH261336   6.627   6.274   3.964 -0.3795 -0.0381 -0.4810
13282TIP3    H161337   6.685   6.285   3.888 -1.5046  1.4376 -1.1878
13282TIP3    H261338   6.541   6.298   3.931 -0.7950  1.2913  1.4286
13283TIP3   OH261339   3.169   2.805   4.085 -0.2632 -0.2158  0.1011
13283TIP3    H161340   3.086   2.759   4.078 -0.7326  0.5231  0.5970
13283TIP3    H261341   3.205   2.803   3.997 -0.9488 -0.3080 -0.1860
13284TIP3   OH261342   3.634   6.568   3.926  0.1423  0.2292  0.8158
13284TIP3    H161343   3.608   6.494   3.872  0.7783  0.7367 -0.2274
13284TIP3    H261344   3.699   6.532   3.987  0.9033  0.0420 -0.0884
13285TIP3   OH261345   0.931   2.920   3.997 -0.3414 -0.5294 -0.2008
13285TIP3    H161346   1.010   2.928   4.051 -0.8012 -0.2201  0.4350
13285TIP3    H261347   0.874   2.990   4.027  0.5514  1.6642 -3.1273
13286TIP3   OH261348   1.288   0.513   4.834  0.2228 -0.2596 -0.5066
13286TIP3    H161349   1.272   0.532   4.927 -0.1575 -2.6175 -0.0262
13286TIP3    H261350   1.333   0.428   4.835  2.1944  0.6592 -2.4052
13287TIP3   OH261351   4.620   1.657   5.532  0.2447  0.3401  0.3340
13287TIP3    H161352   4.624   1.740   5.581 -0.4277 -0.4490  1.8084
13287TIP3    H261353   4.651   1.591   5.595  2.7887 -0.3284 -1.4490
13288TIP3   OH261354   1.057   0.761  13.926  0.1129  0.1269  0.2522
13288TIP3    H161355   1.089   0.671  13.925  0.8089  0.3631  0.8456
13288TIP3    H261356   0.992   0.764  13.996  0.9430  0.3658  1.0263
13289TIP3   OH261357   4.272   0.483  15.834  0.0640  0.2178 -0.4700
13289TIP3    H161358   4.319   0.401  15.849  1.9550  1.3652  0.2412
13289TIP3    H261359   4.261   0.520  15.922  0.2494  1.2334 -0.8603
13290TIP3   OH261360   5.332   0.172  11.727 -0.0031 -0.3586 -0.4995
13290TIP3    H161361   5.298   0.140  11.644 -1.6250 -1.4083  0.5207
13290TIP3    H261362   5.336   0.094  11.783 -0.3495  0.5689  0.8547
13291TIP3   OH261363   5.123   1.544  10.804 -0.0846 -0.6698 -0.3464
13291TIP3    H161364   5.062   1.512  10.738 -1.6742  0.3996  0.5652
13291TIP3    H261365   5.073   1.545  10.885  0.5232  2.0289  0.0742
13292TIP3   OH261366   3.187   6.246  14.638 -0.0570 -0.7362 -0.3457
13292TIP3    H161367   3.276   6.275  14.655  0.2605 -1.4191 -0.7978
13292TIP3    H261368   3.189   6.152  14.652 -0.3960 -0.9466 -1.5652
13293TIP3   OH261369   3.784   1.941   3.165 -0.1240  0.0658  0.0206
13293TIP3    H161370   3.784   2.021   3.217 -0.7315  1.5088 -2.0346
13293TIP3    H261371   3.708   1.950   3.108  0.7125 -1.1953 -1.3692
13294TIP3   OH261372   0.412   6.198  13.666 -0.1028  0.5722  0.0407
13294TIP3    H161373   0.461   6.164  13.591 -0.7791 -1.4897  0.4522
13294TIP3    H261374   0.459   6.165  13.742 -0.1450  1.5756  0.5142
13295TIP3   OH261375   4.052   4.478  16.030  0.0622  0.6017 -0.2506
13295TIP3    H161376   4.027   4.550  16.088 -0.1993  0.2925  0.0277
13295TIP3    H261377   4.087   4.412  16.090 -1.8085 -0.4379 -0.2394
13296TIP3   OH261378   6.477   1.554  11.869 -0.2620 -0.0506 -0.1755
13296TIP3    H161379   6.556   1.508  11.841  0.3725  0.2257  1.1391
13296TIP3    H261380   6.469   1.627  11.807 -1.6356 -2.1617 -2.7026
13297TIP3   OH261381   3.712   0.249  12.766  0.3240 -0.4517  0.4995
13297TIP3    H161382   3.770   0.325  12.757  0.0429  0.0415  2.3081
13297TIP3    H261383   3.771   0.174  12.774  0.7154 -0.0637  1.4228
13298TIP3   OH261384   3.543   1.969   4.327 -0.8272 -0.0536  0.0973
13298TIP3    H161385   3.536   1.909   4.401 -4.1341  2.0239  1.6953
13298TIP3    H261386   3.481   1.934   4.263 -0.6744  0.1369 -0.1553
13299TIP3   OH261387   3.457   1.052   0.724  1.0776 -0.2726 -0.8101
13299TIP3    H161388   3.396   1.115   0.764  1.1834 -1.2897  1.0473
13299TIP3    H261389   3.525   1.107   0.684  1.0601  0.8061  0.5796
13300TIP3   OH261390   1.714   4.228   5.739  0.8365  0.1731  0.1820
13300TIP3    H161391   1.720   4.321   5.718 -0.3243  0.5180  1.2666
13300TIP3    H261392   1.725   4.184   5.654 -2.8698  1.4806 -1.1841
13301TIP3   OH261393   5.042   0.939   3.063 -0.1595 -0.7202 -0.0217
13301TIP3    H161394   5.041   0.979   2.975 -2.2634  0.4222  0.4451
13301TIP3    H261395   4.989   0.860   3.054 -0.2116 -0.7074  0.1698
13302TIP3   OH261396   5.581   3.031  10.855 -0.0748  0.1169 -0.1917
13302TIP3    H161397   5.555   2.942  10.877 -0.8165 -0.3290 -2.6031
13302TIP3    H261398   5.511   3.087  10.890 -0.3743 -0.3748 -0.0041
13303TIP3   OH261399   2.323   1.741   2.451 -0.3335 -0.6425  0.1268
13303TIP3    H161400   2.294   1.715   2.363 -1.8484  2.2564 -0.3429
13303TIP3    H261401   2.411   1.774   2.438  0.1678 -1.9227  0.0854
13304TIP3   OH261402   6.413   4.046   3.711 -0.1141  0.2856  0.4903
13304TIP3    H161403   6.426   4.122   3.768  2.6522  0.3871 -0.1328
13304TIP3    H261404   6.496   4.036   3.665 -0.5352 -2.8140  0.1571
13305TIP3   OH261405   3.335   3.437   5.220 -1.0010  0.7217  0.0241
13305TIP3    H161406   3.367   3.527   5.213 -1.5857  1.0810  1.4712
13305TIP3    H261407   3.414   3.385   5.235 -0.7243  1.0961 -0.1020
13306TIP3   OH261408   2.276   2.125  15.135 -0.2681  0.1525  0.1019
13306TIP3    H161409   2.332   2.194  15.168  2.5377 -1.9585  0.1457
13306TIP3    H261410   2.239   2.160  15.054  1.1817  1.6356  0.0347
13307TIP3   OH261411   0.195   5.965   2.575 -0.3014 -0.6821 -0.4144
13307TIP3    H161412   0.215   5.977   2.668  0.0889 -1.3536 -0.4038
13307TIP3    H261413   0.118   5.908   2.574 -2.2590  1.7924 -0.4593
13308TIP3   OH261414   4.429   6.763  16.629 -0.2305 -0.7349 -0.2118
13308TIP3    H161415   4.432   6.675  16.665 -0.1964 -1.4489 -1.8935
13308TIP3    H261416   4.339   6.792  16.645 -0.9145 -1.9550 -1.5741
13309TIP3   OH261417   2.346   3.831  13.565 -0.4713 -0.0851  0.5278
13309TIP3    H161418   2.358   3.919  13.529 -1.1585 -0.2281 -0.0751
13309TIP3    H261419   2.257   3.832  13.602 -0.3179 -0.3932  0.9162
13310TIP3   OH261420   3.190   1.659  10.998 -0.0969  0.1821  0.3060
13310TIP3    H161421   3.284   1.673  10.984 -0.1016  0.4793  0.5552
13310TIP3    H261422   3.168   1.716  11.072 -0.3934 -0.1830  0.5059
13311TIP3   OH261423   4.647   4.610   4.352  0.2170  0.1355  0.1292
13311TIP3    H161424   4.714   4.602   4.420  1.6262  1.8833 -0.9706
13311TIP3    H261425   4.623   4.702   4.352 -0.4095 -0.0060 -1.1328
13312TIP3   OH261426   3.258   2.110  13.655 -0.5732 -0.0951 -0.6943
13312TIP3    H161427   3.327   2.053  13.623 -0.6064 -0.5437  0.0168
13312TIP3    H261428   3.298   2.197  13.658  0.1448 -0.4377  0.2258
13313TIP3   OH261429   2.882   1.597  15.221 -0.2022  0.2945  0.0574
13313TIP3    H161430   2.809   1.589  15.282 -0.1974  1.5762  0.2655
13313TIP3    H261431   2.844   1.578  15.135 -0.6206  0.2556  0.2505
13314TIP3   OH261432   2.226   0.429  15.482  0.4004  0.5222  0.0508
13314TIP3    H161433   2.314   0.418  15.447 -1.0773 -1.8583 -3.4710
13314TIP3    H261434   2.186   0.496  15.425 -1.0303 -0.8890 -0.6765
13315TIP3   OH261435   1.385   2.174   0.972  0.2948 -0.1960 -0.4776
13315TIP3    H161436   1.325   2.100   0.963 -0.2821  0.2726 -0.4810
13315TIP3    H261437   1.337   2.239   1.022  0.7597  0.2311 -0.5712
13316TIP3   OH261438   0.376   6.523  16.829  0.2822  0.2272 -0.1798
13316TIP3    H161439   0.298   6.486  16.872  0.6376 -2.1861 -1.4431
13316TIP3    H261440   0.341   6.573  16.756 -0.2216  2.7884  1.6772
13317TIP3   OH261441   5.493   6.589   4.265  0.2999  0.4207  0.6052
13317TIP3    H161442   5.454   6.633   4.190 -0.6433 -1.8806 -0.3560
13317TIP3    H261443   5.440   6.615   4.339 -3.6006 -2.8232 -0.6878
13318TIP3   OH261444   4.566   6.530  12.663 -0.0108 -0.2765  0.0399
13318TIP3    H161445   4.498   6.462  12.654  1.1812 -1.5151  0.0712
13318TIP3    H261446   4.554   6.586  12.586 -0.9311 -0.5930 -0.0613
13319TIP3   OH261447   1.221   5.789   1.607 -0.4262  0.0664 -0.0905
13319TIP3    H161448   1.286   5.720   1.603 -0.2200  0.2668 -0.2240
13319TIP3    H261449   1.244   5.839   1.686 -0.3336  0.2171 -0.2108
13320TIP3   OH261450   4.959   4.423  13.302 -0.9051  0.3879  0.1496
13320TIP3    H161451   4.929   4.507  13.268  1.5527  0.6990 -1.5554
13320TIP3    H261452   5.048   4.440  13.333 -0.9007 -1.2720  1.1612
13321TIP3   OH261453   5.218   0.942   4.185  0.7328  0.3903 -0.0076
13321TIP3    H161454   5.197   0.952   4.092  0.7853 -1.6470 -0.2881
13321TIP3    H261455   5.228   0.847   4.197  0.7302  0.6127  2.0826
13322TIP3   OH261456   4.381   0.644   6.302  0.3625 -0.5986  0.4788
13322TIP3    H161457   4.333   0.700   6.363  0.7437  0.4465 -0.1578
13322TIP3    H261458   4.463   0.624   6.347  0.1576 -0.7876  0.7728
13323TIP3   OH261459   5.703   3.170  15.631  0.8246 -0.3247 -0.6516
13323TIP3    H161460   5.609   3.151  15.634  0.8594 -0.3260  1.4831
13323TIP3    H261461   5.708   3.255  15.588 -0.0976 -0.5617 -1.2748
13324TIP3   OH261462   5.048   4.213  13.552  0.3940  0.0878 -0.6919
13324TIP3    H161463   5.105   4.275  13.507  1.5933  0.2413  0.9514
13324TIP3    H261464   5.058   4.234  13.645  0.6967 -2.4282 -0.0851
13325TIP3   OH261465   0.895   5.626  15.331 -0.0288 -0.4467 -0.3559
13325TIP3    H161466   0.980   5.589  15.306 -0.1351 -0.1522 -1.1954
13325TIP3    H261467   0.842   5.551  15.355  1.1117 -0.5290  2.3876
13326TIP3   OH261468   0.686   4.005  14.992 -0.0299 -0.1982 -0.2348
13326TIP3    H161469   0.656   3.998  14.901 -0.8304 -3.8910  0.1597
13326TIP3    H261470   0.765   3.952  14.996  1.7203  2.2784  0.7179
13327TIP3   OH261471   1.416   4.206   3.653 -0.5104 -0.0749  0.0422
13327TIP3    H161472   1.495   4.259   3.662 -0.0093 -0.7903 -0.0669
13327TIP3    H261473   1.442   4.119   3.684 -1.2498 -0.3204 -0.0126
13328TIP3   OH261474   5.336   0.971  12.859 -0.8574  0.5197  0.5470
13328TIP3    H161475   5.396   0.948  12.930  1.0722 -0.7151 -1.3510
13328TIP3    H261476   5.346   0.900  12.796 -2.2189  1.7247 -1.1180
13329TIP3   OH261477   6.207   0.711   2.245 -0.2134 -1.4292  0.1654
13329TIP3    H161478   6.294   0.742   2.270 -0.5209 -0.3991  0.0219
13329TIP3    H261479   6.149   0.749   2.311 -0.5119 -2.5640  0.5870
13330TIP3   OH261480   4.868   0.723   4.754 -0.2370  0.0188 -0.2950
13330TIP3    H161481   4.809   0.680   4.691  2.4604 -1.0593 -2.2656
13330TIP3    H261482   4.909   0.794   4.704  1.6536 -0.5717  0.3580
13331TIP3   OH261483   1.670   5.819  14.888  0.1064  0.0002 -0.3163
13331TIP3    H161484   1.666   5.830  14.793 -2.4875 -0.3056 -0.3156
13331TIP3    H261485   1.647   5.905  14.923  2.3875  0.5029  0.1380
13332TIP3   OH261486   4.629   3.582   5.510 -0.1792  0.1662  0.2478
13332TIP3    H161487   4.613   3.675   5.491 -1.8342 -0.0227  0.5663
13332TIP3    H261488   4.556   3.537   5.468  0.6515 -1.0196  0.0383
13333TIP3   OH261489   5.724   5.861  14.347 -0.2745  0.2424 -0.0440
13333TIP3    H161490   5.726   5.955  14.361  1.3278  0.1037  0.8522
13333TIP3    H261491   5.633   5.836  14.366 -0.5656  1.5030  0.3198
13334TIP3   OH261492   5.402   4.085  12.850 -0.2451 -0.1209  0.4773
13334TIP3    H161493   5.322   4.137  12.847  1.1010  2.0368 -1.4284
13334TIP3    H261494   5.372   3.995  12.837 -2.3247  0.7464 -1.4547
13335TIP3   OH261495   6.432   6.126   3.013 -0.3156  0.1323  0.8536
13335TIP3    H161496   6.392   6.186   3.075  0.8084  0.8331  0.9338
13335TIP3    H261497   6.505   6.175   2.976  0.0074 -0.8369  0.1581
13336TIP3   OH261498   0.147   2.607  15.122 -0.5105 -0.4983 -0.5145
13336TIP3    H161499   0.137   2.611  15.217 -0.0101  1.1953 -0.4916
13336TIP3    H261500   0.059   2.589  15.089 -0.5526 -1.8512  0.2754
13337TIP3   OH261501   6.598   3.269  12.816 -0.1396 -0.0394 -0.2432
13337TIP3    H161502   6.617   3.182  12.849 -1.3281  0.3378  1.5809
13337TIP3    H261503   6.541   3.308  12.883 -0.0539  1.9434 -1.2627
13338TIP3   OH261504   4.135   1.501  12.805 -0.0426  0.7144 -0.1125
13338TIP3    H161505   4.101   1.549  12.880  0.6988 -0.1841  0.8236
13338TIP3    H261506   4.058   1.466  12.762 -0.3923 -1.4834  2.0964
13339TIP3   OH261507   1.540   4.216  13.408  0.5451  0.3667  0.1802
13339TIP3    H161508   1.596   4.145  13.378  2.3567  2.1225 -0.8187
13339TIP3    H261509   1.497   4.247  13.328  3.5566  3.5108 -0.4365
13340TIP3   OH261510   4.235   1.526  17.212  0.6251 -0.1877  0.6124
13340TIP3    H161511   4.172   1.529  17.140  0.7818  2.0821  0.5065
13340TIP3    H261512   4.181   1.506  17.289 -0.0093  0.3822  0.3246
13341TIP3   OH261513   0.845   6.555  14.221  0.4079 -0.3150  0.3696
13341TIP3    H161514   0.933   6.538  14.188  0.6292 -1.1167  1.3157
13341TIP3    H261515   0.804   6.468  14.226  0.0504 -0.1029  1.2401
13342TIP3   OH261516   5.912   0.338   0.970  0.2075 -0.3790 -0.4312
13342TIP3    H161517   5.935   0.261   0.918  0.5418 -1.4719  1.2673
13342TIP3    H261518   5.857   0.305   1.041 -1.1554  1.2400 -0.6566
13343TIP3   OH261519   1.246   1.087   4.046  0.4306  0.0564 -0.9957
13343TIP3    H161520   1.226   1.144   3.972 -0.6883 -0.7039 -1.3046
13343TIP3    H261521   1.338   1.105   4.066  0.4097  1.1598 -1.7776
13344TIP3   OH261522   1.329   4.178  14.603  0.0500  0.2941 -0.1416
13344TIP3    H161523   1.378   4.260  14.601 -1.9316  1.5548 -0.5774
13344TIP3    H261524   1.238   4.205  14.618 -0.4996 -1.9351  1.0212
13345TIP3   OH261525   1.912   3.844  11.895 -0.7682 -0.1529  0.5681
13345TIP3    H161526   1.916   3.936  11.919  0.5949 -0.4061  1.4795
13345TIP3    H261527   1.999   3.825  11.859 -1.3583 -0.8495 -0.5513
13346TIP3   OH261528   2.023   3.182  11.338 -0.1278  0.1242 -0.1579
13346TIP3    H161529   2.060   3.226  11.261 -0.5865  0.6468 -0.0879
13346TIP3    H261530   2.095   3.128  11.371  0.0476 -0.1686 -0.9940
13347TIP3   OH261531   6.123   0.537  15.589 -0.8677  0.5814 -0.4857
13347TIP3    H161532   6.084   0.459  15.628 -1.4304  0.6928 -0.8055
13347TIP3    H261533   6.187   0.568  15.653 -0.6615 -0.1260 -0.3517
13348TIP3   OH261534   3.697   5.809  15.362  0.1094  0.2196  0.0412
13348TIP3    H161535   3.618   5.861  15.377 -0.6841 -0.3752 -1.7416
13348TIP3    H261536   3.767   5.873  15.354 -0.8718  1.1492 -2.2998
13349TIP3   OH261537   2.970   6.451  17.000  0.0867 -0.0708 -0.1941
13349TIP3    H161538   2.908   6.505  17.049  0.3985  0.1779 -0.0727
13349TIP3    H261539   2.929   6.365  16.997 -0.8026  0.3733 -1.1190
13350TIP3   OH261540   4.725   4.427  15.793 -0.1353 -0.5657  0.2797
13350TIP3    H161541   4.666   4.353  15.806 -0.0599 -0.2107  3.1288
13350TIP3    H261542   4.748   4.455  15.881  0.7755  2.1357 -0.7369
13351TIP3   OH261543   0.773   1.301  12.426  0.2280 -0.6517 -0.3019
13351TIP3    H161544   0.794   1.290  12.519 -1.5463  0.5293  0.2838
13351TIP3    H261545   0.852   1.270  12.380  1.4170 -0.6136  1.5898
13352TIP3   OH261546   6.715   2.513  15.038  0.3562 -0.0023 -0.2437
13352TIP3    H161547   6.670   2.571  14.977 -2.6732 -2.1114 -0.2453
13352TIP3    H261548   6.657   2.509  15.114  1.1018 -1.9764  0.2771
13353TIP3   OH261549   3.329   0.254   2.830 -0.0587 -1.0578  0.2879
13353TIP3    H161550   3.245   0.284   2.795  1.2082  0.7470 -1.4278
13353TIP3    H261551   3.378   0.334   2.848  0.7036 -2.0139  2.9820
13354TIP3   OH261552   5.308   3.453   0.970 -0.1088  0.0292 -0.7041
13354TIP3    H161553   5.310   3.521   0.903 -1.2762  1.2664  0.4496
13354TIP3    H261554   5.397   3.451   1.005 -0.2533  1.6511 -0.1496
13355TIP3   OH261555   0.318   3.617  12.760 -0.1150 -0.3139  0.0820
13355TIP3    H161556   0.232   3.576  12.752 -0.4268  0.5679 -1.4388
13355TIP3    H261557   0.337   3.650  12.672  1.5640 -0.0649  0.5149
13356TIP3   OH261558   1.092   4.079  12.085 -0.0125  0.3859 -0.2981
13356TIP3    H161559   1.137   4.129  12.153 -0.6691  1.7862 -0.8620
13356TIP3    H261560   1.150   4.084  12.009  0.4065 -0.6174 -0.0646
13357TIP3   OH261561   0.636   0.509  11.495  0.0882  0.2114 -0.4681
13357TIP3    H161562   0.692   0.518  11.418  0.9946  1.0316  0.2656
13357TIP3    H261563   0.547   0.514  11.460  0.4776 -0.1115 -1.5389
13358TIP3   OH261564   6.376   4.125  15.008 -0.4909  0.2989 -0.0061
13358TIP3    H161565   6.306   4.179  14.971 -0.8321 -0.9070 -1.1991
13358TIP3    H261566   6.455   4.153  14.962 -0.3161  1.1107  0.7718
13359TIP3   OH261567   5.634   6.724   1.155  0.8285 -0.2004 -0.2683
13359TIP3    H161568   5.541   6.699   1.158  0.9653 -0.8892 -1.0736
13359TIP3    H261569   5.634   6.819   1.167 -0.0939 -0.0284 -1.3809
13360TIP3   OH261570   1.055   3.593  16.594  0.2945  0.5691  0.3055
13360TIP3    H161571   1.087   3.636  16.515  0.4947  1.0509  0.6415
13360TIP3    H261572   1.131   3.591  16.652  0.0122  0.6931  0.6811
13361TIP3   OH261573   5.351   3.071  14.492  0.0280  0.6684  0.3709
13361TIP3    H161574   5.356   3.167  14.493  0.1873  0.6717 -0.3221
13361TIP3    H261575   5.409   3.044  14.563 -1.6974  1.1288  2.0740
13362TIP3   OH261576   1.156   3.995  15.197  0.1548  0.6046  0.0805
13362TIP3    H161577   1.224   3.981  15.131  1.0894 -2.0017  1.4424
13362TIP3    H261578   1.160   3.917  15.252 -3.4867  0.6472  0.6735
13363TIP3   OH261579   2.223   2.230   0.230 -0.0420  0.8236 -0.7864
13363TIP3    H161580   2.281   2.171   0.278 -0.3236 -0.9369 -2.4644
13363TIP3    H261581   2.255   2.318   0.250  0.9233  0.0855  1.1523
13364TIP3   OH261582   4.021   4.377  16.701 -0.2968 -0.2306  0.3857
13364TIP3    H161583   3.972   4.428  16.766 -1.9865 -1.3536  0.0629
13364TIP3    H261584   4.052   4.301  16.749 -0.4035 -0.4081  0.1719
13365TIP3   OH261585   3.625   1.508  16.229  0.4864 -0.1674 -0.0066
13365TIP3    H161586   3.622   1.503  16.133 -0.7404 -1.1155  0.0619
13365TIP3    H261587   3.662   1.423  16.255  4.7421  1.4963  0.2761
13366TIP3   OH261588   4.600   1.660  15.846 -0.4548  0.6068 -0.0437
13366TIP3    H161589   4.572   1.676  15.936 -0.3356  0.4431  0.0224
13366TIP3    H261590   4.566   1.573  15.824 -0.8680  0.8327 -0.3111
13367TIP3   OH261591   5.370   0.896   3.455 -0.1175 -0.0023 -0.4413
13367TIP3    H161592   5.276   0.910   3.440 -0.1987 -0.0246  0.0169
13367TIP3    H261593   5.405   0.871   3.369 -0.6453 -0.5912 -0.4971
13368TIP3   OH261594   3.414   6.015   2.479  0.0481  0.3516 -0.4664
13368TIP3    H161595   3.411   6.032   2.573 -1.9884  0.1399 -0.4507
13368TIP3    H261596   3.328   6.041   2.447 -1.1843 -4.0881 -1.4458
13369TIP3   OH261597   3.862   0.879   2.628  0.1989 -0.4056 -0.0018
13369TIP3    H161598   3.805   0.951   2.602  1.9524  1.0569  0.0573
13369TIP3    H261599   3.884   0.897   2.719 -1.3204 -2.4268  0.8650
13370TIP3   OH261600   2.860   0.509  16.753  0.0111  0.5174 -0.0469
13370TIP3    H161601   2.887   0.459  16.676 -0.5086 -0.9181  0.6670
13370TIP3    H261602   2.942   0.537  16.794  0.3051  0.2366 -0.4434
13371TIP3   OH261603   4.362   5.822   4.219 -0.1540 -0.2660 -0.0821
13371TIP3    H161604   4.307   5.744   4.207  1.6052 -1.6037  0.1230
13371TIP3    H261605   4.330   5.861   4.300  0.0869 -1.8224  0.7976
13372TIP3   OH261606   2.885   2.511  15.135  0.4498  0.2251 -0.6108
13372TIP3    H161607   2.882   2.522  15.230 -0.2118  1.0491 -0.7166
13372TIP3    H261608   2.900   2.600  15.102 -1.8491  0.3665 -1.3877
13373TIP3   OH261609   2.879   6.138   1.642 -0.4979  0.3259  0.2250
13373TIP3    H161610   2.813   6.204   1.661 -1.2665 -0.7187  1.3428
13373TIP3    H261611   2.833   6.071   1.591  0.2987  0.6711 -0.9933
13374TIP3   OH261612   4.975   4.346   3.287  0.0458  0.5535 -0.2353
13374TIP3    H161613   4.969   4.430   3.332  0.1612  1.8082 -2.4329
13374TIP3    H261614   4.976   4.368   3.194  2.3833 -1.7176 -0.8833
13375TIP3   OH261615   5.271   0.906   2.766 -0.0423  0.0961 -0.1505
13375TIP3    H161616   5.198   0.957   2.798  0.2601  1.2068 -1.1814
13375TIP3    H261617   5.231   0.838   2.711 -0.4190 -0.6527  0.9995
13376TIP3   OH261618   4.881   0.547   2.296 -0.1893 -0.2385  0.1633
13376TIP3    H161619   4.868   0.480   2.230  1.2565 -2.0742  1.6432
13376TIP3    H261620   4.889   0.629   2.246 -1.2588 -1.2324 -1.7268
13377TIP3   OH261621   0.694   3.258  11.924 -0.2467 -0.9228 -0.2933
13377TIP3    H161622   0.774   3.298  11.889 -1.1950  0.5497 -0.8362
13377TIP3    H261623   0.712   3.246  12.017  0.9223 -1.4611 -0.5639
13378TIP3   OH261624   2.082   1.271  11.879  0.3368  0.0161 -0.0256
13378TIP3    H161625   2.134   1.280  11.959  1.3599  1.0343 -0.7791
13378TIP3    H261626   2.147   1.271  11.808 -0.5346 -1.1409 -0.8533
13379TIP3   OH261627   0.059   3.864   5.231  0.4454  0.2229  0.0320
13379TIP3    H161628   0.059   3.944   5.283 -0.9339  0.0498  0.3407
13379TIP3    H261629   0.093   3.891   5.146  0.7184  0.9608  0.3592
13380TIP3   OH261630   0.669   6.712  16.945  0.4522 -0.3716 -0.2605
13380TIP3    H161631   0.736   6.780  16.955 -0.2629  0.2739  0.2884
13380TIP3    H261632   0.630   6.730  16.860 -0.8226  0.9491  0.5463
13381TIP3   OH261633   4.192   4.778   5.469  0.7501  0.4281  0.2078
13381TIP3    H161634   4.263   4.836   5.442 -0.7105  1.6230 -1.3556
13381TIP3    H261635   4.119   4.803   5.412 -0.1510 -2.5521 -0.0977
13382TIP3   OH261636   3.265   6.538  15.310  0.2250  0.5926 -0.3529
13382TIP3    H161637   3.360   6.536  15.296  0.1640  2.3403 -1.2900
13382TIP3    H261638   3.237   6.447  15.299  1.4474  0.4436 -2.8451
13383TIP3   OH261639   3.993   4.516   4.682  0.6589  0.0798  0.5337
13383TIP3    H161640   3.965   4.447   4.741  0.4333 -0.5471 -0.2933
13383TIP3    H261641   3.975   4.597   4.729 -0.4253 -0.3807  0.9220
13384TIP3   OH261642   4.251   3.238  16.428  0.4529  0.5529  0.2647
13384TIP3    H161643   4.332   3.214  16.475  1.6011 -0.8573 -2.2455
13384TIP3    H261644   4.282   3.278  16.347 -1.4343  1.3242 -0.1133
13385TIP3   OH261645   3.393   3.934  14.636  0.0615  0.4420 -0.4402
13385TIP3    H161646   3.470   3.987  14.657  1.0444 -0.2700 -2.1024
13385TIP3    H261647   3.426   3.844  14.633 -1.3413 -0.1886  1.1573
13386TIP3   OH261648   4.653   1.286   4.185  0.2632 -0.2444 -0.7113
13386TIP3    H161649   4.722   1.310   4.123  0.5904  1.2211  0.1775
13386TIP3    H261650   4.667   1.343   4.260 -0.7907 -1.2305  0.2711
13387TIP3   OH261651   6.203   3.731  15.405 -0.3413 -0.5221 -0.4526
13387TIP3    H161652   6.123   3.683  15.428 -0.1906 -0.8716 -0.6578
13387TIP3    H261653   6.221   3.706  15.314  0.6872 -1.4126 -0.0251
13388TIP3   OH261654   1.460   4.949  14.323 -0.5315  0.3172 -0.2451
13388TIP3    H161655   1.517   4.903  14.385  0.2732 -1.5812 -2.2578
13388TIP3    H261656   1.375   4.954  14.367  0.3815  0.3817  1.5778
13389TIP3   OH261657   4.720   4.745   5.938 -0.6183  0.1037 -0.3907
13389TIP3    H161658   4.673   4.814   5.890 -0.3135 -0.1880 -1.1179
13389TIP3    H261659   4.716   4.669   5.881  0.6123  0.0320 -0.4108
13390TIP3   OH261660   2.932   4.268   3.243  0.3323  0.1165 -0.2875
13390TIP3    H161661   2.859   4.232   3.193  2.2700 -1.3944 -2.2044
13390TIP3    H261662   2.991   4.194   3.256  1.6495  1.3300  1.0055
13391TIP3   OH261663   0.611   1.904  14.847 -0.4677  0.0998 -0.3402
13391TIP3    H161664   0.536   1.889  14.905  0.7324  1.5018  1.6628
13391TIP3    H261665   0.571   1.914  14.760 -2.3492 -1.7039  0.2463
13392TIP3   OH261666   6.615   6.555   6.252 -0.5715 -0.2201  0.1367
13392TIP3    H161667   6.700   6.517   6.230 -0.9628 -0.7425 -0.5269
13392TIP3    H261668   6.595   6.521   6.339 -0.6437 -1.0893 -0.2047
13393TIP3   OH261669   4.207   2.021  16.589 -0.0474 -0.3777 -0.3185
13393TIP3    H161670   4.206   2.072  16.508  1.3213 -0.7976 -0.6208
13393TIP3    H261671   4.225   2.085  16.658  1.4326 -0.3872 -0.6684
13394TIP3   OH261672   6.529   4.990  15.373 -0.1811  0.2493 -0.7796
13394TIP3    H161673   6.546   4.947  15.457 -0.2153  1.8328  0.0779
13394TIP3    H261674   6.605   5.046  15.358 -0.5641  0.6244 -1.3782
13395TIP3   OH261675   0.344   6.099  12.919  0.3705  0.1600  0.0775
13395TIP3    H161676   0.300   6.034  12.864  0.5944  0.3969 -0.3855
13395TIP3    H261677   0.346   6.178  12.866 -2.8239  1.5724  1.8025
13396TIP3   OH261678   3.237   0.629  14.494 -0.6107  0.1943  0.0950
13396TIP3    H161679   3.202   0.553  14.448 -0.8472  1.3512 -1.7135
13396TIP3    H261680   3.159   0.679  14.519 -0.4485 -0.0533  1.1323
13397TIP3   OH261681   4.167   6.725  16.731 -0.6744  0.2181 -0.2001
13397TIP3    H161682   4.078   6.760  16.730  0.3381  3.0797  0.2168
13397TIP3    H261683   4.174   6.678  16.814 -1.5059  0.8533  0.2391
13398TIP3   OH261684   3.509   2.627  16.650  0.1636 -0.5921  0.6281
13398TIP3    H161685   3.584   2.577  16.617  0.1058 -0.2860  0.0124
13398TIP3    H261686   3.444   2.560  16.673  0.7321 -0.8727  1.4492
13399TIP3   OH261687   2.719   6.183   1.106 -0.5363  0.1096  0.6280
13399TIP3    H161688   2.788   6.204   1.168  0.3802 -0.1036 -0.2844
13399TIP3    H261689   2.682   6.101   1.138  1.7115 -1.4508 -0.4797
13400TIP3   OH261690   0.673   2.450   4.822 -0.0974  0.1973  0.3339
13400TIP3    H161691   0.676   2.407   4.737  1.2185  1.8292 -0.4857
13400TIP3    H261692   0.692   2.380   4.885 -0.3560 -0.8741 -0.7429
13401TIP3   OH261693   1.085   1.290  11.690 -0.2642  0.4298  0.4453
13401TIP3    H161694   1.058   1.214  11.743  0.1937  1.8622  2.9078
13401TIP3    H261695   1.114   1.252  11.607 -2.4831 -1.8360  0.5704
13402TIP3   OH261696   5.726   6.499  16.514  0.4932 -0.9137  0.0398
13402TIP3    H161697   5.805   6.451  16.539 -0.2539 -2.1998  0.0149
13402TIP3    H261698   5.691   6.451  16.439 -0.1032 -0.1301 -0.2014
13403TIP3   OH261699   0.486   4.303  16.163 -0.4631 -0.3917 -0.3213
13403TIP3    H161700   0.423   4.232  16.152 -1.4349  0.3205  0.4127
13403TIP3    H261701   0.528   4.284  16.247 -0.3343 -0.3957 -0.3875
13404TIP3   OH261702   0.251   6.804  16.996  0.0450  0.4438  0.0909
13404TIP3    H161703   0.247   6.741  17.068  0.8097 -0.1588 -0.3774
13404TIP3    H261704   0.258   6.889  17.039 -0.6255  0.1898  0.7299
13405TIP3   OH261705   2.150   4.156   5.749 -0.2645 -0.0011  0.0473
13405TIP3    H161706   2.184   4.067   5.762 -0.3247  0.1153  1.1771
13405TIP3    H261707   2.105   4.153   5.665  1.6435 -0.4402 -1.0207
13406TIP3   OH261708   1.736   1.680   0.243  0.1541  0.3145  0.0772
13406TIP3    H161709   1.743   1.774   0.255 -1.4274  0.3176  1.3387
13406TIP3    H261710   1.792   1.643   0.311 -0.7007  0.3681  0.8335
13407TIP3   OH261711   4.110   0.417   2.507 -0.3020 -0.4111 -0.7118
13407TIP3    H161712   4.029   0.368   2.493 -0.6465 -0.3406  0.8394
13407TIP3    H261713   4.084   0.489   2.565  1.0946 -1.1636  0.9485
13408TIP3   OH261714   3.989   2.268   5.793 -0.3525  0.3709  0.0195
13408TIP3    H161715   3.939   2.234   5.718  1.0318 -2.8121  0.3543
13408TIP3    H261716   4.074   2.291   5.755  0.0630 -0.4459  0.4252
13409TIP3   OH261717   6.017   6.763   2.186  0.7596 -0.1427  0.4925
13409TIP3    H161718   5.930   6.796   2.167  0.7539 -1.2100 -1.6074
13409TIP3    H261719   6.004   6.699   2.256 -0.2173 -0.6263 -0.1151
13410TIP3   OH261720   5.336   5.185   2.141  0.0006  0.3670 -0.1150
13410TIP3    H161721   5.356   5.125   2.213  0.0287 -0.2764 -0.6524
13410TIP3    H261722   5.421   5.219   2.113 -0.1014  1.6830  1.0318
13411TIP3   OH261723   5.460   3.152   6.044  0.6755 -0.6152  0.4867
13411TIP3    H161724   5.373   3.173   6.012  0.5915  0.2330  1.2363
13411TIP3    H261725   5.461   3.056   6.048  0.9428 -0.8324 -2.6185
13412TIP3   OH261726   0.480   1.101   4.646 -0.3968 -0.0766  0.6153
13412TIP3    H161727   0.420   1.138   4.580  0.0275 -0.9702 -0.3010
13412TIP3    H261728   0.566   1.133   4.620 -0.0646 -1.4382 -0.0186
13413TIP3   OH261729   4.164   2.286   3.555  0.2870  0.0776  0.6745
13413TIP3    H161730   4.160   2.280   3.650 -1.1436 -0.1546  0.6221
13413TIP3    H261731   4.193   2.199   3.526 -1.4956 -0.6040  0.8172
13414TIP3   OH261732   3.780   5.364  16.873  0.0564  0.6640  0.3493
13414TIP3    H161733   3.853   5.363  16.936  1.4797 -1.1488 -1.2238
13414TIP3    H261734   3.797   5.441  16.819 -0.8906  1.9368  1.7790
13415TIP3   OH261735   5.564   2.642  13.561 -0.3973  0.4223 -0.4999
13415TIP3    H161736   5.579   2.721  13.509  0.2466  0.5192 -0.1798
13415TIP3    H261737   5.584   2.570  13.502 -0.5037  0.5077 -0.6416
13416TIP3   OH261738   3.935   1.757   4.200  0.1188  0.1473 -0.1264
13416TIP3    H161739   3.922   1.765   4.294 -2.1789  0.2611 -0.4063
13416TIP3    H261740   3.972   1.669   4.188 -0.5527 -0.2781  0.8150
13417TIP3   OH261741   1.064   4.549   5.991  0.6553 -0.2374 -0.3002
13417TIP3    H161742   1.100   4.526   6.076  1.1821 -1.9622 -0.9391
13417TIP3    H261743   0.985   4.494   5.983 -0.1465  0.8908 -0.3929
13418TIP3   OH261744   3.332   0.028   2.162 -0.2885 -0.3025  0.2891
13418TIP3    H161745   3.326   0.120   2.186  1.5557  0.0370 -0.4192
13418TIP3    H261746   3.250   0.010   2.116 -0.3940  1.1878 -0.1647
13419TIP3   OH261747   1.823   1.896   3.229 -0.7180  0.0540  0.5581
13419TIP3    H161748   1.906   1.937   3.253 -1.3063  0.9107  1.2291
13419TIP3    H261749   1.760   1.968   3.233 -1.3475 -0.4006 -0.7643
13420TIP3   OH261750   4.997   2.514   4.937 -0.0403  0.2113  0.2339
13420TIP3    H161751   4.976   2.553   4.852  0.2677  1.6704  0.7936
13420TIP3    H261752   4.965   2.578   5.001 -0.3070 -0.8867  1.2276
13421TIP3   OH261753   0.908   2.519  13.634  0.6818  0.2671  0.2717
13421TIP3    H161754   0.968   2.547  13.565  0.1085  1.1298  0.1164
13421TIP3    H261755   0.937   2.430  13.656  0.2313 -0.4423 -1.8176
13422TIP3   OH261756   6.674   5.114   3.249 -0.3542  0.0534 -0.1922
13422TIP3    H161757   6.590   5.159   3.254  0.5726  1.7431  1.7605
13422TIP3    H261758   6.729   5.172   3.196 -0.4262 -1.1828 -1.7150
13423TIP3   OH261759   1.538   3.441  11.901  0.1904  0.6861 -0.0188
13423TIP3    H161760   1.557   3.531  11.927 -2.1523  1.2714 -0.1610
13423TIP3    H261761   1.450   3.444  11.865 -0.1529 -1.7717  0.4390
13424TIP3   OH261762   6.638   4.789   4.099 -0.4102 -0.0924 -0.2281
13424TIP3    H161763   6.651   4.841   4.179 -0.4462 -3.5796  2.3176
13424TIP3    H261764   6.567   4.729   4.121  0.0796 -1.6912 -2.6280
13425TIP3   OH261765   0.113   3.680   1.173 -0.2638 -0.4744 -0.3414
13425TIP3    H161766   0.026   3.655   1.202 -1.3750 -0.4161 -3.3060
13425TIP3    H261767   0.172   3.624   1.224 -2.0321 -1.0789  1.1491
13426TIP3   OH261768   6.230   6.289   1.450 -0.1775 -0.2903 -0.5942
13426TIP3    H161769   6.192   6.211   1.492 -0.5976 -0.3801 -1.1154
13426TIP3    H261770   6.166   6.358   1.468  0.6457  0.1757  0.6630
13427TIP3   OH261771   5.120   2.555  13.918 -0.1161  0.4317  0.4996
13427TIP3    H161772   5.049   2.522  13.862 -0.1018  0.4007  0.5002
13427TIP3    H261773   5.158   2.627  13.867 -0.3309  0.6341  0.6247
13428TIP3   OH261774   6.086   3.952  15.163  0.3153  1.2800  0.6920
13428TIP3    H161775   6.096   3.959  15.068 -0.0097 -0.1451  0.5418
13428TIP3    H261776   6.167   3.909  15.192 -0.6704 -0.6338  0.7297
13429TIP3   OH261777   3.959   6.215   1.799  0.3786 -0.4998 -0.1416
13429TIP3    H161778   4.013   6.232   1.721  0.5188 -1.5891 -0.2855
13429TIP3    H261779   3.881   6.268   1.785  0.6977 -0.1608 -0.7026
13430TIP3   OH261780   0.095   1.672   3.778 -0.0711 -0.2989  0.1248
13430TIP3    H161781   0.076   1.751   3.828  0.6905 -1.6269  2.6565
13430TIP3    H261782   0.191   1.667   3.777 -0.1099 -1.7233  0.9586
13431TIP3   OH261783   3.231   3.771   0.905 -0.2930  0.6998  0.3752
13431TIP3    H161784   3.146   3.797   0.868 -0.3298  1.8444  1.2043
13431TIP3    H261785   3.266   3.851   0.943  2.8574  1.2082 -3.0146
13432TIP3   OH261786   6.189   4.690   2.712 -0.1103  0.2964 -0.1601
13432TIP3    H161787   6.109   4.639   2.698  0.3320 -0.2929 -0.6040
13432TIP3    H261788   6.158   4.774   2.747 -0.8257 -0.3955  0.9382
13433TIP3   OH261789   1.672   3.498   1.678 -0.2067  0.1956  0.0017
13433TIP3    H161790   1.591   3.547   1.690  0.6020  1.2763  1.3481
13433TIP3    H261791   1.646   3.406   1.683 -1.3045  0.5376  0.7858
13434TIP3   OH261792   5.563   2.980  14.909 -0.2419 -0.0924 -0.5690
13434TIP3    H161793   5.509   2.902  14.892 -0.2643  0.0050 -0.9489
13434TIP3    H261794   5.531   3.013  14.993  0.1960 -0.8584 -0.0886
13435TIP3   OH261795   1.557   3.044  16.655 -0.1874  0.2938  0.4831
13435TIP3    H161796   1.547   2.977  16.724 -0.3505 -0.2347 -0.0438
13435TIP3    H261797   1.647   3.073  16.663  0.1267 -0.5790  0.1949
13436TIP3   OH261798   2.514   0.530  12.319  0.2504 -0.0288  0.5008
13436TIP3    H161799   2.526   0.539  12.224  0.4111 -0.0936  0.5159
13436TIP3    H261800   2.492   0.437  12.331  0.7400 -0.1362  0.5825
13437TIP3   OH261801   2.197   4.866  16.343  0.0027 -0.3180 -0.0543
13437TIP3    H161802   2.280   4.911  16.334 -0.3172  0.2060 -0.4374
13437TIP3    H261803   2.200   4.798  16.275 -0.5153  0.7073 -1.1430
13438TIP3   OH261804   6.215   5.899  14.835  0.2889 -0.1731 -0.5087
13438TIP3    H161805   6.169   5.840  14.895 -0.3190  0.3726 -0.4288
13438TIP3    H261806   6.147   5.933  14.777  0.5751  0.6575 -0.3785
13439TIP3   OH261807   3.952   1.758  13.463 -0.0293 -0.3844  0.3289
13439TIP3    H161808   4.043   1.776  13.437 -0.1748 -0.1715 -0.0423
13439TIP3    H261809   3.939   1.810  13.542  0.3221 -0.7900  0.6577
13440TIP3   OH261810   4.210   3.610  14.053 -0.1675  0.4595 -0.2153
13440TIP3    H161811   4.243   3.545  13.990  1.6419 -0.0450  1.1807
13440TIP3    H261812   4.164   3.557  14.118 -1.1519  0.8834 -0.5555
13441TIP3   OH261813   0.228   5.910  11.557  0.0948 -0.3525 -0.0144
13441TIP3    H161814   0.216   5.840  11.622  1.3001 -0.8300 -0.2747
13441TIP3    H261815   0.241   5.863  11.475  0.6441  0.1842 -0.2377
13442TIP3   OH261816   2.668   1.634  14.088 -0.7095 -0.1120  0.2215
13442TIP3    H161817   2.710   1.608  14.006 -0.4129 -0.9143  0.6157
13442TIP3    H261818   2.631   1.720  14.070  0.6208  0.3669 -0.3125
13443TIP3   OH261819   0.577   1.669   6.342 -0.2206  0.4270  0.1252
13443TIP3    H161820   0.668   1.675   6.313 -0.1510 -0.8685  0.0424
13443TIP3    H261821   0.551   1.579   6.322 -1.8849  1.0836 -0.9332
13444TIP3   OH261822   2.140   0.647  11.498 -0.2468 -0.3020 -0.2555
13444TIP3    H161823   2.209   0.638  11.433 -0.7021 -0.5136 -0.7244
13444TIP3    H261824   2.096   0.729  11.475 -0.0786 -0.1105  0.1083
13445TIP3   OH261825   0.303   3.763  11.353 -0.2326 -0.3061  0.1078
13445TIP3    H161826   0.286   3.676  11.317  1.6839 -1.0424  0.8301
13445TIP3    H261827   0.397   3.764  11.369  0.0221  2.3535 -0.9782
13446TIP3   OH261828   5.918   0.925  12.598  0.2661  0.4929  0.2552
13446TIP3    H161829   5.929   0.856  12.532  0.8238 -0.4174  1.2816
13446TIP3    H261830   5.957   1.003  12.558 -0.2334  0.1968 -0.8557
13447TIP3   OH261831   1.883   6.674  14.230 -0.6427  0.3079 -0.1665
13447TIP3    H161832   1.974   6.663  14.254 -0.1935  2.5270 -0.6120
13447TIP3    H261833   1.881   6.755  14.179 -2.6144 -0.5541 -1.6003
13448TIP3   OH261834   2.528   5.656  14.462 -0.0407 -0.0555  0.4015
13448TIP3    H161835   2.490   5.605  14.391 -0.0682  0.4936  0.0141
13448TIP3    H261836   2.514   5.604  14.540  0.9500 -1.1852 -0.1456
13449TIP3   OH261837   0.039   5.380  14.003  0.7055 -0.4781  0.3261
13449TIP3    H161838   0.133   5.396  14.007  0.6686 -0.4423  1.3440
13449TIP3    H261839   0.031   5.286  13.990  0.8788 -0.2949 -1.3463
13450TIP3   OH261840   3.760   2.472  11.488 -0.7728  0.2378  0.1261
13450TIP3    H161841   3.713   2.388  11.478 -1.9313  0.8686  0.1065
13450TIP3    H261842   3.760   2.510  11.400  1.6869 -0.6884 -0.3594
13451TIP3   OH261843   1.739   2.643  13.803 -0.0794 -0.4046 -0.1084
13451TIP3    H161844   1.709   2.700  13.873 -1.7760 -0.0906 -1.0362
13451TIP3    H261845   1.697   2.678  13.724  0.9716 -1.3447 -1.1291
13452TIP3   OH261846   0.849   6.760  11.681  1.0490 -0.6027  0.0207
13452TIP3    H161847   0.823   6.719  11.764  0.6059  0.5047  0.4529
13452TIP3    H261848   0.933   6.721  11.660  0.7400 -1.5746  0.5159
13453TIP3   OH261849   2.190   3.180   3.330  0.3406  0.3406 -0.1289
13453TIP3    H161850   2.142   3.158   3.409 -1.3290  2.7861 -0.3538
13453TIP3    H261851   2.266   3.230   3.360 -0.6068  1.7800 -0.0385
13454TIP3   OH261852   6.078   2.342  15.506  0.1773 -0.2542  0.5144
13454TIP3    H161853   6.156   2.379  15.466  0.2075  0.9250  1.6089
13454TIP3    H261854   6.007   2.367  15.448  0.6482 -2.0614 -0.9581
13455TIP3   OH261855   3.900   1.036   3.201  0.2083  0.0384  0.3519
13455TIP3    H161856   3.839   1.102   3.234  0.1422  1.4788 -2.3448
13455TIP3    H261857   3.975   1.041   3.260  0.2176  2.6380  0.2649
13456TIP3   OH261858   3.796   5.599   0.048  0.1352  0.4052 -0.8622
13456TIP3    H161859   3.842   5.610  -0.035  1.3290 -2.1599 -0.6423
13456TIP3    H261860   3.780   5.688   0.079  1.2276  1.4031 -2.9819
13457TIP3   OH261861   3.993   2.345   2.184  0.3719 -0.1724 -0.0187
13457TIP3    H161862   4.034   2.401   2.118 -0.5315  2.2558  1.3713
13457TIP3    H261863   3.937   2.286   2.133  1.2755  0.2343 -1.5495
13458TIP3   OH261864   5.902   5.991   1.228 -0.4719 -0.2054  0.5139
13458TIP3    H161865   5.846   6.019   1.300  0.9518 -2.3905  2.6338
13458TIP3    H261866   5.940   6.072   1.194 -4.1821  1.2904 -0.5647
13459TIP3   OH261867   5.324   5.213   1.166  0.2147 -0.4371 -0.8990
13459TIP3    H161868   5.296   5.269   1.238  2.9963  1.3418 -1.0690
13459TIP3    H261869   5.296   5.125   1.192  1.0028  0.1486  2.3423
13460TIP3   OH261870   5.603   6.810   4.584 -0.1399 -0.1633 -0.2432
13460TIP3    H161871   5.521   6.845   4.550 -1.2818 -2.5369 -0.0994
13460TIP3    H261872   5.576   6.746   4.650  1.8827  0.0087  0.8320
13461TIP3   OH261873   4.952   0.162  14.555 -0.2944  0.0608 -0.4781
13461TIP3    H161874   4.934   0.079  14.511 -0.7109  1.0456 -2.2477
13461TIP3    H261875   4.871   0.212  14.546  0.5542  1.3591 -1.0933
13462TIP3   OH261876   1.399   2.602  12.031 -0.5063 -0.3743 -0.1994
13462TIP3    H161877   1.320   2.655  12.034  0.6634  1.5054 -0.7607
13462TIP3    H261878   1.422   2.599  11.938 -0.2314 -1.4071 -0.1092
13463TIP3   OH261879   0.382   1.863  15.630  0.0580 -0.2099  0.7527
13463TIP3    H161880   0.431   1.785  15.605  2.1588  0.3754  2.6784
13463TIP3    H261881   0.383   1.861  15.726 -1.6825  1.1125  0.8408
13464TIP3   OH261882   5.820   2.029  17.035 -0.2835 -0.0778 -0.1834
13464TIP3    H161883   5.833   1.977  16.956  1.3873  0.6154 -0.4109
13464TIP3    H261884   5.880   2.103  17.025  0.5193 -0.3527  2.0379
13465TIP3   OH261885   0.598   5.597  13.688 -0.1234  0.3986  0.0225
13465TIP3    H161886   0.576   5.650  13.611 -0.1047  1.0970  0.4885
13465TIP3    H261887   0.693   5.586  13.683  0.2410  2.4514  1.1689
13466TIP3   OH261888   0.972   3.858  15.565 -0.1825 -0.6301 -0.1922
13466TIP3    H161889   1.019   3.825  15.488  0.4723 -0.7632  0.2588
13466TIP3    H261890   1.013   3.943  15.583 -0.4765 -0.5045 -0.1114
13467TIP3   OH261891   2.562   3.617   2.914 -0.2762  0.3574 -0.4566
13467TIP3    H161892   2.615   3.678   2.863 -1.6707  1.1350 -1.0235
13467TIP3    H261893   2.515   3.673   2.976 -0.3270 -0.3436  0.1511
13468TIP3   OH261894   3.505   0.468  13.083 -0.5455 -0.2669 -0.0236
13468TIP3    H161895   3.595   0.437  13.089 -0.5021 -0.2956 -0.7621
13468TIP3    H261896   3.508   0.542  13.023 -0.1795  3.0607  3.6429
13469TIP3   OH261897   1.488   0.845   3.835 -0.3438  0.6695  0.1780
13469TIP3    H161898   1.550   0.890   3.779  0.6320 -0.0625  0.6392
13469TIP3    H261899   1.530   0.761   3.855 -1.7423 -0.1211 -0.0012
13470TIP3   OH261900   6.357   5.022  10.221  0.2274  0.2957 -0.5460
13470TIP3    H161901   6.322   4.960  10.157 -1.1912 -0.3522  0.8039
13470TIP3    H261902   6.411   4.969  10.279  0.2350  0.5907 -0.2804
13471TIP3   OH261903   1.125   5.629   0.507  0.4668  0.0513  0.1707
13471TIP3    H161904   1.097   5.717   0.481 -1.3390 -0.9331 -1.5247
13471TIP3    H261905   1.145   5.585   0.425 -0.1811 -1.5907  0.8484
13472TIP3   OH261906   1.916   3.060   5.485 -0.5182  0.3593  0.6558
13472TIP3    H161907   1.997   3.031   5.525 -0.3360 -0.1424 -0.0597
13472TIP3    H261908   1.876   2.981   5.450  0.3126  0.9872 -1.9299
13473TIP3   OH261909   6.207   2.141   1.943 -0.4408 -0.3818 -0.4613
13473TIP3    H161910   6.163   2.057   1.958 -0.0728 -0.1707  2.2301
13473TIP3    H261911   6.137   2.200   1.914 -1.1233 -1.0844 -0.2752
13474TIP3   OH261912   2.254   2.384   2.803  0.9218 -0.2145  0.0569
13474TIP3    H161913   2.178   2.356   2.855 -0.5063 -1.8926 -2.6755
13474TIP3    H261914   2.326   2.386   2.865 -1.0477  0.0562  2.5016
13475TIP3   OH261915   3.434   4.757   4.077 -0.2170 -0.1642  0.3376
13475TIP3    H161916   3.385   4.750   3.994 -0.1060  0.3524  0.2246
13475TIP3    H261917   3.431   4.669   4.114 -2.0754  0.0416  0.8068
13476TIP3   OH261918   6.810   2.286  14.930 -0.4055  0.0641  0.0896
13476TIP3    H161919   6.837   2.218  14.992  0.3683  0.6283  0.3913
13476TIP3    H261920   6.776   2.356  14.985 -0.4864  0.2280 -0.1708
13477TIP3   OH261921   1.234   6.177   5.886 -0.4150  0.3087  0.1033
13477TIP3    H161922   1.250   6.122   5.963  0.3573 -1.1484 -1.0400
13477TIP3    H261923   1.280   6.132   5.815  0.1091  2.3961 -0.9323
13478TIP3   OH261924   0.076   5.945   2.926  0.4233 -0.0527  0.2116
13478TIP3    H161925   0.132   6.020   2.907  0.4168  0.2086  1.1721
13478TIP3    H261926   0.131   5.868   2.908  1.1548  0.1974  1.2594
13479TIP3   OH261927   2.935   5.218  16.752 -0.5188  0.1722 -0.7857
13479TIP3    H161928   2.859   5.209  16.810 -0.8547  0.7612 -1.1245
13479TIP3    H261929   2.913   5.163  16.676 -0.4200  0.0118 -0.6996
13480TIP3   OH261930   4.915   5.195  14.371  0.4168  0.4916 -0.0455
13480TIP3    H161931   4.825   5.198  14.403  1.2113  1.7736  2.2731
13480TIP3    H261932   4.967   5.228  14.444  2.7099  0.4539 -1.5918
13481TIP3   OH261933   0.021   3.482  11.149  0.2371 -0.1443 -0.4975
13481TIP3    H161934   0.012   3.401  11.098 -0.0710 -1.4000  1.4439
13481TIP3    H261935  -0.068   3.500  11.180  0.4601  0.4759 -0.2161
13482TIP3   OH261936   5.020   3.417  10.991  0.5004  0.4009 -0.1448
13482TIP3    H161937   4.925   3.430  10.986  0.5718  0.5986 -1.2714
13482TIP3    H261938   5.038   3.408  11.085 -0.6776 -0.0138  0.0622
13483TIP3   OH261939   5.855   5.013  12.065  0.2455  0.5070 -0.0518
13483TIP3    H161940   5.777   4.990  12.116 -0.3774  1.5339 -0.4972
13483TIP3    H261941   5.925   4.961  12.103 -0.8659 -1.2893 -0.3572
13484TIP3   OH261942   3.545   0.986  13.900 -0.1392 -0.2706  0.3860
13484TIP3    H161943   3.603   0.978  13.976  0.4050  2.2062  0.3130
13484TIP3    H261944   3.458   0.997  13.938 -0.0410 -0.2483  0.6066
13485TIP3   OH261945   2.670   6.354  11.852  0.2553 -0.0708  0.1771
13485TIP3    H161946   2.634   6.321  11.934  1.3405 -1.2404  0.2300
13485TIP3    H261947   2.659   6.281  11.791 -1.4892  1.1497 -1.0447
13486TIP3   OH261948   0.276   1.754   5.609 -0.2417 -0.0980  0.7747
13486TIP3    H161949   0.221   1.708   5.673  1.1940 -0.1668  2.0249
13486TIP3    H261950   0.342   1.689   5.583  1.2392  0.9144  1.8512
13487TIP3   OH261951   5.600   6.305   2.508  0.3190 -0.7627 -0.5768
13487TIP3    H161952   5.606   6.376   2.445 -0.1614  0.6854  0.9417
13487TIP3    H261953   5.658   6.237   2.474  0.8407  0.3721 -2.0280
13488TIP3   OH261954   4.293   3.407  12.941  0.3204  0.4934 -0.2003
13488TIP3    H161955   4.270   3.487  12.987 -0.9973  2.0092 -3.2064
13488TIP3    H261956   4.325   3.436  12.856  0.8770 -2.1419 -0.9903
13489TIP3   OH261957   1.043   3.560  13.309  0.0259 -0.6873 -0.3839
13489TIP3    H161958   1.025   3.588  13.219 -0.5733  1.2346  0.2809
13489TIP3    H261959   1.131   3.521  13.305 -0.4156 -1.6112 -1.9671
13490TIP3   OH261960   2.350   5.863   0.645 -0.3644  0.5557 -0.1498
13490TIP3    H161961   2.424   5.841   0.701 -1.0206 -1.0934  0.1050
13490TIP3    H261962   2.336   5.957   0.660  1.1506  0.7157  0.3948
13491TIP3   OH261963   1.930   5.072   5.566 -0.4039  0.0678  0.1338
13491TIP3    H161964   2.019   5.037   5.576 -0.1119  0.8112  0.2046
13491TIP3    H261965   1.875   5.013   5.617 -0.0845 -0.9061 -0.6078
13492TIP3   OH261966   6.063   2.241  14.264 -0.4378  0.0363 -0.3084
13492TIP3    H161967   6.018   2.177  14.319 -0.0136 -1.6762 -1.8650
13492TIP3    H261968   6.111   2.296  14.326 -0.7813 -1.1653  1.0895
13493TIP3   OH261969   5.207   6.551  16.696  0.6722 -0.8617  0.1750
13493TIP3    H161970   5.120   6.525  16.725  0.2056  1.1473  0.7181
13493TIP3    H261971   5.191   6.611  16.623  1.3779  2.0180  2.2330
13494TIP3   OH261972   1.363   3.894   1.592 -0.0451 -0.2675  0.4595
13494TIP3    H161973   1.288   3.925   1.643 -0.6345 -2.1623  0.8169
13494TIP3    H261974   1.324   3.862   1.511  0.5760  0.1361 -0.0040
13495TIP3   OH261975   0.197   2.996  11.571 -0.2020 -0.1363  0.4935
13495TIP3    H161976   0.266   3.014  11.635  0.4829  2.8434 -0.9065
13495TIP3    H261977   0.243   2.980  11.489 -1.0331  2.6156 -0.6334
13496TIP3   OH261978   5.292   4.710   6.657  0.0531 -0.6157 -0.3156
13496TIP3    H161979   5.276   4.644   6.725 -0.1521 -0.6133 -0.3617
13496TIP3    H261980   5.219   4.700   6.597  1.3627 -2.1655 -1.7688
13497TIP3   OH261981   6.211   2.379  13.774  0.0928 -0.2990 -0.5618
13497TIP3    H161982   6.198   2.378  13.679  1.8474  0.7341 -0.8711
13497TIP3    H261983   6.202   2.288  13.801 -4.2873 -0.2072 -1.0450
13498TIP3   OH261984   4.321   1.044  13.980 -0.2939 -0.0740 -0.0714
13498TIP3    H161985   4.310   1.125  14.031  0.0465 -0.2504  0.2894
13498TIP3    H261986   4.338   1.075  13.891  1.6239  0.3367  0.3757
13499TIP3   OH261987   5.102   1.356  11.420  0.3962  0.4165 -0.1337
13499TIP3    H161988   5.137   1.319  11.339 -1.0345  1.9088 -1.5045
13499TIP3    H261989   5.107   1.451  11.408 -1.1312  0.6737  0.9373
13500TIP3   OH261990   1.459   1.671   5.083  0.6271  0.2221 -0.2546
13500TIP3    H161991   1.451   1.765   5.066  0.1377  0.5343  1.4254
13500TIP3    H261992   1.370   1.638   5.075  0.5420  0.2074  0.5904
13501TIP3   OH261993   4.833   0.709  12.862 -0.0652  0.0998  0.2416
13501TIP3    H161994   4.784   0.673  12.936  0.7322  0.6245  1.0538
13501TIP3    H261995   4.773   0.772  12.822 -1.7301 -2.4428 -1.5993
13502TIP3   OH261996   3.341   5.626   4.898  0.0526  0.2245 -0.0038
13502TIP3    H161997   3.405   5.617   4.968 -0.0574 -0.3464  0.0282
13502TIP3    H261998   3.256   5.621   4.941 -0.0978 -2.7919 -0.3872
13503TIP3   OH261999   3.564   4.156   2.146  0.1607 -0.3963  0.1091
13503TIP3    H162000   3.577   4.148   2.240 -1.9318  1.7654  0.6999
13503TIP3    H262001   3.493   4.220   2.137  0.8772  0.1410 -2.9711
13504TIP3   OH262002   2.815   5.776   1.930 -0.3041  0.0556  0.0977
13504TIP3    H162003   2.767   5.731   1.998  0.7763 -1.6209 -0.2011
13504TIP3    H262004   2.900   5.732   1.926  0.3406  1.2994 -1.0855
13505TIP3   OH262005   2.279   5.390  16.578  0.1760  0.1775  0.2492
13505TIP3    H162006   2.273   5.467  16.522  0.1122  0.9004  1.2315
13505TIP3    H262007   2.195   5.346  16.567 -0.0856  0.6634  0.2762
13506TIP3   OH262008   0.989   2.004   0.741 -0.0843 -0.2702 -0.1961
13506TIP3    H162009   1.080   1.989   0.766 -0.2138 -1.0892 -0.1736
13506TIP3    H262010   0.967   2.089   0.779  0.1741 -0.8137  1.2551
13507TIP3   OH262011   3.758   5.132   0.232  0.0039 -0.1264 -0.6064
13507TIP3    H162012   3.771   5.226   0.220 -0.0153 -0.1654 -0.9383
13507TIP3    H262013   3.815   5.109   0.305 -0.2054  0.1963 -0.3331
13508TIP3   OH262014   5.905   3.697  12.819 -0.2676 -0.2586 -0.2440
13508TIP3    H162015   5.848   3.767  12.787 -2.6495 -2.6220 -1.5213
13508TIP3    H262016   5.980   3.697  12.760  0.1337  1.5789  0.2004
13509TIP3   OH262017   5.114   5.807  16.495  0.2035 -0.1731  0.2120
13509TIP3    H162018   5.190   5.770  16.451 -0.2546 -0.2856 -0.4977
13509TIP3    H262019   5.062   5.846  16.424 -0.4040 -0.1117  0.6875
13510TIP3   OH262020   1.992   0.799   6.182 -0.0346 -0.4568 -0.0151
13510TIP3    H162021   2.049   0.725   6.158 -0.2807 -0.4781 -0.5270
13510TIP3    H262022   2.052   0.873   6.192 -0.0985  0.0302 -2.5686
13511TIP3   OH262023   6.091   4.240   3.577  0.6628 -0.2117  0.5583
13511TIP3    H162024   6.039   4.313   3.610 -0.6506 -0.1889 -1.4186
13511TIP3    H262025   6.178   4.278   3.562  0.4151  0.5508  1.0045
13512TIP3   OH262026   5.344   1.942   1.241 -0.8452  0.6727  0.0517
13512TIP3    H162027   5.413   1.887   1.203  0.3049  1.3385  1.1200
13512TIP3    H262028   5.307   1.988   1.166 -0.5060 -0.1019 -0.6080
13513TIP3   OH262029   6.204   5.320   5.336  0.0913  0.5344  0.0473
13513TIP3    H162030   6.162   5.356   5.258 -1.0619  0.1947  0.4908
13513TIP3    H262031   6.292   5.359   5.336  0.6354 -0.5403 -2.1640
13514TIP3   OH262032   6.339   1.396  12.067 -0.4763 -0.1135 -0.1957
13514TIP3    H162033   6.387   1.457  12.010  1.0827  0.1125  1.3102
13514TIP3    H262034   6.267   1.449  12.102 -0.2198  0.3321 -0.3331
13515TIP3   OH262035   6.634   0.837  15.002 -0.0633 -0.6636 -0.3464
13515TIP3    H162036   6.620   0.901  15.072 -2.0715 -1.6357  0.2208
13515TIP3    H262037   6.705   0.874  14.949  0.1788  1.0406  1.0750
13516TIP3   OH262038   4.136   5.988  11.947 -0.3731  0.0915  0.0203
13516TIP3    H162039   4.061   5.949  11.902 -2.5701  2.4954  1.3216
13516TIP3    H262040   4.153   6.069  11.898  0.3015  0.3847  0.7205
13517TIP3   OH262041   0.310   5.684  15.549 -0.2872 -0.1588 -0.6143
13517TIP3    H162042   0.331   5.776  15.566  0.7695 -0.5353  0.1695
13517TIP3    H262043   0.390   5.637  15.568 -1.2862 -1.4445  0.5829
13518TIP3   OH262044   0.866   2.702  15.615  0.7022 -0.1217 -0.4544
13518TIP3    H162045   0.940   2.761  15.632  0.4812  0.2671 -0.8177
13518TIP3    H262046   0.823   2.694  15.701  0.1158  1.1132 -0.5984
13519TIP3   OH262047   3.030   4.317   1.964 -0.4005 -0.4744  0.3553
13519TIP3    H162048   3.064   4.248   1.907  1.4662 -0.5164  1.4708
13519TIP3    H262049   3.003   4.386   1.903  1.0778 -0.7162 -0.6380
13520TIP3   OH262050   4.049   2.675  13.258  0.1775 -0.0502  0.2616
13520TIP3    H162051   4.018   2.657  13.169  0.3169 -0.9753  0.3937
13520TIP3    H262052   4.064   2.770  13.260  0.4857 -0.0744 -0.7922
13521TIP3   OH262053   1.090   1.270   5.561 -0.7993  0.3448 -0.6641
13521TIP3    H162054   1.043   1.246   5.481 -0.7885  2.6766 -1.4391
13521TIP3    H262055   1.021   1.298   5.622 -0.9077 -2.2910  0.5906
13522TIP3   OH262056   1.746   1.885  12.922 -0.1848  0.0170 -0.2840
13522TIP3    H162057   1.728   1.818  12.857 -1.3287 -0.1316  0.1559
13522TIP3    H262058   1.817   1.849  12.975 -0.8200 -0.8816 -0.0199
13523TIP3   OH262059   5.638   2.143  16.340 -0.1026 -0.7139 -0.1775
13523TIP3    H162060   5.730   2.141  16.312 -0.2547 -1.0996 -0.6707
13523TIP3    H262061   5.594   2.194  16.273 -0.5454 -2.0081 -0.9114
13524TIP3   OH262062   4.126   0.970   3.925 -0.0102  0.0064 -0.5618
13524TIP3    H162063   4.121   1.034   3.996 -2.1819  1.9554 -2.3107
13524TIP3    H262064   4.218   0.972   3.897  0.9025 -0.8530  2.1284
13525TIP3   OH262065   2.476   2.935   3.985 -0.5321  0.3119 -0.1548
13525TIP3    H162066   2.385   2.925   4.014 -0.5161  0.4663 -0.0466
13525TIP3    H262067   2.503   2.847   3.960 -0.1431 -0.0591  1.4566
13526TIP3   OH262068   3.823   5.180  15.587  1.0837  0.1924  0.6565
13526TIP3    H162069   3.732   5.172  15.616  0.4041 -0.4520 -1.4174
13526TIP3    H262070   3.844   5.272  15.598 -0.2925  0.6164 -0.0130
13527TIP3   OH262071   6.037   2.480   4.011  0.3880 -0.0811 -0.9339
13527TIP3    H162072   6.034   2.556   3.953 -2.3833 -0.9160 -2.0552
13527TIP3    H262073   6.031   2.516   4.099 -0.5986  1.0457 -1.4325
13528TIP3   OH262074   6.227   4.204   0.956 -0.1237  0.3299 -0.1191
13528TIP3    H162075   6.176   4.138   1.004  2.3213 -2.5369 -1.1177
13528TIP3    H262076   6.278   4.249   1.025  2.5919 -3.0459  0.3618
13529TIP3   OH262077   5.731   2.416   2.590  0.2024  0.8736 -0.3710
13529TIP3    H162078   5.786   2.341   2.567  1.8625  1.5210  1.2457
13529TIP3    H262079   5.668   2.380   2.653  1.6579  0.9588  1.2199
13530TIP3   OH262080   2.579   2.132   1.719  0.1863  0.0764  0.3136
13530TIP3    H162081   2.636   2.187   1.665  1.2683 -1.1099  0.2076
13530TIP3    H262082   2.500   2.120   1.666  1.1656 -0.9463 -0.9675
13531TIP3   OH262083   4.989   2.594   3.312  0.0102 -0.4305 -0.4343
13531TIP3    H162084   4.898   2.569   3.333  1.2917 -3.9300  1.9776
13531TIP3    H262085   4.998   2.683   3.346 -2.1329 -0.5858  0.7474
13532TIP3   OH262086   1.208   0.081  12.220  0.4751 -0.4385  0.0739
13532TIP3    H162087   1.226  -0.013  12.229  0.6263 -0.6849 -2.1575
13532TIP3    H262088   1.142   0.099  12.286  2.2192 -1.5430  2.2670
13533TIP3   OH262089   3.303   5.975   5.901 -0.1570  0.6022  0.1917
13533TIP3    H162090   3.372   6.037   5.923  0.5926 -0.0932 -0.1617
13533TIP3    H262091   3.244   5.977   5.976  1.5691 -0.6355  1.6557
13534TIP3   OH262092   6.337   6.745   5.517 -0.0384 -0.0827 -0.0341
13534TIP3    H162093   6.358   6.818   5.576 -0.6633  0.1550 -0.1037
13534TIP3    H262094   6.246   6.724   5.536  0.2190 -1.0596  0.2049
13535TIP3   OH262095   6.499   3.026   4.011  0.5028 -0.0384 -0.3331
13535TIP3    H162096   6.530   3.001   4.098 -0.5814  0.1486  0.1147
13535TIP3    H262097   6.404   3.025   4.018  0.3566 -1.3746 -1.8935
13536TIP3   OH262098   3.256   4.624   3.132 -0.4713 -0.0459 -0.3294
13536TIP3    H162099   3.245   4.542   3.180 -0.7801  0.0966 -0.1520
13536TIP3    H262100   3.174   4.635   3.083 -0.5808  0.3418 -0.0656
13537TIP3   OH262101   4.419   2.923   3.874  0.3146 -0.2511 -0.2735
13537TIP3    H162102   4.359   2.996   3.864 -0.4094 -1.0734 -2.5724
13537TIP3    H262103   4.439   2.895   3.785  0.2284 -3.0874  0.4678
13538TIP3   OH262104   1.256   1.501  16.398 -0.1127  0.1287  0.1700
13538TIP3    H162105   1.327   1.525  16.340  0.9964 -0.4046  1.2722
13538TIP3    H262106   1.272   1.410  16.421 -1.1788 -0.0182  0.4100
13539TIP3   OH262107   0.354   1.743   2.004  0.3297  0.6729  0.2503
13539TIP3    H162108   0.394   1.669   1.958  0.2894  2.0191 -2.1182
13539TIP3    H262109   0.403   1.750   2.086  2.3982 -0.1268 -0.8377
13540TIP3   OH262110   5.843   5.975  12.850 -0.0224 -0.0345 -0.0672
13540TIP3    H162111   5.923   5.934  12.882 -0.0776  1.2763  1.9234
13540TIP3    H262112   5.839   6.059  12.895  0.0805  2.3061 -3.9472
13541TIP3   OH262113   6.699   3.899  11.778  0.4502 -0.4633  0.3399
13541TIP3    H162114   6.748   3.821  11.754 -0.9346 -0.9354 -1.1391
13541TIP3    H262115   6.680   3.942  11.694 -2.1114 -0.6344  0.7538
13542TIP3   OH262116   3.157   2.612   0.760 -0.4162 -0.0811  0.1822
13542TIP3    H162117   3.195   2.534   0.720 -0.5695 -0.0076 -0.1111
13542TIP3    H262118   3.080   2.581   0.806  0.8443 -0.4957  2.1399
13543TIP3   OH262119   5.715   5.057   4.240 -0.4656 -0.3334  0.3324
13543TIP3    H162120   5.748   5.038   4.327 -1.5894  0.2954  0.9191
13543TIP3    H262121   5.786   5.105   4.197  0.9875 -2.5568  0.0807
13544TIP3   OH262122   1.777   2.854   1.234  0.3575 -0.1540 -0.7161
13544TIP3    H162123   1.734   2.938   1.215  0.6156  0.1078 -0.1686
13544TIP3    H262124   1.772   2.846   1.329 -2.3181 -2.1884 -0.8884
13545TIP3   OH262125   2.483   1.354   5.537 -0.0712 -0.1666  0.0897
13545TIP3    H162126   2.531   1.424   5.579 -0.1723 -0.7780  1.2495
13545TIP3    H262127   2.393   1.363   5.570 -0.9996  1.3809 -2.5510
13546TIP3   OH262128   5.649   1.131   3.518  0.1644  0.2217 -0.5715
13546TIP3    H162129   5.659   1.074   3.594 -0.6913  0.7505 -0.0464
13546TIP3    H262130   5.678   1.077   3.444 -0.2459 -0.7554 -0.0419
13547TIP3   OH262131   6.349   3.798  16.233 -0.3799  0.1385  0.0441
13547TIP3    H162132   6.269   3.802  16.286  0.6690  0.8679  1.6312
13547TIP3    H262133   6.363   3.888  16.203 -0.4994 -0.1134 -0.8152
13548TIP3   OH262134   1.221   1.371  16.813 -0.6309  0.2784  0.0574
13548TIP3    H162135   1.144   1.316  16.796 -1.0834  0.5249  1.2721
13548TIP3    H262136   1.199   1.455  16.773  0.8963 -0.8623 -3.7167
13549TIP3   OH262137   0.011   4.232   0.008  0.0517  0.3970  0.4574
13549TIP3    H162138  -0.068   4.259   0.056 -0.7102  0.1751 -0.6261
13549TIP3    H262139   0.083   4.267   0.060 -0.7224  0.0210  1.8514
13550TIP3   OH262140   5.664   5.643   0.868  0.0383  0.4909 -0.6780
13550TIP3    H162141   5.644   5.710   0.803 -0.3867  0.4596 -0.5853
13550TIP3    H262142   5.608   5.569   0.844 -1.2699  1.0197  0.6126
13551TIP3   OH262143   4.101   1.311  16.376  0.2042  0.0347 -0.2057
13551TIP3    H162144   4.164   1.256  16.330  0.2394 -0.4425  0.4044
13551TIP3    H262145   4.115   1.292  16.469 -1.6055 -0.9230 -0.0991
13552TIP3   OH262146   1.451   3.886  17.196 -0.0697 -0.4374  0.4782
13552TIP3    H162147   1.444   3.885  17.100  0.4373 -1.6021  0.4354
13552TIP3    H262148   1.530   3.937  17.213  1.3944 -2.4591  0.1119
13553TIP3   OH262149   6.270   4.115  15.971  0.5152  0.2241 -0.2956
13553TIP3    H162150   6.341   4.053  15.955  1.6775  0.9632  1.6040
13553TIP3    H262151   6.298   4.196  15.930  0.0750  0.1249 -0.7984
13554TIP3   OH262152   5.590   2.482  16.293 -0.1679  0.1575  0.2053
13554TIP3    H162153   5.569   2.505  16.203 -1.4736 -0.9539  0.1893
13554TIP3    H262154   5.685   2.493  16.300  0.2730 -1.6872 -1.9151
13555TIP3   OH262155   4.100   1.156   5.757 -0.2328  0.5694  0.0927
13555TIP3    H162156   4.170   1.103   5.717 -1.7254 -1.6533  0.2789
13555TIP3    H262157   4.022   1.134   5.707 -1.1713  1.5731  1.0711
13556TIP3   OH262158   3.166   4.865   2.078 -0.1455 -0.1796 -0.0220
13556TIP3    H162159   3.190   4.817   2.157 -0.0778  0.1686  0.1708
13556TIP3    H262160   3.191   4.808   2.006  0.9483  0.0276  0.1795
13557TIP3   OH262161   3.146   0.866  12.742 -0.8844  0.7014 -0.0447
13557TIP3    H162162   3.079   0.805  12.775 -0.3333 -0.6157 -1.2273
13557TIP3    H262163   3.121   0.880  12.650  0.8111 -0.3876 -0.7169
13558TIP3   OH262164   5.645   5.500  14.778 -0.3685 -0.0002 -0.1883
13558TIP3    H162165   5.617   5.473  14.866  0.4998  0.0610  0.1196
13558TIP3    H262166   5.709   5.570  14.794 -0.3186  0.1164 -0.8765
13559TIP3   OH262167   0.849   4.715  13.912 -0.0614 -0.4871  0.0825
13559TIP3    H162168   0.906   4.771  13.964 -0.1630  0.5023 -0.8595
13559TIP3    H262169   0.762   4.729  13.949 -0.2113  0.5941 -0.6475
13560TIP3   OH262170   5.125   4.181  11.461 -0.4157 -0.0420  0.1691
13560TIP3    H162171   5.048   4.143  11.419  0.6544 -1.7831 -0.3112
13560TIP3    H262172   5.194   4.172  11.395  0.2080  1.5954  0.5468
13561TIP3   OH262173   0.191   2.789   5.176 -0.1669  0.3425  0.2089
13561TIP3    H162174   0.284   2.774   5.194 -0.1443 -0.4197 -0.4691
13561TIP3    H262175   0.159   2.704   5.145 -0.8042  0.9061 -0.7238
13562TIP3   OH262176   6.012   3.586   5.310  0.1159  0.2338  0.3557
13562TIP3    H162177   6.013   3.657   5.374 -0.1030  0.5831 -0.0323
13562TIP3    H262178   5.921   3.579   5.282  0.2568  0.2500 -0.1081
13563TIP3   OH262179   1.136   6.721  16.773 -0.0543  0.3619  0.0502
13563TIP3    H162180   1.148   6.644  16.717  0.2498  1.0530 -0.8516
13563TIP3    H262181   1.121   6.793  16.712 -2.6982  0.6479  0.9186
13564TIP3   OH262182   0.649   0.890   3.694  0.0520  0.0611  0.5020
13564TIP3    H162183   0.557   0.870   3.712 -0.1928  0.2448 -0.4738
13564TIP3    H262184   0.655   0.888   3.598  0.6762  1.6811  0.4841
13565TIP3   OH262185   5.527   1.115  12.413 -0.0893 -0.5771  0.2945
13565TIP3    H162186   5.433   1.132  12.418 -0.4498 -2.2373 -0.2830
13565TIP3    H262187   5.534   1.022  12.391  1.6315 -0.0526 -1.7952
13566TIP3   OH262188   2.483   6.166   3.744  0.3536  0.4020 -0.0846
13566TIP3    H162189   2.442   6.179   3.829  1.3591  0.7767  0.3528
13566TIP3    H262190   2.558   6.226   3.743  0.8253 -0.1708 -0.9131
13567TIP3   OH262191   4.427   1.031   2.748  0.2516 -0.3867  0.3014
13567TIP3    H162192   4.463   0.976   2.678  1.4357 -0.1625  0.7148
13567TIP3    H262193   4.337   0.999   2.759  0.2720 -0.8951 -0.8328
13568TIP3   OH262194   5.263   3.676  15.838  0.4319  0.6735 -0.1589
13568TIP3    H162195   5.279   3.721  15.754  1.5224  1.0691  0.2350
13568TIP3    H262196   5.325   3.603  15.837 -2.4487 -1.9730 -1.5329
13569TIP3   OH262197   3.335   0.535  11.559 -0.0814  0.6700 -0.3263
13569TIP3    H162198   3.283   0.458  11.536 -0.5523  1.3952 -1.8416
13569TIP3    H262199   3.395   0.547  11.485  1.7626  0.3123  1.0207
13570TIP3   OH262200   1.543   2.915  12.351 -0.3212 -0.5491 -0.3421
13570TIP3    H162201   1.542   2.994  12.297  1.3997 -1.6971 -2.2225
13570TIP3    H262202   1.564   2.946  12.439  1.0320  1.0408 -1.1715
13571TIP3   OH262203   3.487   4.907  15.341 -0.2458 -0.0558  0.1948
13571TIP3    H162204   3.581   4.921  15.336  0.1336 -1.7492  1.5806
13571TIP3    H262205   3.449   4.993  15.321  1.4559  0.1165 -2.7233
13572TIP3   OH262206   3.705   5.843   0.095 -0.5583  0.0445  0.0163
13572TIP3    H162207   3.618   5.872   0.069 -0.4771  0.8468  0.5907
13572TIP3    H262208   3.710   5.864   0.189  1.8179  4.2568 -0.8069
13573TIP3   OH262209   6.625   3.421  13.318 -0.0326  0.0207 -0.1461
13573TIP3    H162210   6.620   3.516  13.301  1.6268  0.0287 -0.8280
13573TIP3    H262211   6.552   3.403  13.377 -0.8292  1.5953 -0.5901
13574TIP3   OH262212   3.060   4.627   5.716 -0.2714  0.6399 -0.4248
13574TIP3    H162213   3.149   4.607   5.745  0.4536  1.4731 -1.9464
13574TIP3    H262214   3.051   4.582   5.632 -1.0900  1.0367 -0.5624
13575TIP3   OH262215   2.118   2.124   4.981 -0.2177 -0.1122  0.0108
13575TIP3    H162216   2.053   2.139   4.913  0.3311 -0.7062 -0.6565
13575TIP3    H262217   2.135   2.211   5.018  0.1337  0.3624 -1.2194
13576TIP3   OH262218   0.294   6.452  13.656 -0.1084  0.6118 -0.1562
13576TIP3    H162219   0.254   6.465  13.743 -0.9565 -0.5761 -0.3429
13576TIP3    H262220   0.351   6.377  13.667  0.6291  1.1312 -0.3734
13577TIP3   OH262221   1.500   1.803   0.906 -0.3523 -0.0694 -0.5667
13577TIP3    H162222   1.461   1.720   0.931 -2.0627  1.5560  2.8208
13577TIP3    H262223   1.427   1.865   0.905  0.9892  1.6104 -2.1778
13578TIP3   OH262224   2.846   0.743   4.413 -0.6508 -0.1185  0.1119
13578TIP3    H162225   2.838   0.715   4.504 -1.1252 -0.0274  0.1009
13578TIP3    H262226   2.791   0.682   4.364 -1.0447  0.3248 -0.0103
13579TIP3   OH262227   4.764   5.087  17.067  0.0730  0.0103 -0.1695
13579TIP3    H162228   4.669   5.082  17.060  0.0300 -1.1437  0.7781
13579TIP3    H262229   4.780   5.153  17.134 -0.2214 -1.8999  1.8947
13580TIP3   OH262230   1.727   1.608   0.838  0.1777 -0.0088  0.1410
13580TIP3    H162231   1.737   1.678   0.773  1.3300  1.9178  2.2536
13580TIP3    H262232   1.682   1.650   0.911  0.4871 -1.6123  1.2853
13581TIP3   OH262233   2.243   2.064  12.695  0.1236 -0.1882 -0.5050
13581TIP3    H162234   2.192   2.048  12.616 -0.5828 -0.6347  0.0250
13581TIP3    H262235   2.182   2.107  12.755  0.3048 -0.8794  0.2035
13582TIP3   OH262236   4.656   5.155   2.106 -0.1178 -0.2509 -0.9482
13582TIP3    H162237   4.670   5.174   2.014  0.3577  0.2207 -0.7831
13582TIP3    H262238   4.662   5.240   2.150  0.6939 -0.5973 -0.3657
13583TIP3   OH262239   2.343   6.782   0.100 -0.1820 -0.5216 -0.0865
13583TIP3    H162240   2.407   6.723   0.139  0.3759  1.3458  2.0298
13583TIP3    H262241   2.379   6.869   0.112 -2.3959  0.4941 -0.2569
13584TIP3   OH262242   0.216   6.601  16.628  0.2142 -0.2551  0.4319
13584TIP3    H162243   0.197   6.526  16.572  0.5653 -2.2961  2.8229
13584TIP3    H262244   0.135   6.614  16.678  0.4911  0.3129  0.7372
13585TIP3   OH262245   5.081   4.859   1.047 -0.4361 -0.0683  0.0759
13585TIP3    H162246   5.041   4.934   1.004  0.2531 -0.7583 -1.8917
13585TIP3    H262247   5.113   4.893   1.130 -0.2280  1.8156 -0.7216
13586TIP3   OH262248   0.847   0.981   1.540  0.6603 -0.0386  0.0443
13586TIP3    H162249   0.799   1.062   1.522 -1.1511 -0.8625  0.9359
13586TIP3    H262250   0.829   0.962   1.632 -2.0494 -3.2828 -0.9239
13587TIP3   OH262251   2.387   1.513   1.407 -0.1145 -0.1532 -0.0396
13587TIP3    H162252   2.447   1.487   1.477  0.3039  0.0260 -0.3247
13587TIP3    H262253   2.305   1.468   1.427  0.2951 -0.8892  0.0269
13588TIP3   OH262254   5.423   6.436   5.742 -0.2231 -0.1863  0.4255
13588TIP3    H162255   5.446   6.365   5.803  1.7742 -1.4023 -1.5819
13588TIP3    H262256   5.342   6.406   5.701 -1.9667  0.9536  2.8024
13589TIP3   OH262257   1.757   4.690  16.476  0.1488  0.0668  0.1579
13589TIP3    H162258   1.731   4.603  16.447 -0.9241  0.4436 -0.0859
13589TIP3    H262259   1.674   4.733  16.499  0.8623  0.0048  3.2522
13590TIP3   OH262260   0.832   1.225  14.030  0.1503  0.0620 -0.8536
13590TIP3    H162261   0.814   1.308  14.075 -1.7327 -0.9602  0.4334
13590TIP3    H262262   0.796   1.236  13.942  0.6625  0.8805 -0.9635
13591TIP3   OH262263   2.547   4.866   0.179 -0.6628  0.8369  0.2506
13591TIP3    H162264   2.486   4.833   0.113  0.7436  1.5733 -1.5394
13591TIP3    H262265   2.632   4.867   0.134  0.8575 -0.8272  2.8414
13592TIP3   OH262266   6.365   6.616  11.644 -0.0832 -0.0516  0.2130
13592TIP3    H162267   6.442   6.565  11.618 -0.3528 -0.9439  1.1536
13592TIP3    H262268   6.342   6.583  11.730 -0.0371  1.9222  1.0341
13593TIP3   OH262269   6.071   4.888   5.093  0.2430  0.3508 -0.6096
13593TIP3    H162270   6.078   4.863   5.001 -0.5038  0.0307 -0.5853
13593TIP3    H262271   6.152   4.937   5.110  1.2968 -1.1828 -0.9190
13594TIP3   OH262272   3.526   0.853   3.234  0.1051 -0.0017  0.0117
13594TIP3    H162273   3.455   0.917   3.240  1.4224  1.5381 -0.2230
13594TIP3    H262274   3.599   0.893   3.281  1.0437 -1.2295 -0.3582
13595TIP3   OH262275   4.842   6.064   2.334  0.4141  0.5615  0.4134
13595TIP3    H162276   4.839   6.003   2.260  1.5784  2.3518 -1.2044
13595TIP3    H262277   4.771   6.125   2.318  1.8200  2.0814 -0.3355
13596TIP3   OH262278   5.044   1.780  16.242 -0.1933  0.3607  0.2920
13596TIP3    H162279   5.101   1.775  16.319 -1.1220  1.8315  1.1045
13596TIP3    H262280   5.102   1.756  16.169  1.6839  2.3536  1.0056
13597TIP3   OH262281   4.309   3.646   5.369 -0.6427 -0.1348 -0.1209
13597TIP3    H162282   4.215   3.631   5.357 -0.7438  0.7960 -0.6205
13597TIP3    H262283   4.343   3.562   5.397 -2.1679  0.2301  3.3949
13598TIP3   OH262284   2.358   2.708  14.088  0.6910 -0.6704 -0.4342
13598TIP3    H162285   2.355   2.802  14.069  0.9755 -0.2896  1.2167
13598TIP3    H262286   2.273   2.675  14.060  0.5152  0.1097 -0.8522
13599TIP3   OH262287   1.823   3.500  12.068  0.0943 -0.0662 -0.0801
13599TIP3    H162288   1.781   3.583  12.045  2.0238  0.9085 -0.2725
13599TIP3    H262289   1.901   3.526  12.118  0.6920 -1.7661 -0.0804
13600TIP3   OH262290   4.599   0.737  13.705 -0.0132 -0.2885 -0.2167
13600TIP3    H162291   4.536   0.665  13.712  1.6842 -1.6814  2.9658
13600TIP3    H262292   4.680   0.696  13.674  0.5602  0.5508  0.1187
13601TIP3   OH262293   5.480   4.990  16.667 -0.5697  1.1427  0.0595
13601TIP3    H162294   5.451   5.079  16.688 -0.4627  1.2136 -0.0873
13601TIP3    H262295   5.403   4.948  16.629 -0.2134  1.6488 -1.2733
13602TIP3   OH262296   2.995   0.840   1.580  0.1877  0.4220  0.4120
13602TIP3    H162297   3.024   0.889   1.656  0.3385  0.2837  0.4423
13602TIP3    H262298   3.014   0.749   1.601 -0.4295  0.3061  0.5134
13603TIP3   OH262299   3.623   4.507  15.676  0.1217 -0.2826 -0.3706
13603TIP3    H162300   3.682   4.560  15.624  0.3571 -0.4161 -0.2380
13603TIP3    H262301   3.676   4.477  15.750  0.2748 -1.5430 -0.9737
13604TIP3   OH262302   2.388   2.494   1.555 -0.1195 -0.4268 -0.3812
13604TIP3    H162303   2.377   2.449   1.472  0.6316 -0.4060 -0.4960
13604TIP3    H262304   2.453   2.562   1.538  0.3108 -0.6550  0.3089
13605TIP3   OH262305   0.254   1.970   2.214 -0.2137  0.2572  0.1547
13605TIP3    H162306   0.319   1.905   2.189  0.6558  1.4576 -0.8474
13605TIP3    H262307   0.253   1.967   2.310  0.9448 -0.1727  0.1745
13606TIP3   OH262308   6.441   0.253  12.887 -0.2075 -0.3527  0.0883
13606TIP3    H162309   6.349   0.253  12.912 -0.1008  1.4860  0.6210
13606TIP3    H262310   6.489   0.255  12.970  0.2233  1.5398 -0.1629
13607TIP3   OH262311   5.747   4.038  14.182 -0.0160 -0.1750  0.1484
13607TIP3    H162312   5.698   4.067  14.259 -1.7124 -1.7360 -0.2660
13607TIP3    H262313   5.691   4.059  14.108  1.3750  0.8399 -0.6826
13608TIP3   OH262314   1.053   3.632  11.457 -0.5687  0.2603 -0.3715
13608TIP3    H162315   0.972   3.613  11.504 -0.0240  0.0187  0.4998
13608TIP3    H262316   1.074   3.722  11.481 -0.1621  0.0577  0.0674
13609TIP3   OH262317   5.101   2.908   2.387 -0.3387  0.1579  0.0146
13609TIP3    H162318   5.075   2.823   2.421  1.6962  0.2804  2.1200
13609TIP3    H262319   5.051   2.971   2.438 -1.3030  0.2776 -1.0412
13610TIP3   OH262320   4.729   1.771   1.894  0.5958 -0.3143  0.1234
13610TIP3    H162321   4.702   1.684   1.923  0.8551  0.4001  2.7399
13610TIP3    H262322   4.674   1.832   1.944  0.8498  1.0542 -1.1808
13611TIP3   OH262323   1.615   6.541  11.419 -0.0688 -0.2163  0.5169
13611TIP3    H162324   1.689   6.600  11.406 -0.4020 -0.3202 -2.7342
13611TIP3    H262325   1.538   6.597  11.407 -0.4527 -0.7065  0.6853
13612TIP3   OH262326   2.272   2.107  14.860  0.4830 -0.2287 -0.1739
13612TIP3    H162327   2.290   2.014  14.849  2.8947  0.1936 -0.3520
13612TIP3    H262328   2.288   2.145  14.774 -0.7346  0.3414 -0.1672
13613TIP3   OH262329   2.197   0.501  13.645  0.1461  0.0898  0.4304
13613TIP3    H162330   2.113   0.523  13.603  1.4047  1.6636 -1.4108
13613TIP3    H262331   2.195   0.546  13.729 -0.7070  0.4137  0.2451
13614TIP3   OH262332   6.244   5.693  16.159 -0.4555  0.1989 -0.1696
13614TIP3    H162333   6.330   5.696  16.117  0.6031 -1.0948  1.7179
13614TIP3    H262334   6.187   5.649  16.095  0.2653  1.0258 -1.4218
13615TIP3   OH262335   6.518   6.574   4.055  0.3383 -0.1323  0.1718
13615TIP3    H162336   6.565   6.497   4.024 -1.1891 -0.7735 -0.6735
13615TIP3    H262337   6.494   6.553   4.145  0.7396 -0.2502  0.2497
13616TIP3   OH262338   4.027   6.307  16.380 -0.2433 -0.1604 -0.0191
13616TIP3    H162339   4.062   6.380  16.330  1.4284 -0.9074 -0.0107
13616TIP3    H262340   3.969   6.262  16.318  1.3186 -0.7199 -1.1555
13617TIP3   OH262341   0.436   1.537  12.217 -0.2918 -0.4087  0.1858
13617TIP3    H162342   0.388   1.459  12.187 -1.5186  0.5228 -0.3781
13617TIP3    H262343   0.471   1.576  12.137  0.0770 -0.2365  0.4327
13618TIP3   OH262344   3.506   6.182   0.440 -0.3295 -0.2212 -0.0260
13618TIP3    H162345   3.590   6.228   0.433  0.8817 -2.5325 -2.3266
13618TIP3    H262346   3.462   6.199   0.357 -0.5670 -1.8417 -0.2522
13619TIP3   OH262347   2.075   0.749   2.814 -0.3757  0.1300 -0.1834
13619TIP3    H162348   2.043   0.772   2.901  2.2749 -0.3311  1.0110
13619TIP3    H262349   2.074   0.832   2.765 -0.8092  0.6235  0.6463
13620TIP3   OH262350   0.509   2.055  13.625  0.1263 -0.1054  0.6844
13620TIP3    H162351   0.429   2.082  13.581  0.7108  1.3084  0.4477
13620TIP3    H262352   0.567   2.026  13.554  0.9658  1.9085  0.4933
13621TIP3   OH262353   2.644   0.395  14.097 -0.1958  0.3955  0.7314
13621TIP3    H162354   2.712   0.367  14.158  0.0489  0.5969  0.5523
13621TIP3    H262355   2.675   0.365  14.012  0.5395  2.0159  0.3936
13622TIP3   OH262356   1.977   5.459  16.819  0.0110 -0.0992  0.2157
13622TIP3    H162357   1.989   5.389  16.755  1.5023 -0.3807  0.7668
13622TIP3    H262358   1.887   5.448  16.849  0.1010 -1.5729  0.0340
13623TIP3   OH262359   3.370   0.110   4.339 -0.2287  0.1344  0.1502
13623TIP3    H162360   3.454   0.104   4.384  0.6154 -2.5684 -1.5325
13623TIP3    H262361   3.374   0.192   4.291  2.0873 -0.5387 -0.9525
13624TIP3   OH262362   4.546   5.584   3.326  0.0912 -0.4791 -0.3211
13624TIP3    H162363   4.465   5.540   3.352 -0.7741 -0.1858 -2.3022
13624TIP3    H262364   4.570   5.543   3.243  2.9210 -1.6775  0.9462
13625TIP3   OH262365   4.898   5.586   4.619 -0.3209 -0.1069 -0.0754
13625TIP3    H162366   4.848   5.624   4.546  0.1164 -0.1824 -0.4176
13625TIP3    H262367   4.856   5.503   4.637 -0.7201  0.1233  0.0701
13626TIP3   OH262368   6.356   3.186   2.791  0.4677 -0.4060 -1.0614
13626TIP3    H162369   6.327   3.275   2.770  1.7173 -0.0712 -1.4399
13626TIP3    H262370   6.321   3.170   2.879 -0.1323  0.2844 -1.1580
13627TIP3   OH262371   3.824   2.316   4.047 -0.3392 -0.4159  0.5490
13627TIP3    H162372   3.738   2.352   4.026 -0.6880 -1.0705  0.8157
13627TIP3    H262373   3.807   2.255   4.119  0.9190  2.3576  3.4324
13628TIP3   OH262374   1.185   0.845  15.312 -0.4884 -0.4395  0.5728
13628TIP3    H162375   1.149   0.771  15.263 -0.9369  0.9792 -1.3877
13628TIP3    H262376   1.158   0.829  15.402 -1.5711 -2.0759  0.0166
13629TIP3   OH262377   3.123   1.252   3.582  0.0729 -0.2266 -0.4330
13629TIP3    H162378   3.081   1.198   3.650  0.5347 -0.9806 -0.7345
13629TIP3    H262379   3.203   1.285   3.624 -0.6192  0.9255  0.0260
13630TIP3   OH262380   3.726   6.221   3.931  0.1531 -0.1509 -0.0293
13630TIP3    H162381   3.699   6.130   3.928 -0.2549 -0.0129 -1.7419
13630TIP3    H262382   3.653   6.269   3.892  1.1331  0.6967 -0.8734
13631TIP3   OH262383   0.916   1.964   4.118 -0.0476  0.1369  0.1441
13631TIP3    H162384   0.936   2.025   4.189 -0.6424 -0.2464  0.6521
13631TIP3    H262385   0.984   1.980   4.052  0.5025  0.5050  0.7914
13632TIP3   OH262386   4.164   1.231   3.020  0.3903  0.0336  0.2621
13632TIP3    H162387   4.253   1.259   3.040  0.8082  0.0632 -1.4726
13632TIP3    H262388   4.138   1.178   3.095  2.1621 -0.6117  0.4687
13633TIP3   OH262389   0.815   3.168   2.120  0.6305  0.6141  0.9034
13633TIP3    H162390   0.774   3.200   2.039  0.3454  0.4995  1.0004
13633TIP3    H262391   0.741   3.137   2.173  0.7926  0.9908  1.3446
13634TIP3   OH262392   5.784   4.440   2.183 -0.6516  0.5531  0.6728
13634TIP3    H162393   5.844   4.495   2.134  0.7831 -1.0158  0.5469
13634TIP3    H262394   5.751   4.377   2.119 -0.2968 -0.2705  1.2662
13635TIP3   OH262395   2.458   3.935   6.482  0.1582 -0.3932 -0.2398
13635TIP3    H162396   2.375   3.959   6.525  1.1788  0.9217  1.1545
13635TIP3    H262397   2.496   4.019   6.457  1.4733 -0.9054 -0.0305
13636TIP3   OH262398   5.771   0.217  16.259 -0.4205  0.0516  0.3325
13636TIP3    H162399   5.832   0.148  16.232 -2.2982 -1.1962 -0.9587
13636TIP3    H262400   5.806   0.296  16.218  1.9722  0.0431  2.1347
13637TIP3   OH262401   0.757   3.600  17.120 -0.3351 -0.0908  0.1500
13637TIP3    H162402   0.733   3.667  17.056 -1.0789 -0.7586 -0.2879
13637TIP3    H262403   0.674   3.568  17.154 -0.1069 -2.0510 -0.9695
13638TIP3   OH262404   6.616   2.756  13.923 -0.4493  0.1142 -0.0479
13638TIP3    H162405   6.710   2.753  13.939 -0.1715  1.0646 -1.3278
13638TIP3    H262406   6.589   2.665  13.917  0.4124 -0.1616  0.2119
13639TIP3   OH262407   5.830   3.955  13.868  0.3534 -0.0126 -0.3558
13639TIP3    H162408   5.879   3.966  13.950 -0.1372  0.2173 -0.0904
13639TIP3    H262409   5.742   3.931  13.896  0.4085 -0.8309 -0.8413
13640TIP3   OH262410   5.080   0.017   0.497  1.0520 -0.4400  0.3283
13640TIP3    H162411   5.048  -0.070   0.521 -1.1169  0.0435 -0.5289
13640TIP3    H262412   5.158   0.001   0.445 -0.5227 -2.0582 -1.7119
13641TIP3   OH262413   5.505   4.493  17.186 -0.1194  0.1662 -0.6250
13641TIP3    H162414   5.546   4.501  17.100  2.5689 -0.3117  0.5136
13641TIP3    H262415   5.468   4.405  17.187 -2.2860  0.9552 -2.0326
13642TIP3   OH262416   1.869   5.236  10.951  0.1062  0.0301  0.0616
13642TIP3    H162417   1.936   5.248  11.018  1.2311 -0.1994 -0.9875
13642TIP3    H262418   1.902   5.165  10.897 -0.9587 -0.0342 -0.5313
13643TIP3   OH262419   3.722   2.700   4.186  0.0074  0.1257  0.8045
13643TIP3    H162420   3.649   2.736   4.236  0.1874  2.0493 -0.2369
13643TIP3    H262421   3.699   2.608   4.173 -2.2530  0.6898  0.4359
13644TIP3   OH262422   3.538   4.422  13.640  0.0120  0.2126  0.2539
13644TIP3    H162423   3.591   4.408  13.561 -2.0479  0.6665 -1.3154
13644TIP3    H262424   3.499   4.336  13.657 -0.4367  0.3834  0.0852
13645TIP3   OH262425   2.983   0.316  11.695 -0.2932 -0.7264  0.4873
13645TIP3    H162426   3.005   0.287  11.606 -1.3835  0.3674 -0.1870
13645TIP3    H262427   3.066   0.317  11.742  1.1429  2.5834 -1.7229
13646TIP3   OH262428   6.621   4.363  13.573  0.5068 -0.5295 -0.1371
13646TIP3    H162429   6.623   4.440  13.631  0.5710 -1.3738  1.0288
13646TIP3    H262430   6.538   4.371  13.526  0.5379  0.2771 -0.0763
13647TIP3   OH262431   5.107   6.447  13.661  0.0306 -0.0355 -0.0723
13647TIP3    H162432   5.164   6.401  13.599 -0.0216 -0.6379  0.3227
13647TIP3    H262433   5.038   6.484  13.606 -0.5645 -1.3888 -0.2788
13648TIP3   OH262434   5.860   4.948   2.556  0.6539 -0.3611  0.1291
13648TIP3    H162435   5.908   4.899   2.622 -0.1313 -1.1064  0.1709
13648TIP3    H262436   5.790   4.992   2.604 -0.2887 -1.3946 -0.2720
13649TIP3   OH262437   4.613   2.282  16.537 -0.1770 -0.3285 -0.6094
13649TIP3    H162438   4.628   2.288  16.632 -0.4463  1.1474 -0.6281
13649TIP3    H262439   4.698   2.302  16.498  0.0382 -1.3607 -0.6938
13650TIP3   OH262440   5.866   0.368  15.613  0.0003 -0.1453 -0.2379
13650TIP3    H162441   5.797   0.305  15.630  0.5848 -1.2102 -1.5614
13650TIP3    H262442   5.849   0.400  15.524 -0.9822  2.5498  0.8039
13651TIP3   OH262443   4.495   2.133  14.405 -0.1414  0.5170 -0.3159
13651TIP3    H162444   4.417   2.114  14.456 -0.4056 -0.8659 -1.1796
13651TIP3    H262445   4.465   2.193  14.336 -1.2230 -2.3299 -2.4994
13652TIP3   OH262446   5.033   3.505   0.562 -0.5586  0.6848  0.0991
13652TIP3    H162447   4.977   3.429   0.574  1.8223 -0.6804  5.0302
13652TIP3    H262448   5.095   3.479   0.493  1.2440 -2.8535  2.7287
13653TIP3   OH262449   1.885   1.850   2.463  0.5114 -0.1575  0.2766
13653TIP3    H162450   1.916   1.779   2.520 -0.8302  0.7495  2.2581
13653TIP3    H262451   1.791   1.834   2.454  0.2231  1.2389  0.6039
13654TIP3   OH262452   1.634   4.919   2.918  0.2921  0.4565  0.4888
13654TIP3    H162453   1.666   5.006   2.894 -1.7480  1.2333  0.3518
13654TIP3    H262454   1.595   4.932   3.004 -0.1612 -0.2801  0.3955
13655TIP3   OH262455   2.716   2.175  16.352  0.7629  0.1018  0.1120
13655TIP3    H162456   2.624   2.150  16.356  0.3377  1.4592 -0.6164
13655TIP3    H262457   2.738   2.197  16.443  0.8188 -1.6510  0.5555
13656TIP3   OH262458   1.025   0.934   3.674 -0.2344  0.1874  0.3218
13656TIP3    H162459   1.010   0.850   3.631  1.1563 -0.1337  0.4460
13656TIP3    H262460   1.078   0.914   3.750 -0.2384  1.1288  0.5902
13657TIP3   OH262461   3.929   1.434  10.507  0.0948  0.2849 -0.0002
13657TIP3    H162462   3.905   1.498  10.574  0.1485  0.9230 -0.5764
13657TIP3    H262463   3.931   1.351  10.553  0.7806  0.7972  0.9344
13658TIP3   OH262464   2.682   1.177  13.606 -0.1252  0.2025  0.2414
13658TIP3    H162465   2.606   1.158  13.660  0.7620  0.1232  1.4960
13658TIP3    H262466   2.757   1.157  13.662  0.8222 -0.0919 -1.0939
13659TIP3   OH262467   3.698   5.214   1.038  0.2607  0.5436  0.2932
13659TIP3    H162468   3.690   5.255   0.951  1.7282 -0.7872 -0.5236
13659TIP3    H262469   3.774   5.256   1.078 -0.3272  1.0510  0.9087
13660TIP3   OH262470   1.108   0.958   4.617 -0.7235 -0.5218 -0.3356
13660TIP3    H162471   1.151   0.886   4.663  3.7087  1.1413 -1.4025
13660TIP3    H262472   1.116   1.032   4.677 -0.9386  0.1544 -1.1325
13661TIP3   OH262473   4.291   6.608   1.212  0.2433 -0.1673 -0.4035
13661TIP3    H162474   4.303   6.517   1.187  1.0922  0.2514 -1.5949
13661TIP3    H262475   4.364   6.654   1.172 -1.7565  1.4945 -2.3648
13662TIP3   OH262476   3.772   5.585  11.029  0.7397 -0.6912 -0.1610
13662TIP3    H162477   3.739   5.581  10.939 -0.2288  1.1440  0.0654
13662TIP3    H262478   3.808   5.673  11.037 -0.5619 -0.2654  1.6583
13663TIP3   OH262479   1.617   0.235   0.368  0.2412 -0.1899 -0.2472
13663TIP3    H162480   1.679   0.225   0.440  1.1899  0.6844 -0.9188
13663TIP3    H262481   1.620   0.328   0.346 -0.4481 -0.3474 -1.0479
13664TIP3   OH262482   4.463   6.537  11.717  0.3463 -0.4785 -0.6080
13664TIP3    H162483   4.544   6.567  11.760  0.2840  0.1912 -0.9527
13664TIP3    H262484   4.484   6.450  11.685 -0.0147 -1.6082  1.9642
13665TIP3   OH262485   5.324   5.843   4.893 -0.7051  0.5591 -0.2744
13665TIP3    H162486   5.264   5.903   4.849 -0.6046  1.4253  0.7489
13665TIP3    H262487   5.350   5.888   4.973  2.3558  0.8182 -1.2711
13666TIP3   OH262488   5.219   5.505   2.144  0.3017  0.5302 -0.2111
13666TIP3    H162489   5.252   5.524   2.056 -0.8108 -1.7841 -1.1896
13666TIP3    H262490   5.253   5.418   2.165 -0.4454  0.5381  1.1507
13667TIP3   OH262491   6.286   6.319  16.202 -0.5120 -0.2441 -0.4613
13667TIP3    H162492   6.286   6.307  16.107  0.5177 -0.1636 -0.4797
13667TIP3    H262493   6.373   6.291  16.230 -1.3306 -1.8517  0.6756
13668TIP3   OH262494   2.038   5.010  15.004 -0.0075  1.1914 -0.2213
13668TIP3    H162495   2.094   5.028  15.080 -1.6905  0.7414  1.1644
13668TIP3    H262496   2.055   5.084  14.945  2.7008  0.6217 -0.2808
13669TIP3   OH262497   2.237   1.262  13.329  0.7246  0.8045  0.1896
13669TIP3    H162498   2.315   1.255  13.273  1.0905 -0.6152  0.8367
13669TIP3    H262499   2.170   1.211  13.284  1.1593 -0.7464  1.2315
13670TIP3   OH262500   5.586   3.943  13.011  0.0969  0.8201  0.4284
13670TIP3    H162501   5.527   3.928  13.085  2.1768  2.5899  2.5882
13670TIP3    H262502   5.539   4.006  12.957 -0.6951  0.9372  1.2147
13671TIP3   OH262503   6.603   0.374   5.708  0.5657  0.1232  0.2918
13671TIP3    H162504   6.609   0.377   5.612  2.2904  1.0543  0.3804
13671TIP3    H262505   6.693   0.358   5.737 -0.0044 -0.6701  1.7672
13672TIP3   OH262506   2.940   5.420   5.060 -0.1468  0.4502 -0.1066
13672TIP3    H162507   2.924   5.441   4.968  3.7364 -0.1689 -1.0710
13672TIP3    H262508   2.959   5.327   5.061  0.1540  0.5022  1.3004
13673TIP3   OH262509   2.396   2.948   2.309  0.0056  0.5002  0.8679
13673TIP3    H162510   2.310   2.988   2.299 -0.6242 -0.4794  2.1441
13673TIP3    H262511   2.417   2.915   2.221 -0.1445  2.1692  0.1547
13674TIP3   OH262512   1.585   0.214  15.141  0.5237 -0.9715 -0.2524
13674TIP3    H162513   1.593   0.167  15.059 -0.4089 -0.7043 -0.5076
13674TIP3    H262514   1.663   0.190  15.191  0.7790 -1.6242 -0.9608
13675TIP3   OH262515   4.756   4.602   2.741  0.7139  0.2990 -0.3610
13675TIP3    H162516   4.669   4.642   2.742 -0.0707 -1.3371 -0.0214
13675TIP3    H262517   4.739   4.508   2.742  2.4992 -0.0521  0.1496
13676TIP3   OH262518   4.622   4.943  13.586 -0.2512  0.0088 -0.5988
13676TIP3    H162519   4.533   4.962  13.618 -0.7208 -3.5092  0.7153
13676TIP3    H262520   4.609   4.916  13.495 -0.5465 -0.2934 -0.4729
13677TIP3   OH262521   1.667   2.662   4.684  0.2258 -0.2044  0.2599
13677TIP3    H162522   1.637   2.651   4.774  1.8731  1.4952  1.0713
13677TIP3    H262523   1.752   2.705   4.691  1.2798 -1.6659 -2.0662
13678TIP3   OH262524   6.500   2.768  12.460  0.6965  0.4855 -0.0562
13678TIP3    H162525   6.486   2.743  12.551  0.9309 -1.8932 -0.6083
13678TIP3    H262526   6.577   2.718  12.433 -1.4104 -1.7623 -2.5230
13679TIP3   OH262527   0.226   0.028  12.653  0.1793  0.3010  0.0593
13679TIP3    H162528   0.153   0.061  12.600 -0.4028 -0.4148  0.3974
13679TIP3    H262529   0.295   0.008  12.590 -0.2292  0.1905 -0.3564
13680TIP3   OH262530   5.001   2.265  13.981  0.5641 -0.7717  0.4286
13680TIP3    H162531   4.972   2.317  13.905 -0.6948 -1.6639  0.2663
13680TIP3    H262532   4.943   2.292  14.052  0.9277 -0.8344  0.7507
13681TIP3   OH262533   0.964   2.763  14.141 -0.6463  0.0849  0.0368
13681TIP3    H162534   0.990   2.788  14.052  2.1150  0.1770  0.7890
13681TIP3    H262535   1.038   2.789  14.196 -2.0746 -0.4112  2.3214
13682TIP3   OH262536   0.350   0.199   4.769  0.2867 -0.3940  0.4269
13682TIP3    H162537   0.385   0.276   4.814 -0.1936  1.0022 -1.4843
13682TIP3    H262538   0.427   0.151   4.740  0.6153  0.4301 -0.0919
13683TIP3   OH262539   4.328   6.784  12.969 -0.3926  0.4277  0.5079
13683TIP3    H162540   4.403   6.730  12.994 -0.1184  0.5523 -0.0291
13683TIP3    H262541   4.309   6.759  12.878 -0.2358  1.2597  0.2417
13684TIP3   OH262542   2.950   5.700   5.675 -0.3076 -0.2689 -0.2967
13684TIP3    H162543   2.860   5.729   5.662 -0.3246 -0.4910 -0.6985
13684TIP3    H262544   2.965   5.708   5.769 -0.2990  1.0334 -0.4017
13685TIP3   OH262545   1.741   0.297  10.516  0.3676  0.0417 -0.7842
13685TIP3    H162546   1.835   0.312  10.516  0.2285  1.1096  0.7688
13685TIP3    H262547   1.710   0.340  10.436  1.0191  1.1496 -0.4715
13686TIP3   OH262548   6.605   5.591  15.353 -0.2271  0.6115 -1.1457
13686TIP3    H162549   6.605   5.640  15.270  0.6707  1.4973 -0.6524
13686TIP3    H262550   6.600   5.659  15.420  0.3072 -0.0223 -0.4525
13687TIP3   OH262551   3.189   4.024  14.765 -0.2119 -0.2626  0.0288
13687TIP3    H162552   3.276   4.008  14.728 -0.2328 -1.7127  0.5313
13687TIP3    H262553   3.129   4.013  14.692  0.0394  1.3090 -0.4481
13688TIP3   OH262554   6.775   6.700  16.710 -0.2521 -0.3160 -0.6921
13688TIP3    H162555   6.768   6.776  16.652 -2.4431  0.6279  0.6492
13688TIP3    H262556   6.692   6.654  16.701  0.2869 -1.4763 -0.0460
13689TIP3   OH262557   1.529   4.977  12.963  0.1055  0.0187 -0.0089
13689TIP3    H162558   1.489   4.937  13.040 -0.3846 -1.3348 -0.9133
13689TIP3    H262559   1.487   4.932  12.889 -1.8212  3.4426 -1.2129
13690TIP3   OH262560   1.413   4.790   0.802 -0.3545  0.1061 -0.1188
13690TIP3    H162561   1.473   4.828   0.867 -0.5820  0.3267 -0.0337
13690TIP3    H262562   1.358   4.730   0.853  0.4799 -0.9090 -0.3753
13691TIP3   OH262563   2.673   2.246   4.133  0.0362  0.0888 -0.2363
13691TIP3    H162564   2.756   2.265   4.177 -0.6127  1.1034  0.5958
13691TIP3    H262565   2.677   2.297   4.052 -0.6439  1.8991  0.8147
13692TIP3   OH262566   5.025   5.125  14.138 -0.5147  0.3990  0.0073
13692TIP3    H162567   5.000   5.199  14.082 -0.2880  0.8278  0.4682
13692TIP3    H262568   4.991   5.146  14.224 -3.0393 -1.4014 -0.4296
13693TIP3   OH262569   1.162   6.005   0.812 -0.4170 -0.2122 -0.0649
13693TIP3    H162570   1.191   6.075   0.753 -2.0733  0.7737  0.2187
13693TIP3    H262571   1.224   6.009   0.885  0.9079 -0.6287 -1.1191
13694TIP3   OH262572   3.613   6.789  16.224 -0.4138  0.8288 -0.1104
13694TIP3    H162573   3.548   6.724  16.198 -1.7788  1.9209  0.4576
13694TIP3    H262574   3.612   6.853  16.152 -2.7069  2.7751  1.4950
13695TIP3   OH262575   4.800   5.965  14.382 -0.2088  0.3863 -0.3128
13695TIP3    H162576   4.752   6.043  14.351 -2.9269 -0.6132  1.0878
13695TIP3    H262577   4.746   5.891  14.355  0.6648 -0.8509  1.1805
13696TIP3   OH262578   0.100   0.851  16.902  0.0593  0.2897 -0.3891
13696TIP3    H162579   0.081   0.784  16.968 -0.1502 -0.6529 -1.3880
13696TIP3    H262580   0.195   0.845  16.889  0.0665  0.3103 -0.3462
13697TIP3   OH262581   4.661   1.811  15.623 -0.8785  0.3274 -0.2598
13697TIP3    H162582   4.645   1.744  15.689  0.5518 -0.9531 -1.1181
13697TIP3    H262583   4.575   1.834  15.590 -1.6496  1.1225  2.1023
13698TIP3   OH262584   3.237   6.499   4.833 -0.6418  0.1193 -0.2711
13698TIP3    H162585   3.280   6.557   4.896 -3.6053  0.2839  1.8339
13698TIP3    H262586   3.278   6.414   4.847  0.6039  0.7320 -0.0856
13699TIP3   OH262587   6.657   2.851  10.937  0.1317 -0.4132  0.0241
13699TIP3    H162588   6.701   2.882  10.857  0.4317  0.4565  0.5116
13699TIP3    H262589   6.595   2.921  10.959 -0.8455 -1.2071 -0.1273
13700TIP3   OH262590   4.547   6.464  14.052 -0.0155 -0.2646  0.9192
13700TIP3    H162591   4.636   6.428  14.048 -0.0073 -0.1935  0.5090
13700TIP3    H262592   4.559   6.559  14.046 -0.0943 -0.2326  1.2344
13701TIP3   OH262593   5.156   0.738  16.448 -0.0974  0.1800 -0.0202
13701TIP3    H162594   5.138   0.671  16.514  1.5067 -1.2402 -0.9341
13701TIP3    H262595   5.211   0.802  16.493 -1.3418  0.7323  0.7608
13702TIP3   OH262596   2.993   4.588   3.676  0.6698 -0.6262  0.3319
13702TIP3    H162597   2.927   4.521   3.691  0.0527  0.0064  0.4929
13702TIP3    H262598   2.965   4.663   3.729  0.7087  0.1704 -0.7321
13703TIP3   OH262599   2.784   5.156   5.508  0.3116 -0.2378  0.7845
13703TIP3    H162600   2.790   5.112   5.423  0.8397 -0.2088  0.8003
13703TIP3    H262601   2.757   5.087   5.569 -0.5929 -0.1373  0.5026
13704TIP3   OH262602   3.728   1.097  12.639 -0.0669  0.1232 -0.3589
13704TIP3    H162603   3.684   1.164  12.691  1.7782  1.3382 -0.2678
13704TIP3    H262604   3.691   1.014  12.670  1.0038  0.7658  3.0672
13705TIP3   OH262605   6.674   5.317  11.777 -0.7251  0.3592 -0.3429
13705TIP3    H162606   6.759   5.355  11.801 -1.3800  1.2552  0.6632
13705TIP3    H262607   6.696   5.245  11.717  0.9071 -0.9574  1.6927
13706TIP3   OH262608   3.921   3.733   4.167  0.0917 -0.1898 -0.3885
13706TIP3    H162609   3.887   3.745   4.256  0.4024 -0.0950 -0.2841
13706TIP3    H262610   3.880   3.804   4.117 -1.0229 -0.9510 -0.5846
13707TIP3   OH262611   3.428   6.774  16.534  0.4042 -0.3223 -0.1094
13707TIP3    H162612   3.394   6.779  16.624  1.3265  2.2390  0.1680
13707TIP3    H262613   3.522   6.788  16.543  0.1607  3.2578 -1.6488
13708TIP3   OH262614   6.586   0.808   2.691  0.3038 -0.0720 -0.0450
13708TIP3    H162615   6.594   0.745   2.763  0.2830  0.6284  0.5841
13708TIP3    H262616   6.511   0.863   2.715  0.0664 -0.0564 -0.7850
13709TIP3   OH262617   5.694   3.053  16.290 -0.3051  0.2141  0.4320
13709TIP3    H162618   5.652   3.139  16.279  0.0903  0.3722  0.1366
13709TIP3    H262619   5.788   3.071  16.280 -0.1976 -0.2046  0.6716
13710TIP3   OH262620   5.717   1.580   4.226 -0.3395 -0.4365 -0.3845
13710TIP3    H162621   5.682   1.612   4.309 -0.9625 -0.5199 -0.6097
13710TIP3    H262622   5.641   1.546   4.180 -0.0982  0.1837 -1.2585
13711TIP3   OH262623   1.450   2.287   5.032 -0.0372 -0.1862 -0.7693
13711TIP3    H162624   1.423   2.348   5.101  0.3601  1.2152 -1.7962
13711TIP3    H262625   1.368   2.247   5.002 -0.4728  0.7073 -0.8299
13712TIP3   OH262626   2.755   4.598  13.734  0.3513 -0.0137  0.3312
13712TIP3    H162627   2.792   4.519  13.773 -1.2417 -0.2433  1.4638
13712TIP3    H262628   2.765   4.665  13.802  0.8036  0.5340 -0.2565
13713TIP3   OH262629   2.878   3.321   0.442 -0.7513 -0.2722  0.6836
13713TIP3    H162630   2.793   3.362   0.460 -2.2828 -2.0831 -1.8448
13713TIP3    H262631   2.929   3.391   0.400 -1.9463  0.1577 -0.1152
13714TIP3   OH262632   2.130   3.037  13.442 -0.2064  0.2767 -0.0364
13714TIP3    H162633   2.093   3.002  13.360 -0.7320 -1.0193  0.7214
13714TIP3    H262634   2.219   3.061  13.419 -0.5359  0.5038 -1.1435
13715TIP3   OH262635   4.721   0.526  11.785 -0.6751  0.0119  0.0004
13715TIP3    H162636   4.797   0.519  11.727 -1.4897 -0.4545 -1.0188
13715TIP3    H262637   4.685   0.612  11.767 -0.6756  0.0423  0.1433
13716TIP3   OH262638   3.011   1.400  13.775 -0.3768  0.3986  0.3664
13716TIP3    H162639   2.988   1.475  13.721 -2.2938  0.9052  1.7999
13716TIP3    H262640   2.980   1.422  13.862  0.7764 -1.2608  1.2589
13717TIP3   OH262641   6.011   4.295  11.414  0.2904 -0.0853 -0.3085
13717TIP3    H162642   5.983   4.375  11.459 -0.9177 -0.5345 -0.2239
13717TIP3    H262643   6.043   4.326  11.329 -0.8088  0.4547 -0.5587
13718TIP3   OH262644   0.579   0.992   4.908 -0.1474  0.8933 -0.0479
13718TIP3    H162645   0.583   0.980   5.003  0.0501  0.9509 -0.0477
13718TIP3    H262646   0.486   1.003   4.889 -0.5211 -1.7744 -0.1790
13719TIP3   OH262647   3.667   1.722  14.471 -0.0726 -0.2193 -0.8447
13719TIP3    H162648   3.750   1.738  14.516  0.3921 -0.2883 -1.6492
13719TIP3    H262649   3.620   1.661  14.527 -0.4924  1.3889  0.6728
13720TIP3   OH262650   5.188   3.736   1.602 -0.5194  0.1874 -0.2186
13720TIP3    H162651   5.207   3.824   1.571  0.5624  0.5679  1.3781
13720TIP3    H262652   5.114   3.747   1.663  0.1150  0.1364  0.5794
13721TIP3   OH262653   5.768   4.171  12.687 -0.4737 -0.2182 -0.0914
13721TIP3    H162654   5.752   4.198  12.778 -0.1702 -1.4438  0.3577
13721TIP3    H262655   5.748   4.248  12.635 -2.5092 -0.0277  0.8677
13722TIP3   OH262656   4.544   1.111  11.491  0.5734  0.7995  0.1533
13722TIP3    H162657   4.449   1.107  11.509  0.8161  1.7898  1.9772
13722TIP3    H262658   4.558   1.201  11.461  0.8127  0.3436 -1.1618
13723TIP3   OH262659   6.156   4.320   1.662  0.3065  0.4800 -0.1729
13723TIP3    H162660   6.062   4.341   1.660  0.2562  0.2659 -0.0865
13723TIP3    H262661   6.163   4.239   1.611  0.4576  0.5437 -0.2538
13724TIP3   OH262662   4.333   5.491  15.992  0.3751  0.0895 -0.1995
13724TIP3    H162663   4.369   5.403  15.987  1.4037  0.4385  0.6566
13724TIP3    H262664   4.340   5.525  15.902 -0.4257 -0.8296 -0.6241
13725TIP3   OH262665   4.728   5.392  12.787 -0.2944 -0.3895  0.4646
13725TIP3    H162666   4.651   5.335  12.790 -3.1979  3.1521 -0.5929
13725TIP3    H262667   4.757   5.387  12.696 -1.1143  0.4407  0.1441
13726TIP3   OH262668   2.299   6.307  13.815 -0.5500 -0.4668 -0.0390
13726TIP3    H162669   2.337   6.241  13.873 -0.5341 -0.6194 -0.2213
13726TIP3    H262670   2.209   6.278  13.801 -0.3327 -0.8461 -0.6960
13727TIP3   OH262671   0.917   4.578   2.138 -0.1204 -0.6412  0.1769
13727TIP3    H162672   0.863   4.643   2.093 -0.5375 -1.5233 -0.6438
13727TIP3    H262673   1.002   4.584   2.095  0.4719  0.7808  1.5012
13728TIP3   OH262674   5.098   5.036   4.226  0.2738 -0.1453  0.0737
13728TIP3    H162675   5.159   4.973   4.188 -0.8150 -0.9563 -0.3482
13728TIP3    H262676   5.012   5.009   4.196 -0.2117  1.7864 -0.4534
13729TIP3   OH262677   3.852   4.844   4.531 -0.0263 -0.0283 -0.5509
13729TIP3    H162678   3.899   4.927   4.521  0.6446 -0.4707 -1.0699
13729TIP3    H262679   3.847   4.831   4.626 -0.2120  0.6426 -0.4601
13730TIP3   OH262680   1.288   0.766  16.427 -0.0083 -0.2143  0.0631
13730TIP3    H162681   1.199   0.732  16.419  0.4658 -1.1697 -1.6520
13730TIP3    H262682   1.328   0.714  16.497  0.0214 -1.7088 -1.0242
13731TIP3   OH262683   2.404   0.889   1.444 -0.2451 -0.9366  0.3248
13731TIP3    H162684   2.374   0.800   1.426 -0.6489 -0.8674  0.6600
13731TIP3    H262685   2.324   0.942   1.449  0.0294 -0.3850 -0.7426
13732TIP3   OH262686   0.557   3.113   5.832 -0.4280  0.3239 -0.2900
13732TIP3    H162687   0.628   3.109   5.896 -0.5541 -1.3870 -0.2336
13732TIP3    H262688   0.488   3.163   5.876  0.0514  0.4648  0.3181
13733TIP3   OH262689   1.892   2.700  15.529  0.1106  0.0022 -0.3923
13733TIP3    H162690   1.828   2.761  15.493  0.0742 -0.3519 -0.9453
13733TIP3    H262691   1.966   2.704  15.468  0.5936  0.3521  0.2010
13734TIP3   OH262692   1.825   2.856  16.711  0.5385  0.0036  0.3780
13734TIP3    H162693   1.837   2.951  16.712  2.1454 -0.1416  2.9875
13734TIP3    H262694   1.752   2.842  16.651 -1.0829  3.0517  1.4464
13735TIP3   OH262695   1.093   4.588   3.091 -0.2047 -0.3971  0.2511
13735TIP3    H162696   1.181   4.625   3.097 -0.4139 -0.0986  3.5756
13735TIP3    H262697   1.035   4.665   3.092 -0.5458 -0.6526  0.1509
13736TIP3   OH262698   1.384   1.200  16.658  0.2701 -0.0975 -0.0829
13736TIP3    H162699   1.380   1.113  16.699 -0.2714  0.3618  0.8703
13736TIP3    H262700   1.330   1.255  16.714  1.0920  1.0012 -0.3397
13737TIP3   OH262701   1.205   4.229   2.267 -1.0693 -0.2335  0.5861
13737TIP3    H162702   1.245   4.154   2.311 -0.2160  0.3438  0.8176
13737TIP3    H262703   1.146   4.267   2.332  0.8556  1.1556  1.6067
13738TIP3   OH262704   6.106   4.525   0.182  0.1571  0.2141  0.0426
13738TIP3    H162705   6.072   4.455   0.238  1.0786 -0.0472  0.2983
13738TIP3    H262706   6.152   4.479   0.111  0.9176  0.5492  0.3067
13739TIP3   OH262707   0.104   6.471   1.430  0.3038 -0.5897  0.7568
13739TIP3    H162708   0.081   6.389   1.474  0.6900 -1.2039 -0.1619
13739TIP3    H262709   0.179   6.505   1.479 -0.3149 -0.4045  1.5850
13740TIP3   OH262710   6.207   3.096   3.522 -0.4517  0.1261 -0.2114
13740TIP3    H162711   6.280   3.040   3.494 -1.5828 -1.0346 -0.9998
13740TIP3    H262712   6.216   3.175   3.468 -0.5341 -0.5840 -1.3156
13741TIP3   OH262713   5.942   6.452  11.589 -0.3370  0.5645  0.2102
13741TIP3    H162714   6.005   6.512  11.548  1.6078 -0.2128  1.8561
13741TIP3    H262715   5.955   6.369  11.542 -0.8332  0.6485 -0.0752
13742TIP3   OH262716   0.547   3.166  11.372  0.0454  0.2453  0.3412
13742TIP3    H162717   0.563   3.203  11.458 -1.0703  1.9010 -0.1229
13742TIP3    H262718   0.547   3.241  11.313 -0.5098 -0.7019 -0.9199
13743TIP3   OH262719   4.488   2.386  15.301  0.1689  0.1215 -0.4651
13743TIP3    H162720   4.517   2.325  15.233  0.3234 -1.2032  0.7436
13743TIP3    H262721   4.565   2.439  15.320  0.3392 -0.0014 -0.8017
13744TIP3   OH262722   2.967   4.991  14.931 -0.1246 -0.5530 -0.0323
13744TIP3    H162723   3.015   5.070  14.905 -1.3298  0.0234 -0.5731
13744TIP3    H262724   3.032   4.921  14.929  0.7165  0.2299 -0.6091
13745TIP3   OH262725   1.539   6.763  12.997  0.0519 -0.1247  0.4099
13745TIP3    H162726   1.627   6.790  13.024  0.5060 -0.8121 -0.3313
13745TIP3    H262727   1.537   6.669  13.013  0.0929 -0.4390 -1.1890
13746TIP3   OH262728   5.169   0.031   2.836 -0.3753 -0.7115  0.3457
13746TIP3    H162729   5.166  -0.059   2.804  0.2492 -0.7817  0.4608
13746TIP3    H262730   5.263   0.050   2.846 -0.4905  0.0585  0.0331
13747TIP3   OH262731   3.765   5.623  16.726  0.6577  0.0964  0.0405
13747TIP3    H162732   3.694   5.644  16.666  0.6256 -0.3829 -0.0914
13747TIP3    H262733   3.792   5.708  16.762 -0.4490  0.2194  0.6358
13748TIP3   OH262734   2.404   1.467  11.696  0.7471  0.3669 -0.2092
13748TIP3    H162735   2.482   1.429  11.737 -0.7998 -0.2225  2.4122
13748TIP3    H262736   2.347   1.392  11.678  0.2174  0.9117 -0.8533
13749TIP3   OH262737   0.866   5.688   4.242 -0.4859 -0.0333  0.5916
13749TIP3    H162738   0.820   5.720   4.319 -1.7312 -0.7437  0.1646
13749TIP3    H262739   0.932   5.627   4.278 -0.9503 -0.2425  1.1017
13750TIP3   OH262740   4.781   5.029  14.035  0.8823  0.7106  0.4652
13750TIP3    H162741   4.845   4.958  14.027 -0.1685 -0.2329  0.0656
13750TIP3    H262742   4.744   5.018  14.123  0.3005  0.3830  0.1849
13751TIP3   OH262743   5.504   2.509  11.774  0.2096 -0.4308 -0.1710
13751TIP3    H162744   5.410   2.491  11.771  0.2700 -0.6718 -0.9633
13751TIP3    H262745   5.518   2.571  11.702 -0.0192  3.0076  2.4792
13752TIP3   OH262746   4.790   3.145   3.290 -0.4725 -0.3087  0.1745
13752TIP3    H162747   4.744   3.214   3.336 -1.5744 -0.9184  0.0253
13752TIP3    H262748   4.766   3.157   3.198 -0.1879 -0.5275  0.0687
13753TIP3   OH262749   3.620   4.376   0.863 -0.2791 -0.0898  0.0947
13753TIP3    H162750   3.673   4.418   0.795 -0.7410  0.0244 -0.2008
13753TIP3    H262751   3.576   4.448   0.907 -0.0617 -0.1718  0.4507
13754TIP3   OH262752   5.814   3.680  13.759 -0.0847  0.5546 -0.3248
13754TIP3    H162753   5.742   3.736  13.731 -0.4681  0.7199  0.9117
13754TIP3    H262754   5.854   3.727  13.832  0.9105  0.1859 -0.6245
13755TIP3   OH262755   0.652   2.762  11.090 -0.2185 -0.0122  0.5768
13755TIP3    H162756   0.656   2.822  11.016 -0.5614 -0.3422  0.2884
13755TIP3    H262757   0.739   2.722  11.093  0.1672  0.8303  1.0584
13756TIP3   OH262758   5.355   0.539  12.765  0.0280 -0.2481 -0.4380
13756TIP3    H162759   5.271   0.506  12.796 -0.3125  0.3102 -0.7447
13756TIP3    H262760   5.339   0.561  12.673 -0.0399  1.6786  0.0052
13757TIP3   OH262761   6.217   5.667   4.310  0.4614 -0.0912 -0.4127
13757TIP3    H162762   6.193   5.686   4.220 -1.2931 -0.4890 -0.0648
13757TIP3    H262763   6.260   5.581   4.307 -0.1809 -0.4049 -0.7999
13758TIP3   OH262764   1.350   5.457  17.173  0.4344  0.1260  0.3398
13758TIP3    H162765   1.325   5.492  17.258  0.0549  0.5562  0.0544
13758TIP3    H262766   1.270   5.459  17.121  0.7660  0.3173 -0.1793
13759TIP3   OH262767   3.463   5.232   0.191  0.6682  0.1641 -0.5932
13759TIP3    H162768   3.434   5.292   0.123  2.6452  1.4672 -0.3678
13759TIP3    H262769   3.498   5.157   0.144 -0.6029 -0.2470 -0.9126
13760TIP3   OH262770   3.173   0.955   0.647 -0.0632 -0.0763  0.0443
13760TIP3    H162771   3.225   0.961   0.567  0.6516 -1.9311  0.3131
13760TIP3    H262772   3.237   0.949   0.718 -0.6353  3.7898  1.1249
13761TIP3   OH262773   1.335   5.593   5.139 -0.1023 -0.6820 -0.0943
13761TIP3    H162774   1.312   5.669   5.192  0.4196 -1.3796  1.1764
13761TIP3    H262775   1.420   5.614   5.101  0.3517 -0.8895  0.7914
13762TIP3   OH262776   2.006   2.784  16.314 -0.3474  0.1214  0.4205
13762TIP3    H162777   2.004   2.802  16.408  0.3842 -0.8175  0.6359
13762TIP3    H262778   2.097   2.802  16.288 -0.4448 -0.0073 -0.0149
13763TIP3   OH262779   3.961   5.659   5.495 -0.5272 -0.3891 -0.2783
13763TIP3    H162780   4.039   5.641   5.548 -1.8887  0.7106  2.2598
13763TIP3    H262781   3.996   5.690   5.411  1.7913  0.6408  0.9837
13764TIP3   OH262782   3.462   0.774  13.746 -0.1787 -0.6471  0.3591
13764TIP3    H162783   3.459   0.863  13.783 -0.7375 -0.4662 -0.1052
13764TIP3    H262784   3.449   0.786  13.652  0.1413 -1.1946  0.2397
13765TIP3   OH262785   4.758   2.823   5.413  0.1985 -0.3522  0.4987
13765TIP3    H162786   4.767   2.831   5.318 -1.0423 -2.4865  0.1303
13765TIP3    H262787   4.816   2.891   5.449  0.8461  0.3686 -1.7631
13766TIP3   OH262788   4.273   4.138  13.053 -0.3245  0.3290  0.2362
13766TIP3    H162789   4.238   4.221  13.088  0.3793  0.7686 -0.0691
13766TIP3    H262790   4.354   4.164  13.009 -0.5902 -0.3972 -0.6917
13767TIP3   OH262791   4.910   3.232  16.087  0.5115  0.2695  0.5940
13767TIP3    H162792   4.922   3.250  15.994  0.9016  1.2634  0.8176
13767TIP3    H262793   4.998   3.240  16.124  0.3711 -0.2094  1.0389
13768TIP3   OH262794   3.218   2.720   3.095  0.0088  0.4431 -0.4905
13768TIP3    H162795   3.263   2.663   3.034 -1.3441  0.3162 -1.4124
13768TIP3    H262796   3.130   2.732   3.057 -0.2520  1.8627  0.4715
13769TIP3   OH262797   5.070   6.048  16.724 -0.0903 -0.3358  0.5437
13769TIP3    H162798   5.120   5.999  16.659 -1.2859  0.4823 -1.0677
13769TIP3    H262799   5.130   6.116  16.754 -0.3329  1.0763 -1.8801
13770TIP3   OH262800   1.681   4.820   1.770  0.2779 -0.1758  0.4175
13770TIP3    H162801   1.765   4.826   1.815  0.4964  2.3140 -0.1759
13770TIP3    H262802   1.621   4.782   1.834  1.6596 -1.2519  1.1131
13771TIP3   OH262803   4.719   5.195  15.559  0.3585 -0.3183  0.2931
13771TIP3    H162804   4.781   5.123  15.563 -0.0698 -0.9366 -2.3182
13771TIP3    H262805   4.756   5.254  15.493 -0.1035  1.0846  1.2422
13772TIP3   OH262806   5.238   2.755   1.871 -0.0209  0.4162 -0.2603
13772TIP3    H162807   5.199   2.843   1.872 -0.6302  0.1589  1.4835
13772TIP3    H262808   5.254   2.734   1.963 -2.2987 -2.3143 -0.3443
13773TIP3   OH262809   6.390   2.515   6.019  0.5497  0.7200 -0.0424
13773TIP3    H162810   6.398   2.522   6.114  1.7353  1.8955 -0.1995
13773TIP3    H262811   6.333   2.588   5.995  0.1138  0.3213 -0.2206
13774TIP3   OH262812   2.998   1.606  17.170 -0.1924 -0.1075  0.1281
13774TIP3    H162813   2.985   1.642  17.083 -0.6083 -1.2277 -0.2960
13774TIP3    H262814   3.092   1.587  17.175 -0.4353 -1.6990 -0.7761
13775TIP3   OH262815   0.193   4.953   0.118  0.0037  0.0013  0.3058
13775TIP3    H162816   0.179   5.048   0.113 -0.6621 -0.0844  0.4199
13775TIP3    H262817   0.215   4.936   0.210  2.6767  0.3506 -0.1796
13776TIP3   OH262818   4.594   1.425   3.626 -0.2213  0.3489 -0.6213
13776TIP3    H162819   4.675   1.451   3.669 -0.8217 -1.3869  1.8093
13776TIP3    H262820   4.529   1.487   3.658 -0.4371 -0.2253  0.0938
13777TIP3   OH262821   3.756   2.881   4.426 -0.8302 -0.2153 -0.5063
13777TIP3    H162822   3.661   2.867   4.434 -0.9976  0.0319 -1.7912
13777TIP3    H262823   3.795   2.803   4.466 -1.5531 -0.0873  0.4901
13778TIP3   OH262824   2.468   6.770  15.917 -0.4861 -0.9271  0.5451
13778TIP3    H162825   2.399   6.822  15.876 -0.8326 -1.1069  0.8869
13778TIP3    H262826   2.544   6.828  15.918 -1.4261  0.4182  2.8421
13779TIP3   OH262827   3.853   0.516  15.674  0.4100  0.5921 -0.4310
13779TIP3    H162828   3.799   0.535  15.597  1.7934  1.4314 -1.2628
13779TIP3    H262829   3.940   0.547  15.649  1.0649  0.1740  1.2098
13780TIP3   OH262830   3.370   1.380  11.946  0.1422  0.1471  0.5238
13780TIP3    H162831   3.387   1.306  12.005 -0.8806  0.0107  0.6767
13780TIP3    H262832   3.279   1.368  11.918  0.3484  0.6650 -0.4440
13781TIP3   OH262833   4.156   3.928  14.685 -0.4207  0.2411 -0.1850
13781TIP3    H162834   4.135   3.836  14.700 -1.1820  0.4046 -0.2255
13781TIP3    H262835   4.128   3.972  14.765  3.5236 -0.0252  1.6319
13782TIP3   OH262836   4.591   4.365  14.255  0.1205 -0.1440  0.2653
13782TIP3    H162837   4.674   4.408  14.277  0.6141 -0.2179 -1.3291
13782TIP3    H262838   4.617   4.285  14.209 -0.8344 -0.1469 -0.2965
13783TIP3   OH262839   4.403   1.841   2.989 -0.4893 -0.1260  0.9212
13783TIP3    H162840   4.345   1.765   2.982  1.0743 -1.2260 -1.0538
13783TIP3    H262841   4.405   1.879   2.901  2.3881 -0.6581  0.6448
13784TIP3   OH262842   5.345   1.650  14.261  0.3652  0.1402  0.3033
13784TIP3    H162843   5.432   1.632  14.225  0.3940 -1.6514  1.1591
13784TIP3    H262844   5.362   1.699  14.341  0.5915 -0.2615  0.5028
13785TIP3   OH262845   2.591   0.832  16.049 -0.2318  0.2433 -0.3467
13785TIP3    H162846   2.540   0.773  15.994  1.2449 -1.1087 -0.3110
13785TIP3    H262847   2.552   0.824  16.136 -0.4572 -0.1530 -0.4850
13786TIP3   OH262848   4.071   3.435   5.313  0.3375 -0.0797  0.4453
13786TIP3    H162849   4.038   3.353   5.277  2.0774 -0.1537 -1.1990
13786TIP3    H262850   4.065   3.424   5.408  2.0298 -2.8360  0.3618
13787TIP3   OH262851   0.018   3.910  15.430 -0.2888  0.7056 -0.4301
13787TIP3    H162852   0.074   3.929  15.505  0.3991  1.8701 -1.2161
13787TIP3    H262853   0.021   3.815  15.422  1.6087  0.7246 -0.4505
13788TIP3   OH262854   6.621   6.664   3.804  0.1912  0.3335 -0.1801
13788TIP3    H162855   6.555   6.639   3.869 -0.4024  1.6052 -0.2608
13788TIP3    H262856   6.606   6.757   3.789  1.5569  0.4945 -0.7354
13789TIP3   OH262857   2.184   1.329  11.020  0.7737  0.0888 -0.4411
13789TIP3    H162858   2.244   1.326  11.094  2.0402  1.1275 -1.3838
13789TIP3    H262859   2.230   1.285  10.949 -0.4339 -0.9195 -0.6391
13790TIP3   OH262860   3.514   2.855  11.917  0.0378  1.0493 -0.1079
13790TIP3    H162861   3.565   2.861  11.836  1.8253 -3.3774  0.4218
13790TIP3    H262862   3.424   2.846  11.887  0.4877  1.0222 -1.5559
13791TIP3   OH262863   4.505   1.876   4.410 -0.1662 -0.2706  0.0286
13791TIP3    H162864   4.596   1.883   4.383 -0.0066 -0.5841  0.4679
13791TIP3    H262865   4.457   1.931   4.348  0.1896 -0.9329 -0.8544
13792TIP3   OH262866   3.378   0.502  15.850 -0.0750 -0.0759 -0.2267
13792TIP3    H162867   3.452   0.524  15.794  0.4842  0.4018  0.6713
13792TIP3    H262868   3.368   0.577  15.908  0.6033 -1.2896  1.5762
13793TIP3   OH262869   5.908   5.145   2.208 -0.2599 -0.0370 -0.3166
13793TIP3    H162870   5.977   5.161   2.272 -1.8319  2.6161  0.8984
13793TIP3    H262871   5.923   5.210   2.140 -1.7145  0.9104  0.1997
13794TIP3   OH262872   1.900   5.469   0.503  0.5424 -0.0620  0.0589
13794TIP3    H162873   1.872   5.544   0.450 -2.2362 -1.7337 -1.1241
13794TIP3    H262874   1.982   5.441   0.463  0.5495  1.1052 -0.8133
13795TIP3   OH262875   0.133   3.352  11.765 -0.0003  0.0694  0.5835
13795TIP3    H162876   0.155   3.429  11.714  0.8343 -0.6893 -0.2569
13795TIP3    H262877   0.048   3.324  11.731 -0.1499  0.4226  0.6630
13796TIP3   OH262878   1.569   4.514   0.377  0.0946 -0.1985 -0.0256
13796TIP3    H162879   1.495   4.470   0.335 -0.1176  1.0509 -1.0255
13796TIP3    H262880   1.546   4.515   0.470 -1.4961  0.7630 -0.3866
13797TIP3   OH262881   6.043   1.582   3.052 -0.0369 -0.2641 -0.4819
13797TIP3    H162882   6.055   1.491   3.076 -1.8204 -0.2856  0.4310
13797TIP3    H262883   6.003   1.579   2.965  0.4341 -0.3200 -0.7016
13798TIP3   OH262884   2.813   2.089   2.517 -0.1449 -0.1401  0.0640
13798TIP3    H162885   2.902   2.081   2.482 -0.8950  0.0003 -1.9918
13798TIP3    H262886   2.767   2.143   2.454 -1.5205  0.4370  1.5016
13799TIP3   OH262887   2.212   0.128   3.209  0.2200  0.2932 -0.1668
13799TIP3    H162888   2.268   0.193   3.166  0.7414  0.4689  0.7472
13799TIP3    H262889   2.273   0.074   3.260 -0.3234 -0.2665 -0.0943
13800TIP3   OH262890   2.495   2.283  14.392  0.2586  0.5198  0.0100
13800TIP3    H162891   2.571   2.291  14.450 -0.8592 -1.9053  2.0313
13800TIP3    H262892   2.522   2.323  14.310  3.0686  1.2947  1.2034
13801TIP3   OH262893   2.856   0.858   1.242 -0.2015  0.0828 -0.2157
13801TIP3    H162894   2.811   0.942   1.256 -0.2595 -0.1375  0.9839
13801TIP3    H262895   2.794   0.793   1.273  0.6372 -0.2706  0.7933
13802TIP3   OH262896   3.782   5.013   4.785  0.0461 -0.4804 -0.2909
13802TIP3    H162897   3.699   5.061   4.787  1.0464  1.3742 -0.2285
13802TIP3    H262898   3.819   5.032   4.698 -0.2242 -2.4768 -0.8758
13803TIP3   OH262899   6.035   0.716  17.271  0.1668 -0.4227 -0.4562
13803TIP3    H162900   6.078   0.630  17.274  1.2823  0.1352  0.4484
13803TIP3    H262901   6.106   0.777  17.252 -0.1391  0.5625  1.3341
13804TIP3   OH262902   4.073   6.103  12.864 -0.5037 -0.3047 -0.0850
13804TIP3    H162903   4.154   6.137  12.901 -0.3515  0.2748 -0.9342
13804TIP3    H262904   4.063   6.148  12.780 -1.9340 -0.0217  0.1990
13805TIP3   OH262905   3.946   3.627  11.408 -0.9289 -0.8529  0.6657
13805TIP3    H162906   4.019   3.688  11.416 -1.5880 -0.1219  1.2332
13805TIP3    H262907   3.906   3.648  11.324  1.2560 -3.2649 -1.1727
13806TIP3   OH262908   0.780   6.656   0.339  0.6030  0.1185 -0.2999
13806TIP3    H162909   0.773   6.654   0.434 -0.3124 -2.4522 -0.3284
13806TIP3    H262910   0.742   6.572   0.311  1.6491  0.4198 -2.8717
13807TIP3   OH262911   0.817   5.070  16.811 -0.5082 -0.4244  0.3608
13807TIP3    H162912   0.874   5.005  16.770  0.4372  0.2892  0.5248
13807TIP3    H262913   0.875   5.123  16.865 -1.1260  1.0512 -0.3712
13808TIP3   OH262914   2.334   2.924  12.270 -0.4994 -0.1238 -0.2095
13808TIP3    H162915   2.319   2.829  12.267 -1.0470 -0.0605  0.3262
13808TIP3    H262916   2.429   2.933  12.267 -0.3278 -0.7914  1.9796
13809TIP3   OH262917   6.602   1.105  13.285 -0.0564  0.2741 -0.2583
13809TIP3    H162918   6.564   1.020  13.307 -1.0435  0.5904 -0.6930
13809TIP3    H262919   6.673   1.117  13.348 -0.2692 -0.6158  0.1630
13810TIP3   OH262920   0.111   0.591  17.104  0.0379 -0.1495 -0.5919
13810TIP3    H162921   0.201   0.587  17.074  0.4203 -0.1851  0.4958
13810TIP3    H262922   0.092   0.503  17.137 -0.2143 -0.0134 -0.3618
13811TIP3   OH262923   0.360   0.253   3.994  0.2406 -0.1007  0.4835
13811TIP3    H162924   0.401   0.184   3.942  0.8222  1.3630 -1.1108
13811TIP3    H262925   0.271   0.260   3.959  1.2945  2.4098 -2.0834
13812TIP3   OH262926   2.637   4.791  11.790 -0.5777 -0.4402  0.3511
13812TIP3    H162927   2.574   4.823  11.725 -0.8965 -0.1349  0.8014
13812TIP3    H262928   2.600   4.707  11.820 -0.7466 -0.2890  0.5734
13813TIP3   OH262929   1.816   0.765   5.900 -0.1772 -0.1066 -0.0384
13813TIP3    H162930   1.909   0.783   5.916  0.5399 -2.3033 -1.3551
13813TIP3    H262931   1.774   0.851   5.904  1.8955  0.9421  0.5798
13814TIP3   OH262932   5.452   0.309  15.194  0.1097 -0.1670 -0.5364
13814TIP3    H162933   5.358   0.319  15.213  0.4037  1.2951  0.2879
13814TIP3    H262934   5.485   0.258  15.268 -0.1102 -1.2138 -1.1300
13815TIP3   OH262935   1.415   3.426   5.172 -0.4163  0.4181  0.6145
13815TIP3    H162936   1.441   3.518   5.167 -2.0544  0.9770  1.5693
13815TIP3    H262937   1.424   3.403   5.265  2.4506 -1.2327  0.0737
13816TIP3   OH262938   1.545   4.561  13.154 -0.6556 -0.1465  0.2291
13816TIP3    H162939   1.500   4.621  13.094  0.4309 -1.4458 -2.0035
13816TIP3    H262940   1.488   4.485  13.159  0.6601 -1.3676 -1.7990
13817TIP3   OH262941   4.505   6.781   1.143  0.4173 -0.7122  0.2497
13817TIP3    H162942   4.537   6.775   1.053  3.9230 -1.5885  1.3716
13817TIP3    H262943   4.566   6.841   1.186 -0.9616 -0.5732  2.1328
13818TIP3   OH262944   5.905   6.671  13.555 -0.7194 -0.4211 -0.1794
13818TIP3    H162945   5.933   6.688  13.645 -0.8299 -0.0594 -0.2143
13818TIP3    H262946   5.812   6.654  13.562 -0.9551  0.7126 -0.3603
13819TIP3   OH262947   5.083   3.866   0.814 -0.0909 -0.0370 -0.3303
13819TIP3    H162948   5.089   3.853   0.720  1.5928 -1.9948 -0.0128
13819TIP3    H262949   4.998   3.830   0.839  0.1397 -0.9832 -0.8987
13820TIP3   OH262950   0.316   2.578   2.619  0.2879 -0.5103 -0.2689
13820TIP3    H162951   0.377   2.507   2.636 -0.3731 -1.1934 -0.6723
13820TIP3    H262952   0.347   2.651   2.673  2.2428 -0.3813 -1.4801
13821TIP3   OH262953   2.404   3.036   0.942  0.1456 -0.0779  0.3194
13821TIP3    H162954   2.337   3.034   1.011 -1.4856 -0.6996 -1.1940
13821TIP3    H262955   2.411   3.129   0.918 -1.5997 -0.1738 -0.7513
13822TIP3   OH262956   1.694   4.423  17.097 -0.0291  0.0468  0.3780
13822TIP3    H162957   1.628   4.371  17.050  1.4006 -1.8021  0.3038
13822TIP3    H262958   1.767   4.429  17.036  0.3703  0.9950  0.9290
13823TIP3   OH262959   2.584   1.642   0.704 -0.4932  0.2152 -0.5076
13823TIP3    H162960   2.519   1.684   0.760 -1.4166  0.5240 -1.7607
13823TIP3    H262961   2.547   1.556   0.685 -0.0858  0.0296 -0.4689
13824TIP3   OH262962   4.891   6.037  13.099 -0.0902 -0.3780 -0.7755
13824TIP3    H162963   4.924   5.948  13.086 -0.7166 -1.2193  2.5115
13824TIP3    H262964   4.930   6.065  13.181 -0.9873  1.8906 -1.0565
13825TIP3   OH262965   5.062   0.145   0.875 -0.2555 -0.3368 -0.9005
13825TIP3    H162966   5.103   0.063   0.847 -1.6809 -1.6867  0.7381
13825TIP3    H262967   5.061   0.140   0.971 -0.2451  1.6771 -0.7545
13826TIP3   OH262968   2.373   5.365   4.185  0.3967 -0.3327 -0.0182
13826TIP3    H162969   2.420   5.405   4.112  0.1785 -0.0296  0.0046
13826TIP3    H262970   2.316   5.299   4.144 -1.0063  1.0057 -0.3308
13827TIP3   OH262971   0.894   3.498   4.759 -0.1684  0.9489 -0.1998
13827TIP3    H162972   0.866   3.426   4.701 -0.9600  1.5449 -0.5660
13827TIP3    H262973   0.969   3.462   4.806  1.4944  0.9086 -2.6562
13828TIP3   OH262974   4.224   2.554   1.758 -0.1825 -0.1219 -0.6708
13828TIP3    H162975   4.262   2.586   1.840 -1.1203  0.3159 -0.3881
13828TIP3    H262976   4.184   2.632   1.719 -2.1503 -0.8322 -0.1852
13829TIP3   OH262977   3.092   5.979  12.567 -0.3119  0.1181  0.1677
13829TIP3    H162978   3.021   5.949  12.510 -0.4395 -0.6496  0.7232
13829TIP3    H262979   3.169   5.984  12.509 -0.2204 -1.5384  0.0883
13830TIP3   OH262980   5.634   4.484   2.811 -0.0978  0.3947  0.2589
13830TIP3    H162981   5.705   4.450   2.755  0.1479 -0.7513  1.2227
13830TIP3    H262982   5.679   4.512   2.891 -0.7242 -0.3873  0.8963
13831TIP3   OH262983   3.889   3.651   1.564 -0.2116 -0.4671 -0.7730
13831TIP3    H162984   3.978   3.670   1.535  1.1126 -2.0309  1.8941
13831TIP3    H262985   3.872   3.562   1.535 -0.5778 -0.4746 -0.5514
13832TIP3   OH262986   5.115   1.850   0.772 -0.4139  0.1280  0.3444
13832TIP3    H162987   5.164   1.832   0.692 -1.0097  0.3077 -0.0657
13832TIP3    H262988   5.047   1.783   0.775 -1.6562  1.2962 -0.3687
13833TIP3   OH262989   1.737   0.252   0.602  0.2076 -0.2027  0.1152
13833TIP3    H162990   1.736   0.311   0.677  2.4551  3.0367 -2.0846
13833TIP3    H262991   1.830   0.233   0.588 -0.1622 -0.9939 -1.5841
13834TIP3   OH262992   0.071   0.213   4.082 -0.0672  0.8478 -0.1325
13834TIP3    H162993   0.075   0.172   3.996 -1.1105  1.2492 -0.3872
13834TIP3    H262994  -0.018   0.196   4.114  0.5533 -0.0211  1.2537
13835TIP3   OH262995   2.513   6.667  11.069  0.2727 -0.1793  0.7129
13835TIP3    H162996   2.589   6.618  11.101 -0.2334 -1.7312 -0.2921
13835TIP3    H262997   2.472   6.607  11.006 -0.6066  1.4414 -0.3148
13836TIP3   OH262998   6.809   2.616   5.669  0.3588 -0.0416 -0.7439
13836TIP3    H162999   6.831   2.682   5.735  2.3428  0.4806 -1.8509
13836TIP3    H263000   6.722   2.641   5.638 -1.8709 -1.7915  3.3711
13837TIP3   OH263001   4.936   3.452  14.183 -0.2401 -0.1698 -0.0539
13837TIP3    H163002   4.878   3.522  14.213 -1.6014 -0.8082 -1.1443
13837TIP3    H263003   4.891   3.371  14.206  1.1240 -0.7230  0.8084
13838TIP3   OH263004   0.430   5.186  12.083  0.6336  0.3623 -0.4394
13838TIP3    H163005   0.462   5.164  11.996  1.0021 -0.9018  0.0011
13838TIP3    H263006   0.475   5.126  12.141  0.7467  1.5079  0.6931
13839TIP3   OH263007   0.033   5.167   1.206 -0.2495 -0.3968 -0.2678
13839TIP3    H163008  -0.055   5.177   1.240 -0.2478  1.7876 -0.7416
13839TIP3    H263009   0.032   5.216   1.123  1.4369 -0.1762 -0.1935
13840TIP3   OH263010   2.671   0.170  15.036  0.2916  0.1096  0.2676
13840TIP3    H163011   2.669   0.256  14.994 -0.3827 -0.5295 -1.0880
13840TIP3    H263012   2.602   0.174  15.102  0.7056  0.8160  0.6713
13841TIP3   OH263013   1.739   4.980   6.369 -0.3731 -0.3916  0.2065
13841TIP3    H163014   1.665   4.952   6.422  0.6012 -1.4471  1.0749
13841TIP3    H263015   1.815   4.940   6.411  0.6608  0.3791 -0.8482
13842TIP3   OH263016   6.633   6.317   1.743 -0.6315 -0.2648 -0.1779
13842TIP3    H163017   6.628   6.296   1.650  0.4936 -0.7198 -0.1627
13842TIP3    H263018   6.608   6.409   1.749 -0.3868 -0.1349 -0.9855
13843TIP3   OH263019   1.224   6.132  12.438  0.0357 -0.3145 -0.1027
13843TIP3    H163020   1.314   6.160  12.453  0.0063 -0.5409  0.5194
13843TIP3    H263021   1.227   6.036  12.445 -0.2193 -0.3375 -0.2685
13844TIP3   OH263022   2.667   4.145  16.093  0.5991 -0.5159  0.2301
13844TIP3    H163023   2.584   4.098  16.098  1.0510 -1.4908 -0.7809
13844TIP3    H263024   2.660   4.215  16.158 -0.5764 -1.2466  0.9224
13845TIP3   OH263025   4.776   5.035   1.464 -0.0468  0.0746 -0.3699
13845TIP3    H163026   4.829   4.987   1.400 -1.4096 -0.5861 -1.0464
13845TIP3    H263027   4.777   4.981   1.542 -0.4008 -0.3560 -0.6589
13846TIP3   OH263028   4.470   2.218   3.454  0.5594  0.8149  0.4911
13846TIP3    H163029   4.393   2.173   3.490  1.2408  0.6355  1.7761
13846TIP3    H263030   4.434   2.275   3.385 -0.8673  1.4995  1.7357
13847TIP3   OH263031   6.642   6.539   5.100 -0.1633  0.0140 -0.0592
13847TIP3    H163032   6.602   6.595   5.034  0.7695  1.4936  0.5773
13847TIP3    H263033   6.569   6.493   5.141 -0.9183  0.5140 -0.8365
13848TIP3   OH263034   4.661   5.387   4.393  0.2338 -0.2166  0.3563
13848TIP3    H163035   4.695   5.468   4.354  0.1132  0.1414  0.9904
13848TIP3    H263036   4.739   5.335   4.413  0.3657  0.1832  0.8961
13849TIP3   OH263037   5.344   6.605   3.137 -0.0377  0.0900  0.3706
13849TIP3    H163038   5.250   6.594   3.119 -0.0736  2.1795 -1.0989
13849TIP3    H263039   5.348   6.664   3.212  0.0890  0.1945  0.2830
13850TIP3   OH263040   6.515   2.482   4.196 -0.4887 -0.3399  0.5552
13850TIP3    H163041   6.425   2.451   4.187 -0.3034 -0.6713 -0.3606
13850TIP3    H263042   6.541   2.503   4.106 -0.4750  2.1427  1.0820
13851TIP3   OH263043   3.593   3.141   1.099  0.4744  0.1165 -0.4714
13851TIP3    H163044   3.506   3.135   1.138  0.0828  0.5494 -1.2487
13851TIP3    H263045   3.653   3.123   1.171 -0.2221  1.0885  0.3818
13852TIP3   OH263046   5.030   1.303   6.303  0.3314  0.1978 -0.1341
13852TIP3    H163047   5.106   1.255   6.337  0.1421 -0.8861 -1.1710
13852TIP3    H263048   4.988   1.340   6.381  1.9662  0.9339  0.4586
13853TIP3   OH263049   0.921   0.037  16.868  0.1924  0.3215  0.5320
13853TIP3    H163050   0.990  -0.020  16.834 -2.5940 -2.2886 -1.3976
13853TIP3    H263051   0.881   0.075  16.789 -0.8755  1.3454  1.5303
13854TIP3   OH263052   1.637   2.361  13.167 -0.6084 -0.2780 -0.0135
13854TIP3    H163053   1.703   2.311  13.119 -0.5729  0.0595 -0.3219
13854TIP3    H263054   1.554   2.341  13.123 -0.3872  1.1559 -1.1627
13855TIP3   OH263055   0.695   2.716   3.986  0.1208  0.0742  0.5887
13855TIP3    H163056   0.655   2.661   3.918  1.5497 -0.8693  0.4581
13855TIP3    H263057   0.726   2.794   3.938  1.2117 -0.6318  0.1019
13856TIP3   OH263058   0.033   5.968  14.718  0.3479  0.5278  0.3491
13856TIP3    H163059  -0.038   5.968  14.654 -0.1424  2.1660  0.8360
13856TIP3    H263060   0.045   6.060  14.741  2.4305  0.2703  0.5262
13857TIP3   OH263061   2.851   0.293   0.439  0.2802  0.1939 -1.4511
13857TIP3    H163062   2.839   0.287   0.534  0.0702 -2.1893 -1.5684
13857TIP3    H263063   2.762   0.303   0.404  0.4323  2.0625 -1.3899
13858TIP3   OH263064   4.825   3.710   0.634  0.0153  0.1621  0.3181
13858TIP3    H163065   4.783   3.652   0.697 -0.1750 -0.7896 -0.6643
13858TIP3    H263066   4.887   3.654   0.588  0.4946  0.9583 -0.0161
13859TIP3   OH263067   4.313   0.229  12.363  0.0420  0.1611  0.1553
13859TIP3    H163068   4.382   0.169  12.335 -0.5362 -1.1855  1.5192
13859TIP3    H263069   4.255   0.237  12.287  0.4039 -0.5928 -0.2056
13860TIP3   OH263070   4.472   3.239   1.475 -0.2073 -0.0478  0.1956
13860TIP3    H163071   4.560   3.263   1.506 -0.2888 -0.6138  0.8830
13860TIP3    H263072   4.482   3.149   1.444 -0.6289 -0.2312  0.5994
13861TIP3   OH263073   4.466   4.946   2.828 -0.4624 -0.3288  0.8885
13861TIP3    H163074   4.370   4.949   2.824 -0.4760 -1.0828  0.1070
13861TIP3    H263075   4.489   4.873   2.769  0.6661  0.8345 -0.1602
13862TIP3   OH263076   5.148   4.726  11.795 -0.1429 -0.3253 -0.4645
13862TIP3    H163077   5.136   4.810  11.751  0.2345 -0.0314 -0.0078
13862TIP3    H263078   5.241   4.707  11.785 -0.3013 -0.8884 -0.9178
13863TIP3   OH263079   0.111   5.834   2.115  0.1525 -0.3731  0.0723
13863TIP3    H163080   0.140   5.925   2.123  1.4910 -0.7460 -0.1327
13863TIP3    H263081   0.016   5.839   2.114  0.1993  1.0879 -0.6254
13864TIP3   OH263082   5.965   6.181   3.198 -0.5388 -1.0924  0.2182
13864TIP3    H163083   6.026   6.161   3.128  0.1332 -0.0708  0.5012
13864TIP3    H263084   5.892   6.227   3.155 -0.3961 -0.9755  0.1023
13865TIP3   OH263085   4.115   0.281  16.177 -0.1156 -0.7597  0.0766
13865TIP3    H163086   4.141   0.249  16.091  0.6017 -1.7277  0.6278
13865TIP3    H263087   4.022   0.300  16.169 -0.2169 -1.5491 -0.7068
13866TIP3   OH263088   5.794   1.090  15.885  0.1696 -0.6660  0.4482
13866TIP3    H163089   5.715   1.081  15.831 -0.5327  0.0116  1.3409
13866TIP3    H263090   5.838   1.005  15.878  0.8159 -0.1904 -2.2568
13867TIP3   OH263091   5.776   3.908   5.649 -0.4361  0.2733 -0.3946
13867TIP3    H163092   5.808   3.973   5.587 -3.4177  0.8029 -1.5204
13867TIP3    H263093   5.734   3.960   5.718  2.7562 -0.2926  2.2629
13868TIP3   OH263094   1.413   5.257  10.392  0.0198  0.1896  0.1250
13868TIP3    H163095   1.338   5.316  10.389 -1.5939 -1.7746 -1.0799
13868TIP3    H263096   1.468   5.285  10.319 -0.4485  0.5245 -0.1051
13869TIP3   OH263097   0.526   0.564  13.435 -0.1046 -0.1469  0.1510
13869TIP3    H163098   0.586   0.588  13.505  1.3641 -2.9531  0.0020
13869TIP3    H263099   0.582   0.556  13.357 -0.8365 -1.6474 -0.2562
13870TIP3   OH263100   0.955   2.363  14.849  0.9907  0.0709 -0.2936
13870TIP3    H163101   1.037   2.353  14.898 -0.0856 -0.8116  1.4487
13870TIP3    H263102   0.936   2.457  14.852  1.1423  0.0764  0.7006
13871TIP3   OH263103   0.169   5.402  13.082 -0.1362 -0.4608  0.1062
13871TIP3    H163104   0.122   5.318  13.079 -0.6206 -0.3257  2.3368
13871TIP3    H263105   0.118   5.460  13.026 -0.4427 -1.3343 -0.5448
13872TIP3   OH263106   3.568   2.385   4.106 -0.0135  0.1096  0.1526
13872TIP3    H163107   3.521   2.311   4.068  0.8784  0.2768 -1.3769
13872TIP3    H263108   3.501   2.452   4.120 -0.2379  0.5389 -2.4948
13873TIP3   OH263109   6.116   6.591   1.983 -0.1776 -0.2604  0.6639
13873TIP3    H163110   6.094   6.663   2.042  1.4196  1.1102 -0.3272
13873TIP3    H263111   6.034   6.567   1.942 -1.0175 -0.1108  2.1766
13874TIP3   OH263112   5.757   0.810   6.067  0.4736  0.9774 -0.4135
13874TIP3    H163113   5.838   0.861   6.060 -0.2263  2.1181 -0.4016
13874TIP3    H263114   5.760   0.772   6.155  1.1648  0.6998 -0.5499
13875TIP3   OH263115   5.384   3.505  16.810 -0.4928  0.1016 -0.2904
13875TIP3    H163116   5.298   3.465  16.820 -0.6805  0.2261 -1.2861
13875TIP3    H263117   5.444   3.431  16.802 -0.3496 -0.0057  1.3596
13876TIP3   OH263118   1.736   2.794  12.647  0.0107  0.3541 -0.0563
13876TIP3    H163119   1.743   2.728  12.578  0.3454 -0.1060  0.4001
13876TIP3    H263120   1.824   2.800  12.684 -0.7201 -1.8190  2.4544
13877TIP3   OH263121   1.640   3.696   4.418  0.2240 -0.2445 -0.3473
13877TIP3    H163122   1.680   3.654   4.494 -1.3242  0.2844  0.8168
13877TIP3    H263123   1.699   3.768   4.396  1.2616 -1.0738 -0.3776
13878TIP3   OH263124   6.173   3.354   5.171 -0.2402  0.4080  0.0612
13878TIP3    H163125   6.123   3.426   5.210 -1.6031  0.1513 -1.1493
13878TIP3    H263126   6.106   3.295   5.136  0.8977 -0.6683 -0.3517
13879TIP3   OH263127   0.754   2.822  17.132 -0.2649 -0.0608 -0.1822
13879TIP3    H163128   0.743   2.909  17.169 -0.5379  0.2194 -0.9056
13879TIP3    H263129   0.723   2.762  17.200 -0.5787  0.4305  0.1077
13880TIP3   OH263130   2.512   4.339   3.674 -0.0084 -0.1315 -0.7158
13880TIP3    H163131   2.458   4.303   3.744  1.0982 -1.1388 -0.3629
13880TIP3    H263132   2.448   4.374   3.611 -1.0169  1.0841  0.8993
13881TIP3   OH263133   5.790   5.874   4.989 -0.3880  0.2554 -0.0071
13881TIP3    H163134   5.821   5.865   4.899 -0.2896  0.7298 -0.0241
13881TIP3    H263135   5.785   5.969   5.003 -0.4517  0.1833  0.4705
13882TIP3   OH263136   5.694   2.191  12.126  0.3837  0.7753 -0.1498
13882TIP3    H163137   5.719   2.107  12.088  2.7031  0.7322  1.2263
13882TIP3    H263138   5.701   2.254  12.054 -0.9180 -0.1021 -1.0757
13883TIP3   OH263139   3.607   2.479  17.084  0.0589  0.6047  0.0406
13883TIP3    H163140   3.649   2.557  17.047  0.1100  0.7085  0.3172
13883TIP3    H263141   3.674   2.412  17.081 -0.2183  0.3507 -0.9174
13884TIP3   OH263142   1.769   3.924   3.513 -0.1212  0.0202 -0.2894
13884TIP3    H163143   1.822   4.003   3.503 -1.1812  0.8022  0.1372
13884TIP3    H263144   1.786   3.873   3.434  0.5788  0.6685 -0.5632
13885TIP3   OH263145   4.398   4.210  13.884 -0.4408  0.3450  0.8403
13885TIP3    H163146   4.426   4.301  13.895 -1.8453  0.7534  1.1230
13885TIP3    H263147   4.303   4.213  13.890 -0.5318 -1.0835  0.3561
13886TIP3   OH263148   5.323   4.638  12.884  0.1563 -0.1005  0.0172
13886TIP3    H163149   5.400   4.618  12.936  0.5928  1.3426 -0.0499
13886TIP3    H263150   5.285   4.716  12.924 -1.3753 -0.8697  0.1527
13887TIP3   OH263151   0.097   3.572  14.857 -0.0409  0.0755  0.2963
13887TIP3    H163152   0.163   3.622  14.809  1.7168 -1.7835  0.6061
13887TIP3    H263153   0.148   3.516  14.916 -2.0302  0.3707  2.4152
13888TIP3   OH263154   4.598   5.974  11.182  0.2918 -0.6063 -0.5862
13888TIP3    H163155   4.517   6.025  11.176  0.1881 -0.5485  0.8680
13888TIP3    H263156   4.580   5.893  11.133 -0.8639 -0.8374  0.1844
13889TIP3   OH263157   0.085   6.175  12.497 -0.7113 -0.4319  0.4317
13889TIP3    H163158   0.038   6.109  12.446 -0.2610  0.8791 -1.8391
13889TIP3    H263159   0.017   6.219  12.548 -1.7150  0.1811 -1.3507
13890TIP3   OH263160   6.539   5.421   2.761 -0.1323 -0.4511  0.3240
13890TIP3    H163161   6.457   5.402   2.716 -0.6594  1.9502  0.1486
13890TIP3    H263162   6.534   5.514   2.782  2.1734 -0.4404  1.1063
13891TIP3   OH263163   0.097   1.816  17.251 -0.6843  0.5168 -0.0037
13891TIP3    H163164   0.079   1.875  17.177  2.4415 -0.5186 -1.7942
13891TIP3    H263165   0.169   1.858  17.297  0.1923 -0.8654 -0.0815
13892TIP3   OH263166   6.369   3.686  14.325  0.5484  0.2834 -0.3093
13892TIP3    H163167   6.414   3.629  14.387  1.4196  2.2151  0.9546
13892TIP3    H263168   6.438   3.719  14.268  0.6771  2.5019  1.0176
13893TIP3   OH263169   1.574   4.344  13.858  0.4235 -0.0067  0.6521
13893TIP3    H163170   1.533   4.281  13.798  3.7439 -0.6774 -1.1484
13893TIP3    H263171   1.532   4.428  13.837 -0.6684 -0.7844 -0.4126
13894TIP3   OH263172   5.228   1.397  13.028 -0.2210 -0.3665  0.0166
13894TIP3    H163173   5.169   1.365  13.096  0.1962  0.3607  0.7386
13894TIP3    H263174   5.194   1.483  13.005  0.4980  0.0294  0.3896
13895TIP3   OH263175   5.230   1.677   5.530 -0.0305  0.1094  0.1551
13895TIP3    H163176   5.144   1.710   5.555  1.0739  1.0351  3.3107
13895TIP3    H263177   5.285   1.755   5.524  0.6812 -0.4702 -1.6611
13896TIP3   OH263178   5.563   0.765   3.013 -0.8364 -0.0510 -0.3558
13896TIP3    H163179   5.483   0.818   3.021  0.5054  2.2074 -1.1051
13896TIP3    H263180   5.581   0.736   3.102 -0.8647  1.9765  0.3670
13897TIP3   OH263181   0.200   0.541  12.960  0.0954  0.2362 -0.3359
13897TIP3    H163182   0.144   0.603  12.913 -0.5037  2.2731  2.7707
13897TIP3    H263183   0.271   0.594  12.994  0.5576 -1.1297  0.9235
13898TIP3   OH263184   3.254   5.872  16.533  0.2086  0.0741 -0.4623
13898TIP3    H163185   3.254   5.783  16.499  0.9917  0.4364 -1.4654
13898TIP3    H263186   3.331   5.875  16.591 -0.8386 -0.3964  1.0232
13899TIP3   OH263187   1.768   3.079   2.513 -0.0516 -0.3397  0.1963
13899TIP3    H163188   1.764   3.082   2.418 -1.7007 -0.5809  0.2330
13899TIP3    H263189   1.680   3.101   2.542  0.2745 -0.8242  1.6574
13900TIP3   OH263190   6.327   4.037   3.441  0.2019  0.2825 -0.1979
13900TIP3    H163191   6.232   4.037   3.441  0.1626 -1.6020 -0.6414
13900TIP3    H263192   6.352   4.031   3.533 -0.1220 -0.1535 -0.1395
13901TIP3   OH263193   4.289   6.780   5.173 -0.1146 -0.6403 -0.1999
13901TIP3    H163194   4.220   6.768   5.239  0.9106 -0.9222  0.8609
13901TIP3    H263195   4.261   6.725   5.100 -1.5492  0.0967 -0.2357
13902TIP3   OH263196   3.004   2.319   1.511 -0.2555 -0.3221  0.3384
13902TIP3    H163197   3.087   2.288   1.547  0.7924  0.6935 -1.0692
13902TIP3    H263198   2.994   2.271   1.429 -2.3746 -2.2728  1.6023
13903TIP3   OH263199   3.983   5.629  12.084 -0.2305  0.4626  0.1088
13903TIP3    H163200   3.891   5.608  12.068 -0.1810 -0.3253  0.7776
13903TIP3    H263201   4.030   5.550  12.057  0.1709  0.5568  0.5232
13904TIP3   OH263202   6.335   2.445  15.430  0.0556 -0.3803 -0.0825
13904TIP3    H163203   6.288   2.528  15.426  1.8060  0.6183 -0.9800
13904TIP3    H263204   6.413   2.458  15.376 -0.3130 -3.0812 -1.4463
13905TIP3   OH263205   1.932   5.561  15.278  0.1862  1.1100  0.0925
13905TIP3    H163206   2.019   5.522  15.267  0.0068  0.3317  1.1749
13905TIP3    H263207   1.930   5.635  15.218  1.0012  0.1737 -1.1256
13906TIP3   OH263208   3.758   1.783  16.629  0.6042 -0.1047  0.1585
13906TIP3    H163209   3.853   1.798  16.629  0.5039  1.0599  2.5607
13906TIP3    H263210   3.727   1.824  16.709 -1.6542 -2.3701  0.6028
13907TIP3   OH263211   5.987   6.580   3.639 -0.1887 -0.6599 -0.2552
13907TIP3    H163212   6.067   6.548   3.597  1.2482 -0.0826  1.8328
13907TIP3    H263213   5.969   6.516   3.709  1.3630  1.5742  2.4280
13908TIP3   OH263214   4.202   4.595   3.138  0.5220  0.3704  0.9773
13908TIP3    H163215   4.291   4.615   3.108 -0.0848  1.6877 -0.0387
13908TIP3    H263216   4.169   4.532   3.074  0.3917  0.6118  0.8074
13909TIP3   OH263217   1.970   2.866  12.177 -0.2375  0.3564 -0.1070
13909TIP3    H163218   1.896   2.915  12.142  0.5576  1.6473 -0.0635
13909TIP3    H263219   2.039   2.877  12.111 -0.3173 -1.4943 -0.5306
13910TIP3   OH263220   3.107   1.936  13.413 -0.3514 -0.3903 -0.4908
13910TIP3    H163221   3.084   1.909  13.502  0.2119  1.3486  0.2437
13910TIP3    H263222   3.062   1.874  13.356 -1.3566 -1.0865  0.9934
13911TIP3   OH263223   3.744   3.089   1.359 -0.3539 -0.1585  0.1061
13911TIP3    H163224   3.781   3.094   1.447 -0.7260  1.0648  0.2092
13911TIP3    H263225   3.658   3.049   1.371 -0.4638  0.1375  0.3236
13912TIP3   OH263226   1.921   2.287   1.086 -0.3747 -0.0724 -0.2062
13912TIP3    H163227   1.830   2.263   1.103 -1.3971  1.7846 -2.5216
13912TIP3    H263228   1.964   2.205   1.062 -1.2815 -1.0479  1.3573
13913TIP3   OH263229   5.319   1.236   2.689  0.9045 -0.0705 -0.3484
13913TIP3    H163230   5.382   1.307   2.684  0.4890  0.3671  0.4492
13913TIP3    H263231   5.234   1.276   2.670  0.6901 -0.3799 -0.0735
13914TIP3   OH263232   2.876   1.731  10.439 -0.0702  0.3520  0.0175
13914TIP3    H163233   2.847   1.819  10.417  0.7063  0.5137 -0.3681
13914TIP3    H263234   2.971   1.734  10.433  0.0175 -0.2954  0.8159
13915TIP3   OH263235   5.937   6.190  11.490  0.0322  0.0413 -0.0716
13915TIP3    H163236   5.998   6.116  11.479  1.2003  1.0816 -0.8810
13915TIP3    H263237   5.852   6.149  11.503  0.4924 -1.4635 -1.4427
13916TIP3   OH263238   2.279   2.401   4.894 -0.2096 -0.3473 -0.5003
13916TIP3    H163239   2.279   2.373   4.986  0.2555 -0.6441 -0.5874
13916TIP3    H263240   2.344   2.471   4.890  0.9411 -1.4071 -0.9104
13917TIP3   OH263241   5.231   4.209  13.989  0.1309  0.3036 -0.2423
13917TIP3    H163242   5.325   4.218  14.006  0.2688 -2.0482  0.5847
13917TIP3    H263243   5.193   4.291  14.021  1.7259  0.6409  0.9240
13918TIP3   OH263244   2.356   4.110   1.354 -0.0448  0.1428  0.0998
13918TIP3    H163245   2.403   4.193   1.352 -0.4719  0.3764 -0.9145
13918TIP3    H263246   2.310   4.110   1.438  2.1126 -0.3167  1.3544
13919TIP3   OH263247   2.395   3.881  12.652 -0.2019  0.3016  0.2973
13919TIP3    H163248   2.336   3.813  12.683  0.2518 -0.2206  0.0422
13919TIP3    H263249   2.347   3.923  12.580 -0.4491  0.1920  0.3980
13920TIP3   OH263250   5.270   6.226  16.624 -0.4406  0.1009 -0.1085
13920TIP3    H163251   5.324   6.203  16.548  0.9594 -0.9772  1.1470
13920TIP3    H263252   5.320   6.294  16.669 -0.7745  0.0235  0.3831
13921TIP3   OH263253   1.537   0.027   4.227  0.8091 -0.4512  0.2176
13921TIP3    H163254   1.612  -0.020   4.190  2.2618  0.7860  1.4310
13921TIP3    H263255   1.576   0.090   4.288 -0.9945  2.5270 -1.4709
13922TIP3   OH263256   4.206   5.582  10.522 -0.4854  0.2262  0.0022
13922TIP3    H163257   4.194   5.665  10.566 -1.2651 -0.6375  1.4946
13922TIP3    H263258   4.118   5.546  10.513 -0.0089 -1.3895  1.3451
13923TIP3   OH263259   0.536   4.000  16.969 -0.1025 -0.1103 -0.4778
13923TIP3    H163260   0.551   4.071  16.907 -0.8928  1.8589  1.4717
13923TIP3    H263261   0.450   4.019  17.007  0.1721 -1.4785  0.9155
13924TIP3   OH263262   4.245   1.878  15.248 -0.3501  0.2627  0.3850
13924TIP3    H163263   4.328   1.875  15.296 -1.0472  0.8357  1.6850
13924TIP3    H263264   4.205   1.793  15.264  0.1877 -0.2031 -0.6578
13925TIP3   OH263265   5.041   1.452   3.312 -0.7271 -0.7174  0.4111
13925TIP3    H163266   5.002   1.425   3.230 -1.6874  1.2111  0.1884
13925TIP3    H263267   4.988   1.409   3.379 -2.0892  0.3425  0.0648
13926TIP3   OH263268   5.426   6.497  13.366  0.8887  0.5716  0.0559
13926TIP3    H163269   5.414   6.512  13.272  1.2625  1.5503  0.1534
13926TIP3    H263270   5.470   6.411  13.371  0.2990  0.2204 -0.6218
13927TIP3   OH263271   1.789   2.550   4.053  0.0884  0.0072  0.1967
13927TIP3    H163272   1.829   2.464   4.066  0.2941 -0.2293 -1.6661
13927TIP3    H263273   1.839   2.589   3.982 -1.2906  0.8140 -0.3841
13928TIP3   OH263274   2.943   0.575  12.222 -0.5553  0.1498 -0.2992
13928TIP3    H163275   2.850   0.553  12.218  0.0447 -3.1114  0.6395
13928TIP3    H263276   2.975   0.530  12.300  2.1932 -0.5735 -1.7304
13929TIP3   OH263277   0.105   4.910  11.269  0.6158  0.4321  0.5043
13929TIP3    H163278   0.088   4.842  11.204  1.2618  0.5536  0.1992
13929TIP3    H263279   0.131   4.986  11.217  0.4568  0.7363  0.8724
13930TIP3   OH263280   2.533   4.501   6.217 -0.6775  0.0637  0.3768
13930TIP3    H163281   2.520   4.496   6.122 -0.4701 -0.8348  0.3840
13930TIP3    H263282   2.513   4.412   6.248  2.5172 -0.6245  0.7683
13931TIP3   OH263283   5.697   4.734  13.830 -0.3467 -0.2083  0.1285
13931TIP3    H163284   5.752   4.741  13.752 -0.1589 -1.1847  0.1574
13931TIP3    H263285   5.741   4.788  13.896 -0.3525  0.3877 -0.3531
13932TIP3   OH263286   1.838   4.764  11.024 -0.8840  0.0512  0.6150
13932TIP3    H163287   1.781   4.833  10.988  0.2441  0.8589  0.3271
13932TIP3    H263288   1.795   4.683  10.998 -1.1020  0.6264 -0.9970
13933TIP3   OH263289   2.714   2.006  13.586 -0.0134  0.2704 -0.2889
13933TIP3    H163290   2.651   1.950  13.632 -1.1803 -0.1944 -2.3116
13933TIP3    H263291   2.783   1.946  13.558  0.2649  0.4054  0.0916
13934TIP3   OH263292   3.728   1.188   1.417 -0.1289  0.1903 -0.3418
13934TIP3    H163293   3.800   1.141   1.458 -0.3160 -0.2334 -0.4908
13934TIP3    H263294   3.766   1.272   1.390  0.1048  0.2926  0.2901
13935TIP3   OH263295   2.049   2.700  16.724 -0.3093  0.4642 -0.1604
13935TIP3    H163296   2.021   2.648  16.799 -2.0526  2.4520  0.6756
13935TIP3    H263297   1.980   2.766  16.714  0.9216  1.5381 -2.2290
13936TIP3   OH263298   6.714   4.022   3.704 -0.5217  0.3682  0.1975
13936TIP3    H163299   6.708   3.976   3.788  0.1413 -0.1717 -0.0370
13936TIP3    H263300   6.729   3.952   3.640 -1.3680  0.7370 -0.4274
13937TIP3   OH263301   5.667   0.921  16.550  0.4140  0.1299 -0.1319
13937TIP3    H163302   5.697   0.899  16.462 -0.6002 -0.5775 -0.3231
13937TIP3    H263303   5.584   0.966  16.537  0.8167  1.0522  0.4205
13938TIP3   OH263304   0.371   4.219  14.901 -0.0118 -0.2061  0.3437
13938TIP3    H163305   0.377   4.295  14.843  1.3528  0.0378  0.7648
13938TIP3    H263306   0.340   4.149  14.845  0.6838  0.1785 -0.5603
13939TIP3   OH263307   5.787   4.615  14.432  0.1562 -0.0774  0.1571
13939TIP3    H163308   5.818   4.527  14.413  1.9947  0.0660  2.0937
13939TIP3    H263309   5.706   4.603  14.482  0.4737 -0.6980  0.5332
13940TIP3   OH263310   5.996   3.727   1.019  0.0592  0.6361  0.1999
13940TIP3    H163311   6.007   3.821   1.033 -1.4004  0.8791 -0.1635
13940TIP3    H263312   5.926   3.701   1.079 -0.6343  0.0959 -0.8223
13941TIP3   OH263313   3.166   6.473  12.070 -0.0071 -0.2484  0.4361
13941TIP3    H163314   3.097   6.504  12.012 -0.0709  1.5090  1.3993
13941TIP3    H263315   3.214   6.551  12.097  2.7222 -1.4271 -0.5662
13942TIP3   OH263316   4.696   0.523  15.510  0.1582 -0.3026  0.3262
13942TIP3    H163317   4.640   0.600  15.518  0.5863 -0.0435  0.9452
13942TIP3    H263318   4.655   0.458  15.566  0.6363 -0.0009  1.0570
13943TIP3   OH263319   0.487   1.704  16.299 -0.0186 -0.2915  0.7915
13943TIP3    H163320   0.414   1.652  16.333 -1.7754  0.8215 -1.0334
13943TIP3    H263321   0.536   1.644  16.243 -1.4420 -0.3029 -0.4978
13944TIP3   OH263322   5.407   0.500  16.042 -0.4189 -0.1160  0.8597
13944TIP3    H163323   5.409   0.420  16.095 -0.9334  1.2305  3.0371
13944TIP3    H263324   5.410   0.571  16.106 -0.9184  1.6236 -0.9612
13945TIP3   OH263325   0.455   1.890   0.006 -0.5703  0.6121  0.0520
13945TIP3    H163326   0.530   1.945   0.029 -0.5957  1.8502 -2.4125
13945TIP3    H263327   0.398   1.948  -0.045 -1.6672 -1.1233 -0.7963
13946TIP3   OH263328   0.690   1.261  14.600  0.0614 -0.1631  0.0614
13946TIP3    H163329   0.766   1.288  14.548 -0.7696 -0.5851 -1.4265
13946TIP3    H263330   0.638   1.206  14.541 -0.9307 -0.6802  1.3494
13947TIP3   OH263331   1.316   6.407  13.217  0.3879 -0.2235 -0.3519
13947TIP3    H163332   1.271   6.462  13.153 -0.9663 -1.2170 -0.2925
13947TIP3    H263333   1.301   6.317  13.186  0.1651 -0.6885  1.0494
13948TIP3   OH263334   3.246   4.583  10.772  0.6803  0.6411  0.0426
13948TIP3    H163335   3.294   4.621  10.698  0.6879  1.8072  0.6242
13948TIP3    H263336   3.249   4.488  10.757 -1.4134  0.8736 -2.7926
13949TIP3   OH263337   3.517   5.828   2.312  0.7249 -0.0409 -0.2099
13949TIP3    H163338   3.444   5.809   2.253 -0.4161 -2.4710  1.7676
13949TIP3    H263339   3.482   5.893   2.374 -0.4122 -2.2058  1.5835
13950TIP3   OH263340   2.898   4.488   0.945 -0.5288  0.7284 -0.4022
13950TIP3    H163341   2.917   4.522   0.858 -0.5577 -0.9555 -1.1147
13950TIP3    H263342   2.838   4.415   0.930 -0.0709  0.0239  0.9599
13951TIP3   OH263343   5.689   6.770   1.551 -0.6332  0.2212  0.6814
13951TIP3    H163344   5.699   6.675   1.540 -2.2869  0.0757  0.0733
13951TIP3    H263345   5.778   6.802   1.566  0.7696 -0.8326 -3.8477
13952TIP3   OH263346   2.184   1.060  16.799 -0.0721 -0.1527 -0.5205
13952TIP3    H163347   2.122   1.046  16.871  0.8576 -0.8284  0.1650
13952TIP3    H263348   2.187   0.976  16.754 -0.3689  0.1619 -1.1546
13953TIP3   OH263349   5.297   6.589   1.849  0.1698  0.3093  0.0897
13953TIP3    H163350   5.249   6.520   1.896  0.3565  0.9051  1.2030
13953TIP3    H263351   5.231   6.628   1.791 -0.1715 -0.2013  0.1249
13954TIP3   OH263352   2.327   4.736  14.199 -0.3292  0.5324 -0.5344
13954TIP3    H163353   2.363   4.825  14.201  0.4643  0.2680 -1.8929
13954TIP3    H263354   2.234   4.750  14.181 -0.3351  1.1088 -0.1059
13955TIP3   OH263355   4.214   4.102   3.321  0.2988 -0.6171  0.0281
13955TIP3    H163356   4.287   4.050   3.354  0.7401  0.9662  1.7011
13955TIP3    H263357   4.161   4.040   3.270  2.2918 -2.0144 -0.4761
13956TIP3   OH263358   4.315   2.476  13.938  0.2332 -0.1822  0.6848
13956TIP3    H163359   4.291   2.415  13.869 -2.6683 -0.2374  1.5987
13956TIP3    H263360   4.281   2.561  13.908  1.3627  0.3534  0.8608
13957TIP3   OH263361   0.800   5.763  15.523 -0.3815  0.1909  0.1146
13957TIP3    H163362   0.869   5.714  15.479  1.1637  0.8903  1.6355
13957TIP3    H263363   0.722   5.747  15.471  0.8154 -1.0353 -1.3927
13958TIP3   OH263364   4.083   4.513  12.084  0.1581  0.1024 -0.3622
13958TIP3    H163365   4.021   4.585  12.073 -0.4450 -0.1352  1.3090
13958TIP3    H263366   4.136   4.538  12.160  0.1349 -1.0786  0.0605
13959TIP3   OH263367   6.362   1.675   2.955  0.0537  0.2668 -0.0156
13959TIP3    H163368   6.340   1.768   2.955 -0.6441  0.1082  0.1830
13959TIP3    H263369   6.313   1.638   2.882 -0.8407 -0.1947  0.7812
13960TIP3   OH263370   0.580   5.157  12.970 -0.4881  0.6349 -0.6551
13960TIP3    H163371   0.497   5.111  12.981 -0.2213 -0.2372 -1.9991
13960TIP3    H263372   0.557   5.249  12.968 -1.2033  0.5146  0.6948
13961TIP3   OH263373   2.487   3.311  14.784  0.3375  0.0431  0.0551
13961TIP3    H163374   2.500   3.301  14.689 -0.4946 -0.3401 -0.0265
13961TIP3    H263375   2.505   3.404  14.800  0.9181  0.0184 -0.3973
13962TIP3   OH263376   6.184   4.901  17.290 -0.1119  0.6417  0.3507
13962TIP3    H163377   6.252   4.842  17.323  0.2694  0.4931 -0.6404
13962TIP3    H263378   6.115   4.843  17.259  1.2176  0.5024 -2.7265
13963TIP3   OH263379   2.180   5.599  16.430  0.7252 -0.2524 -1.0200
13963TIP3    H163380   2.203   5.691  16.443  2.5716 -0.7927 -0.0825
13963TIP3    H263381   2.095   5.601  16.386  0.5324  1.8834 -0.6410
13964TIP3   OH263382   1.914   1.623  12.350 -0.1882 -0.3308 -0.2015
13964TIP3    H163383   1.981   1.591  12.290 -0.4108 -3.2845  0.9634
13964TIP3    H263384   1.841   1.648  12.293 -0.7008 -3.7942 -1.2479
13965TIP3   OH263385   0.844   0.064   0.196 -0.3585 -0.4871 -0.0057
13965TIP3    H163386   0.852   0.090   0.288  0.1886  2.0688 -0.6897
13965TIP3    H263387   0.833  -0.031   0.199  0.9093 -0.6468  2.6180
13966TIP3   OH263388   0.905   1.718   1.278  0.4063 -0.3634  0.2652
13966TIP3    H163389   0.965   1.643   1.267  0.2204 -0.4729 -0.0052
13966TIP3    H263390   0.870   1.707   1.366  0.6629 -0.3904  0.3652
13967TIP3   OH263391   5.482   3.179   5.348 -0.3280 -0.5900 -0.8981
13967TIP3    H163392   5.562   3.170   5.297  0.4684  3.0456 -0.5576
13967TIP3    H263393   5.487   3.110   5.414  1.0895 -2.1822 -2.5673
13968TIP3   OH263394   1.740   1.664   2.205  0.8312 -0.2794 -0.1896
13968TIP3    H163395   1.797   1.588   2.193 -1.6061 -1.9388 -1.9158
13968TIP3    H263396   1.760   1.720   2.130  1.2307 -0.1199  0.0295
13969TIP3   OH263397   5.160   2.665   5.901  0.4386  0.0833  0.9231
13969TIP3    H163398   5.214   2.645   5.824 -0.1883 -0.5517  0.6366
13969TIP3    H263399   5.207   2.625   5.974  1.1598  0.8916  0.9115
13970TIP3   OH263400   3.213   1.509   2.246 -0.5479  0.2855  0.5594
13970TIP3    H163401   3.155   1.480   2.176 -1.0340 -0.2826  1.1863
13970TIP3    H263402   3.278   1.564   2.202 -1.3024  0.5763 -0.2140
13971TIP3   OH263403   0.132   5.559   4.144 -0.6411 -0.5674 -0.1007
13971TIP3    H163404   0.101   5.645   4.171 -0.9279  0.0627 -2.2277
13971TIP3    H263405   0.175   5.523   4.222 -0.8612  1.3205  0.9481
13972TIP3   OH263406   3.516   1.002  14.904 -0.5118 -0.0707  0.3336
13972TIP3    H163407   3.498   0.920  14.951 -1.8835  0.9823  1.7592
13972TIP3    H263408   3.429   1.039  14.888  0.1271  1.8839  1.1603
13973TIP3   OH263409   0.125   3.323  13.723 -0.3035 -1.0295 -0.4080
13973TIP3    H163410   0.135   3.256  13.791 -0.0353  0.9993  1.6500
13973TIP3    H263411   0.214   3.355  13.708 -0.3688 -1.3967 -1.7101
13974TIP3   OH263412   5.071   0.321   1.789 -0.7568  0.3326  0.0909
13974TIP3    H163413   5.080   0.248   1.728 -0.4782  0.3520  0.1057
13974TIP3    H263414   5.072   0.279   1.876 -1.3270  0.2899  0.0747
13975TIP3   OH263415   5.680   2.602   2.097  0.1236 -0.1241  0.2941
13975TIP3    H163416   5.689   2.608   2.002  0.8376  0.3476  0.3869
13975TIP3    H263417   5.616   2.670   2.119  0.9199  0.6417  0.2850
13976TIP3   OH263418   3.682   3.464  15.185  0.4952  0.0759  0.9444
13976TIP3    H163419   3.744   3.391  15.183  0.9548  0.4681  0.0251
13976TIP3    H263420   3.705   3.513  15.264  1.3739  0.2229  0.6084
13977TIP3   OH263421   0.671   4.686   1.576  0.2964  0.6858  0.0604
13977TIP3    H163422   0.627   4.641   1.648  1.4054  0.8368  0.8613
13977TIP3    H263423   0.610   4.756   1.551  0.7645  1.9975  2.2957
13978TIP3   OH263424   1.708   1.654  14.324  0.1824  0.5701  0.5032
13978TIP3    H163425   1.729   1.742  14.357  0.6078  0.9154 -0.6158
13978TIP3    H263426   1.614   1.645  14.337 -0.2450  2.0366 -1.2019
13979TIP3   OH263427   3.879   4.647   0.244 -0.2831 -0.4286 -0.4775
13979TIP3    H163428   3.871   4.712   0.175 -1.7910  0.0213  0.0960
13979TIP3    H263429   3.970   4.653   0.273  0.5305 -0.9962 -2.7477
13980TIP3   OH263430   5.285   2.828   5.540  0.0135 -0.2920  0.1503
13980TIP3    H163431   5.235   2.882   5.601  0.5950  0.6780 -0.2058
13980TIP3    H263432   5.291   2.743   5.582 -1.8234 -0.4195  0.2695
13981TIP3   OH263433   4.548   0.016   5.407 -0.1656 -0.5174  0.7310
13981TIP3    H163434   4.537   0.063   5.325 -0.2033  0.9054  1.5066
13981TIP3    H263435   4.501  -0.066   5.395  0.5638 -0.7199 -0.9493
13982TIP3   OH263436   5.315   3.028   2.543 -0.5632 -0.3122  0.2626
13982TIP3    H163437   5.318   3.100   2.480 -1.5317 -0.9417 -0.5369
13982TIP3    H263438   5.266   2.959   2.498 -1.7233 -0.6027  1.8826
13983TIP3   OH263439   1.571   0.628  15.237 -0.5811 -0.1098 -0.9142
13983TIP3    H163440   1.635   0.596  15.301 -0.3692 -1.1890 -1.6321
13983TIP3    H263441   1.527   0.701  15.281  0.7552  0.3069 -0.1894
13984TIP3   OH263442   0.366   0.093   6.153  0.2504  0.1036 -0.3370
13984TIP3    H163443   0.328   0.143   6.225 -1.0561 -0.9513 -0.2528
13984TIP3    H263444   0.386   0.007   6.191 -1.7866 -0.9658 -1.4928
13985TIP3   OH263445   1.053   2.013  13.538 -0.1052  0.2742  0.1314
13985TIP3    H163446   1.145   2.033  13.519  0.5001 -2.1193  0.1348
13985TIP3    H263447   1.057   1.956  13.615 -1.3010 -2.1519 -1.4610
13986TIP3   OH263448   0.401   3.955   1.670 -0.0067  0.1807  0.1503
13986TIP3    H163449   0.372   3.912   1.751  1.6868 -1.2420  0.0673
13986TIP3    H263450   0.325   4.007   1.642 -0.8565  0.2053  2.2874
13987TIP3   OH263451   2.611   4.520   5.387  0.1431 -0.3629  0.1834
13987TIP3    H163452   2.546   4.515   5.317 -0.4142 -0.4897  0.6983
13987TIP3    H263453   2.691   4.548   5.344 -0.1934 -0.4455 -0.5046
13988TIP3   OH263454   2.153   2.716  13.200 -0.6775  0.2887  0.7154
13988TIP3    H163455   2.219   2.778  13.232 -0.9690  0.7196  0.4982
13988TIP3    H263456   2.075   2.771  13.185 -0.7821 -0.0449  0.0227
13989TIP3   OH263457   6.214   6.281  13.844 -0.3228  0.2980  0.4727
13989TIP3    H163458   6.205   6.238  13.759 -2.5603  0.1710  0.7043
13989TIP3    H263459   6.265   6.220  13.897  1.1859  0.4253 -0.7742
13990TIP3   OH263460   6.259   5.688  17.049  0.0325 -0.0179 -0.0233
13990TIP3    H163461   6.203   5.766  17.044 -0.3666 -0.3180 -0.3074
13990TIP3    H263462   6.250   5.648  16.963 -0.3247 -0.7631  0.3556
13991TIP3   OH263463   1.124   2.830   5.058 -0.2591 -0.5417 -0.4338
13991TIP3    H163464   1.101   2.737   5.052  0.3383 -0.8724  1.5655
13991TIP3    H263465   1.101   2.866   4.973 -1.4987 -2.3040 -0.9081
13992TIP3   OH263466   2.934   3.964  14.639 -0.1336 -0.0306  0.0342
13992TIP3    H163467   2.886   3.909  14.577  0.5306 -0.9117  0.2704
13992TIP3    H263468   2.922   4.053  14.606 -2.3654 -0.1391  0.4013
13993TIP3   OH263469   0.799   4.613   5.551 -0.0065  0.0625  0.3999
13993TIP3    H163470   0.881   4.570   5.573  0.0140  0.8622  2.0175
13993TIP3    H263471   0.745   4.605   5.630 -1.7543 -0.9792 -0.8019
13994TIP3   OH263472   2.008   0.502  16.663  0.6934  0.4352  0.4401
13994TIP3    H163473   2.015   0.597  16.659  1.8746  0.3381 -0.8053
13994TIP3    H263474   2.082   0.470  16.610 -1.3359 -1.1177 -1.7211
13995TIP3   OH263475   3.930   3.944   1.330 -0.2524  0.1038  0.1430
13995TIP3    H163476   4.016   3.979   1.355 -0.0874 -0.7057  0.7236
13995TIP3    H263477   3.871   4.020   1.336  0.4219  0.6813 -0.3217
13996TIP3   OH263478   2.434   5.678   5.464 -0.1701  0.1637  0.3744
13996TIP3    H163479   2.416   5.597   5.511 -0.3563  0.7199  1.3147
13996TIP3    H263480   2.400   5.747   5.522 -0.2968  0.8922 -0.5364
13997TIP3   OH263481   1.720   5.050  16.349  0.2510  0.0850 -0.4187
13997TIP3    H163482   1.816   5.048  16.346  0.2314 -0.3941 -0.8757
13997TIP3    H263483   1.697   4.983  16.413  0.2240  0.2384 -0.2693
13998TIP3   OH263484   0.152   2.965  15.862  0.4142 -0.1094 -0.0793
13998TIP3    H163485   0.215   2.912  15.813  0.0705 -1.1677  0.6085
13998TIP3    H263486   0.111   2.904  15.923  0.7121  1.1277  1.4181
13999TIP3   OH263487   1.072   4.060  12.440  0.2544  0.6949 -0.3818
13999TIP3    H163488   1.159   4.091  12.413  0.5017 -0.4146 -0.9003
13999TIP3    H263489   1.065   3.973  12.402 -0.0454 -0.2812  1.7667
14000TIP3   OH263490   4.862   0.508   3.308  0.1738  0.0555  0.0520
14000TIP3    H163491   4.833   0.421   3.278 -0.1902  0.5001 -0.9269
14000TIP3    H263492   4.797   0.534   3.373  2.0050 -1.7554  2.8622
14001TIP3   OH263493   1.905   3.367   5.794 -0.4330  0.0454 -0.9560
14001TIP3    H163494   1.843   3.300   5.765 -0.3528  0.3509 -1.8657
14001TIP3    H263495   1.851   3.432   5.840 -0.8894  0.5618 -2.1724
14002TIP3   OH263496   4.471   2.753   1.935 -0.1775  0.5274  0.2134
14002TIP3    H163497   4.430   2.836   1.958 -1.5193  0.2270 -0.9321
14002TIP3    H263498   4.470   2.751   1.840 -0.4501 -0.9181  0.2235
14003TIP3   OH263499   5.064   3.065   1.526 -0.0139  0.2678  0.0710
14003TIP3    H163500   5.050   3.134   1.590 -1.5326 -0.3057  0.3905
14003TIP3    H263501   4.977   3.031   1.507  0.6794 -1.5765 -0.0720
14004TIP3   OH263502   5.642   3.992   2.527 -0.3417  0.4825 -0.4087
14004TIP3    H163503   5.637   4.002   2.432 -0.1628 -1.1757 -0.6227
14004TIP3    H263504   5.733   3.965   2.543 -1.3922 -3.7153 -0.3356
14005TIP3   OH263505   5.083   1.720   4.362  0.5213 -0.1564  0.0766
14005TIP3    H163506   5.022   1.678   4.423  0.8475 -0.5267  0.1540
14005TIP3    H263507   5.032   1.790   4.321 -0.0825 -0.7165 -0.1562
14006TIP3   OH263508   0.811   6.690  13.448 -0.1271  0.4994 -0.5202
14006TIP3    H163509   0.725   6.720  13.419 -0.2963  0.8961  0.3595
14006TIP3    H263510   0.797   6.660  13.538  0.0191 -2.2436 -1.2997
14007TIP3   OH263511   0.868   2.985  10.450 -0.0111  0.0767 -0.0363
14007TIP3    H163512   0.947   2.939  10.421 -1.0513 -2.1317  0.4793
14007TIP3    H263513   0.796   2.931  10.420 -1.3572  1.7369  0.0445
14008TIP3   OH263514   1.160   4.267  17.247 -0.3683 -0.2006 -0.2660
14008TIP3    H163515   1.095   4.336  17.235 -1.0895 -0.7654  0.2900
14008TIP3    H263516   1.183   4.240  17.158 -3.2073 -2.0862 -0.5790
14009TIP3   OH263517   2.248   5.336  11.887 -0.3962 -0.5158 -0.0795
14009TIP3    H163518   2.261   5.428  11.864 -0.0810 -0.8481 -1.2736
14009TIP3    H263519   2.167   5.311  11.842 -1.7443 -0.2530  2.0314
14010TIP3   OH263520   1.921   2.873   1.494 -0.3667 -0.0579 -0.3236
14010TIP3    H163521   1.984   2.926   1.446  0.5342 -0.5430  0.2798
14010TIP3    H263522   1.971   2.796   1.522 -2.0253 -2.1567 -2.6751
14011TIP3   OH263523   2.561   4.495   1.106  0.1285 -0.0965 -0.1089
14011TIP3    H163524   2.526   4.581   1.085  2.2146  0.9302  0.3662
14011TIP3    H263525   2.568   4.451   1.021 -1.4997 -0.0658 -0.2942
14012TIP3   OH263526   4.497   5.963   1.053 -0.4388 -0.2439 -0.4697
14012TIP3    H163527   4.502   5.993   1.144  0.2862 -0.8140 -0.3138
14012TIP3    H263528   4.450   5.880   1.058  0.7269 -0.9146 -0.4486
14013TIP3   OH263529   1.322   1.919   2.914  0.2726  0.1670  0.6314
14013TIP3    H163530   1.261   1.940   2.843 -0.6050  0.2128  1.3722
14013TIP3    H263531   1.315   1.994   2.973  2.6364  1.1856 -0.2637
14014TIP3   OH263532   3.674   1.584   3.333 -0.5114 -0.1464  0.0879
14014TIP3    H163533   3.580   1.603   3.336 -0.8574 -1.4608 -1.2686
14014TIP3    H263534   3.683   1.500   3.377  0.0678  0.0623  0.3769
14015TIP3   OH263535   5.236   5.429  11.424  0.4273 -0.0396 -0.7494
14015TIP3    H163536   5.245   5.363  11.356 -0.5970  1.2208 -2.1907
14015TIP3    H263537   5.142   5.445  11.430  0.4787 -0.1407  1.0343
14016TIP3   OH263538   4.236   5.431  11.927 -0.5146  0.6972 -0.1086
14016TIP3    H163539   4.292   5.356  11.909 -0.0960  0.5001  1.8363
14016TIP3    H263540   4.162   5.395  11.975 -1.3087  1.2672 -0.8666
14017TIP3   OH263541   1.840   5.046   5.863 -0.0346 -0.0685  0.0589
14017TIP3    H163542   1.790   5.007   5.935 -0.1983  1.7374  0.9989
14017TIP3    H263543   1.929   5.014   5.877 -0.1186  0.0296  0.9066
14018TIP3   OH263544   6.573   4.588  17.050  0.6420 -0.2541  0.2839
14018TIP3    H163545   6.520   4.655  17.093  0.2791 -0.3854  0.0467
14018TIP3    H263546   6.656   4.632  17.030  0.4917  0.0558  0.3377
14019TIP3   OH263547   0.607   0.323  16.493 -0.0814 -0.8239 -0.2627
14019TIP3    H163548   0.562   0.316  16.409  0.0488  1.3256 -0.5593
14019TIP3    H263549   0.541   0.357  16.554  0.4795  0.0875 -0.1357
14020TIP3   OH263550   6.720   2.151  17.134  0.3456 -0.5800  0.0746
14020TIP3    H163551   6.742   2.063  17.163  1.7236 -0.3916 -0.3153
14020TIP3    H263552   6.656   2.138  17.064  0.4432 -1.2720  0.1075
14021TIP3   OH263553   1.755   3.497   0.493 -0.2224  0.3802  0.5724
14021TIP3    H163554   1.799   3.544   0.565 -0.0736  1.6454 -0.3163
14021TIP3    H263555   1.762   3.557   0.418 -0.2027 -0.9935 -0.5539
14022TIP3   OH263556   2.289   1.170   1.987 -0.2667  0.0067  0.2179
14022TIP3    H163557   2.229   1.223   1.935 -0.9201 -0.7483  0.1753
14022TIP3    H263558   2.357   1.231   2.016 -1.6094  1.1481  1.1445
14023TIP3   OH263559   0.570   5.055   4.634  0.2078  0.2377 -0.4991
14023TIP3    H163560   0.548   4.962   4.636 -0.8793  0.5086  1.6837
14023TIP3    H263561   0.597   5.071   4.543 -2.6584 -1.4973 -1.7808
14024TIP3   OH263562   2.774   3.272  15.173  0.4424  0.5334 -0.3842
14024TIP3    H163563   2.702   3.232  15.125  2.1100 -2.4954 -0.6460
14024TIP3    H263564   2.815   3.332  15.111  0.8930 -1.2542 -1.9010
14025TIP3   OH263565   0.381   5.645  12.898  0.8503  0.0645 -0.6995
14025TIP3    H163566   0.301   5.679  12.858  0.1844 -1.2601 -0.5493
14025TIP3    H263567   0.395   5.700  12.975 -0.4786 -0.3055 -0.1776
14026TIP3   OH263568   1.156   5.136   5.183 -0.3354  0.1298  0.0048
14026TIP3    H163569   1.170   5.185   5.102 -1.4579 -0.2199 -0.4188
14026TIP3    H263570   1.127   5.203   5.246 -1.5349  0.0799 -0.4793
14027TIP3   OH263571   2.173   1.177   4.834 -0.1677 -0.2509  0.2325
14027TIP3    H163572   2.216   1.182   4.920  1.8230  2.0903 -0.8077
14027TIP3    H263573   2.225   1.115   4.784  1.0206  1.2286 -0.4419
14028TIP3   OH263574   4.772   4.844  11.350  0.4470  0.4893 -0.3277
14028TIP3    H163575   4.799   4.824  11.440 -0.3007 -1.5963 -0.5035
14028TIP3    H263576   4.718   4.769  11.325 -1.1943  2.0824 -1.7718
14029TIP3   OH263577   1.955   3.063   1.772  0.2175 -0.5507  0.0998
14029TIP3    H163578   1.884   3.077   1.709  0.7483 -0.6765 -0.5368
14029TIP3    H263579   2.035   3.079   1.722  0.6285  0.1479  0.9497
14030TIP3   OH263580   0.000   0.261   6.309 -0.0924 -0.0987 -0.4839
14030TIP3    H163581   0.085   0.219   6.318 -0.6601 -1.1535  0.1646
14030TIP3    H263582  -0.013   0.305   6.394 -0.7496 -1.0370 -0.0822
14031TIP3   OH263583   1.069   1.887  12.679  0.0543 -0.1920 -0.3406
14031TIP3    H163584   0.986   1.903  12.635  1.3805  0.1443 -2.9330
14031TIP3    H263585   1.045   1.848  12.763 -2.7661  1.8765 -0.0274
14032TIP3   OH263586   0.140   6.523   1.156  0.0364  0.8789 -0.2705
14032TIP3    H163587   0.202   6.596   1.154 -1.3103  2.1593  1.5709
14032TIP3    H263588   0.132   6.501   1.249  0.7627 -2.0264 -0.7880
14033TIP3   OH263589   2.638   3.470   0.251 -0.3182  0.1322 -0.2562
14033TIP3    H163590   2.592   3.422   0.321 -0.7389  1.3378  0.3121
14033TIP3    H263591   2.571   3.528   0.215 -0.1585 -0.6027 -1.8173
14034TIP3   OH263592   0.917   2.473  13.024 -0.1019  0.7299 -0.0318
14034TIP3    H163593   0.965   2.430  12.953 -1.1306  0.1806 -0.4092
14034TIP3    H263594   0.985   2.521  13.072  0.9353 -0.6030 -0.1075
14035TIP3   OH263595   2.186   0.655  17.156 -0.2000 -0.6206  0.6015
14035TIP3    H163596   2.097   0.645  17.188 -0.0541  0.2195  1.3021
14035TIP3    H263597   2.222   0.728  17.207  0.1050  0.6769 -1.3409
14036TIP3   OH263598   1.168   2.486   2.469  1.0335 -0.3201  0.1832
14036TIP3    H163599   1.150   2.432   2.392 -1.5908  0.2004  0.3747
14036TIP3    H263600   1.175   2.423   2.541 -2.9867 -0.5446  0.5835
14037TIP3   OH263601   1.734   4.256  14.449  0.4078 -0.0915 -0.3846
14037TIP3    H163602   1.774   4.250  14.361 -0.5810  0.7049 -0.9067
14037TIP3    H263603   1.703   4.168  14.467  4.0540 -1.3000  0.8965
14038TIP3   OH263604   2.436   4.555  16.639  0.4257 -0.4425 -0.2386
14038TIP3    H163605   2.364   4.504  16.602 -0.8856 -0.6755  2.3822
14038TIP3    H263606   2.503   4.490  16.661  0.1117 -0.6521  0.1245
14039TIP3   OH263607   6.631   2.473  13.840 -0.7792 -0.3521 -0.2974
14039TIP3    H163608   6.706   2.460  13.898  0.0904  3.6228 -0.2312
14039TIP3    H263609   6.669   2.479  13.753 -1.3933 -0.9741 -0.6145
14040TIP3   OH263610   6.792   1.311  10.841 -0.1242 -0.2778 -0.3030
14040TIP3    H163611   6.749   1.273  10.764  1.2718  0.1856 -1.3551
14040TIP3    H263612   6.811   1.401  10.815 -0.4818  0.1828  0.9681
14041TIP3   OH263613   5.861   4.170   1.393 -0.4864 -0.6429  0.6085
14041TIP3    H163614   5.880   4.238   1.458  0.2803 -0.5007  0.2541
14041TIP3    H263615   5.931   4.179   1.329  0.7573 -3.0013  1.5121
14042TIP3   OH263616   4.439   3.522  15.488  0.5222 -0.0875  1.0350
14042TIP3    H163617   4.431   3.429  15.468 -0.7133  0.2396 -0.1235
14042TIP3    H263618   4.476   3.560  15.409  0.6646  0.4804  1.3687
14043TIP3   OH263619   1.143   5.518  15.276  0.3383 -0.1748 -0.4388
14043TIP3    H163620   1.119   5.426  15.267  1.7234 -0.6082 -0.0360
14043TIP3    H263621   1.163   5.547  15.187  0.2367 -0.3640 -0.5232
14044TIP3   OH263622   4.805   1.618  12.272  0.0670  0.1464 -0.0722
14044TIP3    H163623   4.762   1.560  12.335  1.2167 -0.4245  0.2074
14044TIP3    H263624   4.814   1.565  12.193  0.9422 -0.0087  0.1197
14045TIP3   OH263625   4.151   6.539   2.087 -0.3271  0.3851  0.6524
14045TIP3    H163626   4.163   6.474   2.018 -0.0706 -0.1422  1.1865
14045TIP3    H263627   4.240   6.560   2.116 -0.4762 -1.5248  2.7725
14046TIP3   OH263628   6.064   5.966  13.729  0.3180 -0.1151 -0.9296
14046TIP3    H163629   6.139   5.934  13.780 -0.6347  0.9071  1.2269
14046TIP3    H263630   6.088   5.948  13.638  1.3623 -3.6575 -0.1178
14047TIP3   OH263631   3.480   4.836   1.388  0.2279  0.1358 -0.3539
14047TIP3    H163632   3.510   4.827   1.298  0.6184 -2.2048 -0.0494
14047TIP3    H263633   3.385   4.821   1.383 -0.0496  1.7503 -0.5551
14048TIP3   OH263634   1.312   0.975   4.834 -0.4434 -0.3372 -0.2349
14048TIP3    H163635   1.267   0.920   4.898  1.3785  0.1257  1.5585
14048TIP3    H263636   1.258   1.053   4.827 -1.0873 -0.7445  0.1327
14049TIP3   OH263637   6.401   2.207   6.988 -0.0233 -0.0814 -0.0536
14049TIP3    H163638   6.487   2.235   6.957  0.3957 -0.0529  1.0912
14049TIP3    H263639   6.351   2.289   6.997 -0.2770 -0.1205 -0.9757
14050TIP3   OH263640   3.416   1.722   3.060  0.3308  0.1356 -0.0215
14050TIP3    H163641   3.417   1.699   3.153 -1.2997 -0.3972 -0.0930
14050TIP3    H263642   3.441   1.642   3.014 -0.7906 -0.1941 -0.0925
14051TIP3   OH263643   1.819   0.423   0.937 -0.0325 -0.5763  0.1413
14051TIP3    H163644   1.837   0.517   0.934 -1.3684 -0.3216 -0.5988
14051TIP3    H263645   1.906   0.382   0.939  0.5671  0.6654  0.6046
14052TIP3   OH263646   2.516   0.174  14.473  0.8335 -0.3997  0.0229
14052TIP3    H163647   2.521   0.082  14.448 -0.4689 -0.4635 -0.0529
14052TIP3    H263648   2.574   0.180  14.549  2.2755 -0.8916 -0.9758
14053TIP3   OH263649   2.928   2.466  11.058  0.2350 -0.0466  0.1770
14053TIP3    H163650   2.908   2.372  11.065 -0.6373  0.1932  1.1551
14053TIP3    H263651   2.959   2.490  11.145 -0.6098  0.8082  0.2530
14054TIP3   OH263652   3.229   4.725   3.865 -0.6317 -0.6005  0.4811
14054TIP3    H163653   3.160   4.738   3.929 -1.1964 -0.2808 -0.1742
14054TIP3    H263654   3.218   4.797   3.802  1.1016  0.2068  1.0433
14055TIP3   OH263655   6.267   3.319   2.376 -0.3387 -0.1232  0.5258
14055TIP3    H163656   6.179   3.338   2.343 -0.7498 -0.8804  1.1580
14055TIP3    H263657   6.311   3.276   2.303  0.8215  3.5271 -1.1988
14056TIP3   OH263658   4.762   3.215   5.259  0.3236 -0.0879 -0.3259
14056TIP3    H163659   4.857   3.230   5.256  0.8085 -2.5214  0.7441
14056TIP3    H263660   4.737   3.239   5.348 -0.0087  0.2198 -0.5019
14057TIP3   OH263661   0.107   0.835  15.633 -0.4327  0.2781 -0.0934
14057TIP3    H163662   0.168   0.900  15.597  0.3900 -0.8490 -0.7827
14057TIP3    H263663   0.138   0.751  15.598  0.1175 -0.8439  2.8254
14058TIP3   OH263664   2.195   5.277   4.000 -0.5289 -0.2583 -0.0663
14058TIP3    H163665   2.113   5.302   3.957  0.2127  0.9871 -0.8083
14058TIP3    H263666   2.211   5.187   3.972 -1.4663 -0.4012 -0.1680
14059TIP3   OH263667   3.005   1.727   4.807  0.5840 -0.1792  0.3283
14059TIP3    H163668   2.960   1.733   4.723 -1.0017  1.9390  1.2542
14059TIP3    H263669   2.936   1.716   4.871  1.6065  0.2012  1.5402
14060TIP3   OH263670   4.329   0.273  13.012  0.1747  0.6591 -0.2729
14060TIP3    H163671   4.349   0.193  12.963 -1.3828 -0.7670  1.2605
14060TIP3    H263672   4.402   0.284  13.073 -0.1042 -0.2267  0.2322
14061TIP3   OH263673   5.195   3.931  13.051 -0.0595  0.1784  0.0240
14061TIP3    H163674   5.191   4.026  13.067 -0.3076 -0.1187  1.9401
14061TIP3    H263675   5.115   3.897  13.090  0.1037 -0.8453 -0.5119
14062TIP3   OH263676   0.942   0.912  11.852  0.5463  0.2975  0.6079
14062TIP3    H163677   0.893   0.871  11.781  0.0854  0.2589  0.9435
14062TIP3    H263678   0.940   0.847  11.923  1.3596  0.1609  0.5174
14063TIP3   OH263679   1.671   0.434  11.908  0.2778  0.1862  0.4436
14063TIP3    H163680   1.588   0.391  11.927  0.4116  0.8861  2.9517
14063TIP3    H263681   1.658   0.525  11.935  1.1124  0.9186 -1.4264
14064TIP3   OH263682   0.459   6.409  16.364 -0.1702  0.0199 -0.0672
14064TIP3    H163683   0.493   6.473  16.302  0.3034 -1.0042 -0.8925
14064TIP3    H263684   0.496   6.436  16.448  0.3778  0.5740 -0.4742
14065TIP3   OH263685   3.083   5.599   5.440  0.4818 -0.1138  0.1653
14065TIP3    H163686   3.047   5.651   5.512  1.5167  0.7906  0.0479
14065TIP3    H263687   3.038   5.515   5.447 -0.9950  0.6822  0.5478
14066TIP3   OH263688   1.818   1.113   5.187  0.3625  0.6221  0.3748
14066TIP3    H163689   1.811   1.051   5.114  2.5424  1.2906 -0.4753
14066TIP3    H263690   1.762   1.076   5.256 -1.1461 -0.4252 -1.3396
14067TIP3   OH263691   0.671   5.138  13.859  0.1488 -0.2588  0.4655
14067TIP3    H163692   0.654   5.105  13.947 -0.4200  0.8416  0.7903
14067TIP3    H263693   0.638   5.228  13.861  0.9378  0.0683 -0.6100
14068TIP3   OH263694   4.657   1.601  16.427 -0.2281 -0.2161  0.6191
14068TIP3    H163695   4.641   1.525  16.483 -0.7829  0.4684  1.4173
14068TIP3    H263696   4.666   1.565  16.339 -0.4953 -1.2030  0.9858
14069TIP3   OH263697   1.568   2.750   4.412 -0.3436 -0.1125 -0.0800
14069TIP3    H163698   1.532   2.836   4.434  2.2265  1.2901 -0.9558
14069TIP3    H263699   1.575   2.705   4.496  0.4295  1.4591  0.7404
14070TIP3   OH263700   1.394   3.394   4.637  0.2433  0.0338  0.7216
14070TIP3    H163701   1.446   3.361   4.564 -1.6263 -1.7039  0.0601
14070TIP3    H263702   1.400   3.325   4.703 -2.5116 -1.1457 -0.0758
14071TIP3   OH263703   6.529   5.874  16.319 -0.2258  0.6905 -0.3754
14071TIP3    H163704   6.589   5.800  16.307 -0.4165  0.5952 -0.7682
14071TIP3    H263705   6.513   5.877  16.413 -0.4774  0.0242 -0.3897
14072TIP3   OH263706   3.941   4.708   0.983  0.3264 -0.3345 -0.0994
14072TIP3    H163707   3.850   4.709   1.014 -0.1767  1.2631 -1.4063
14072TIP3    H263708   3.950   4.792   0.937  0.9973 -2.3424 -4.0168
14073TIP3   OH263709   6.405   2.300  15.679  0.0024  0.0828 -0.2623
14073TIP3    H163710   6.378   2.368  15.741 -0.5455  0.0215 -0.4282
14073TIP3    H263711   6.389   2.339  15.593  0.7349  0.1565 -0.3741
14074TIP3   OH263712   2.420   1.492   4.837  0.0591  0.3013 -0.0763
14074TIP3    H163713   2.358   1.518   4.769  1.1426  1.9794 -0.4778
14074TIP3    H263714   2.366   1.478   4.915 -0.9715  0.3819 -0.7586
14075TIP3   OH263715   4.120   4.086   3.628  0.6114 -0.3583  0.1532
14075TIP3    H163716   4.201   4.056   3.669  0.6126  2.0086  2.1499
14075TIP3    H263717   4.146   4.111   3.539  1.5101 -1.8433 -0.0392
14076TIP3   OH263718   6.609   0.299  15.307 -0.3280 -0.3019  0.3697
14076TIP3    H163719   6.657   0.309  15.225 -0.0552  0.0939  0.5718
14076TIP3    H263720   6.522   0.334  15.288 -0.2860 -0.2766  0.2260
14077TIP3   OH263721   4.180   1.838   0.498  0.2353  0.8023  0.5991
14077TIP3    H163722   4.142   1.900   0.435  1.1311 -0.2453 -1.0558
14077TIP3    H263723   4.273   1.858   0.498  0.4012  0.0620  0.7599
14078TIP3   OH263724   3.605   3.209  13.425 -0.0740  0.5014  0.1315
14078TIP3    H163725   3.597   3.182  13.333 -2.4019 -0.9709  0.6681
14078TIP3    H263726   3.515   3.226  13.452  0.1430 -1.9405  2.9091
14079TIP3   OH263727   6.724   5.276  12.056 -0.2100 -0.0524 -0.0178
14079TIP3    H163728   6.695   5.303  11.969  1.8701 -0.5890 -0.9447
14079TIP3    H263729   6.677   5.194  12.072  0.0181 -0.4060 -1.0511
14080TIP3   OH263730   5.516   2.603   1.644  0.0043 -0.4557 -0.6993
14080TIP3    H163731   5.525   2.687   1.599 -1.0167 -1.0223 -2.0032
14080TIP3    H263732   5.422   2.586   1.646  0.1711 -1.3744 -0.0808
14081TIP3   OH263733   2.855   6.456  13.079 -0.0008 -0.5150  0.0681
14081TIP3    H163734   2.938   6.453  13.127 -0.0193 -2.9983  0.0709
14081TIP3    H263735   2.792   6.414  13.138 -0.8332 -0.3321 -0.6804
14082TIP3   OH263736   1.100   0.812  14.904  0.4286  0.3876  0.0026
14082TIP3    H163737   1.184   0.830  14.863 -0.0679  1.8255 -0.4340
14082TIP3    H263738   1.120   0.798  14.997  1.2597 -0.3870 -0.2834
14083TIP3   OH263739   3.101   5.622   1.169 -0.4920 -0.7104 -0.7974
14083TIP3    H163740   3.144   5.657   1.091  0.2642  1.3870  0.4769
14083TIP3    H263741   3.010   5.607   1.142 -0.2900  0.1502 -2.0155
14084TIP3   OH263742   1.517   5.352  15.853  0.0850 -0.3061 -0.1979
14084TIP3    H163743   1.442   5.358  15.795 -0.0732 -0.3441 -0.0023
14084TIP3    H263744   1.554   5.265  15.835  1.0285  0.3231 -1.4182
14085TIP3   OH263745   4.791   2.215  15.743  0.6382 -0.6763 -0.1068
14085TIP3    H163746   4.710   2.237  15.696 -0.9121 -0.6450  2.3791
14085TIP3    H263747   4.817   2.131  15.707 -0.3826 -0.5872 -1.1229
14086TIP3   OH263748   4.030   6.470   4.700  0.1760 -0.4185  0.0676
14086TIP3    H163749   4.043   6.550   4.649  1.3234 -0.2621  0.5617
14086TIP3    H263750   4.116   6.453   4.739 -0.4956 -0.8851  1.4129
14087TIP3   OH263751   3.790   4.180   3.109 -0.4418  0.1409  0.0949
14087TIP3    H163752   3.812   4.090   3.133 -1.5496  0.1033  1.0945
14087TIP3    H263753   3.864   4.232   3.141  0.8587 -0.4971 -1.6756
14088TIP3   OH263754   1.316   3.645  12.458 -0.8477 -0.3086  0.0309
14088TIP3    H163755   1.301   3.739  12.450 -2.5383 -0.3983  1.3700
14088TIP3    H263756   1.298   3.610  12.371  1.3283  0.7224 -0.9116
14089TIP3   OH263757   2.104   1.498   4.005  0.2532 -0.5251  0.2966
14089TIP3    H163758   2.163   1.432   4.043  0.3202 -0.8031 -0.2865
14089TIP3    H263759   2.123   1.578   4.055 -1.1355 -1.3568  2.2711
14090TIP3   OH263760   3.554   2.872  12.811 -0.0430  0.4118  0.5396
14090TIP3    H163761   3.610   2.832  12.745 -0.3204  0.3872  0.3181
14090TIP3    H263762   3.570   2.966  12.803 -0.7561  0.4768 -0.1869
14091TIP3   OH263763   5.485   2.395  12.831 -0.2591  0.0959 -0.4095
14091TIP3    H163764   5.562   2.423  12.783 -2.4165  1.8624 -3.1637
14091TIP3    H263765   5.487   2.445  12.913  1.1453  0.6018 -0.7300
14092TIP3   OH263766   1.562   1.265  17.284  0.1318  0.1546 -0.2805
14092TIP3    H163767   1.497   1.296  17.347 -0.7751 -0.6357 -0.8062
14092TIP3    H263768   1.513   1.209  17.224  1.3688 -0.8502 -0.4085
14093TIP3   OH263769   5.555   0.236   0.879 -0.3284  0.2646  0.6538
14093TIP3    H163770   5.595   0.207   0.960 -1.2204 -0.8678  0.7175
14093TIP3    H263771   5.628   0.245   0.817  0.0587 -2.0156  0.6787
14094TIP3   OH263772   2.575   6.338  10.836  0.3553  0.0903  0.1333
14094TIP3    H163773   2.519   6.374  10.905  0.1026 -1.3405  0.7179
14094TIP3    H263774   2.590   6.411  10.777 -1.7248  0.6746  0.2316
14095TIP3   OH263775   6.711   1.694   2.723 -0.5250 -0.1394  0.4332
14095TIP3    H163776   6.619   1.720   2.716 -1.3568 -3.1269 -1.6799
14095TIP3    H263777   6.760   1.767   2.685 -2.2589  0.3889 -0.8941
14096TIP3   OH263778   0.247   0.286  14.933  0.0461 -0.1426 -0.4920
14096TIP3    H163779   0.340   0.270  14.919 -0.0663 -1.3043 -0.0303
14096TIP3    H263780   0.204   0.208  14.898 -0.7852  0.5243 -1.0005
14097TIP3   OH263781   1.412   6.464  16.116 -0.0330  0.3814  0.3602
14097TIP3    H163782   1.341   6.455  16.180  0.5187  1.5401  1.1797
14097TIP3    H263783   1.486   6.497  16.168  0.1873  2.1927 -1.0091
14098TIP3   OH263784   6.740   0.056  17.231  0.4376  0.4723 -0.0905
14098TIP3    H163785   6.825   0.042  17.189  1.6992 -1.3202  2.7925
14098TIP3    H263786   6.705  -0.031  17.246 -0.8798  1.1131  0.8000
14099TIP3   OH263787   5.636   5.045  15.241 -0.0270 -0.2701  0.5078
14099TIP3    H163788   5.723   5.040  15.281  1.7741 -1.3849 -3.0539
14099TIP3    H263789   5.646   5.106  15.168 -2.4721  0.1466  0.4384
14100TIP3   OH263790   5.340   5.481  13.925  0.1198  0.2574 -0.4081
14100TIP3    H163791   5.267   5.454  13.980  1.2682  0.2101  1.1426
14100TIP3    H263792   5.407   5.512  13.986  1.2494  0.6876 -1.8027
14101TIP3   OH263793   2.819   6.020  16.664 -0.4341 -0.3547  0.1552
14101TIP3    H163794   2.724   6.019  16.670 -0.4434  0.0191  0.0865
14101TIP3    H263795   2.845   5.931  16.686 -0.8642 -0.7922 -1.0395
14102TIP3   OH263796   3.866   0.413   5.046  0.3378  0.0177  0.0820
14102TIP3    H163797   3.885   0.506   5.056  1.1315 -0.3058  2.0871
14102TIP3    H263798   3.802   0.394   5.115  0.1192 -0.9107 -0.3535
14103TIP3   OH263799   5.141   3.735   5.326 -0.1258 -0.2835 -0.4228
14103TIP3    H163800   5.085   3.658   5.331  1.3969 -1.4692 -0.9657
14103TIP3    H263801   5.127   3.781   5.409 -3.4890  0.6680 -1.3772
14104TIP3   OH263802   3.700   2.694   4.999  0.2599  0.3417 -0.3793
14104TIP3    H163803   3.786   2.658   4.978  1.3704  2.3014  0.5390
14104TIP3    H263804   3.710   2.789   4.991 -1.0277  0.8185  2.2865
14105TIP3   OH263805   4.684   3.568   0.804  0.3008  0.2055 -0.0977
14105TIP3    H163806   4.664   3.511   0.879  0.1481  0.6820  0.2298
14105TIP3    H263807   4.605   3.621   0.793 -0.3869 -1.0851 -1.7410
14106TIP3   OH263808   2.053   4.438   2.783  0.1474  0.3504 -0.1402
14106TIP3    H163809   2.095   4.521   2.759  2.3404 -0.6394 -0.0314
14106TIP3    H263810   2.047   4.390   2.701  1.7134 -0.5332  0.2287
14107TIP3   OH263811   0.697   1.897  11.073 -0.2764  0.6932 -0.0603
14107TIP3    H163812   0.776   1.877  11.023 -0.8900 -1.4451 -0.2818
14107TIP3    H263813   0.705   1.846  11.153 -0.6648  1.8149  0.7269
14108TIP3   OH263814   1.506   0.893  13.991  0.5138  0.2176 -0.2980
14108TIP3    H163815   1.412   0.905  13.999  0.4961  0.5049 -0.8745
14108TIP3    H263816   1.543   0.946  14.061  0.2185 -0.6243  0.5113
14109TIP3   OH263817   0.747   4.413  13.320 -0.5401 -0.1535 -0.3143
14109TIP3    H163818   0.772   4.502  13.297  0.4795 -0.5333 -0.7049
14109TIP3    H263819   0.663   4.423  13.366 -0.6247  0.9605 -0.6910
14110TIP3   OH263820   3.625   4.128  13.229  0.2004 -0.8880 -0.1317
14110TIP3    H163821   3.608   4.035  13.218  0.8284 -1.0466  0.2068
14110TIP3    H263822   3.720   4.136  13.226  0.1057 -0.0952 -1.3983
14111TIP3   OH263823   4.934   1.032  11.255  0.3786 -0.4975 -0.5053
14111TIP3    H163824   5.007   1.060  11.201 -0.6675  0.4825 -1.4731
14111TIP3    H263825   4.966   1.040  11.345  0.3275  3.7405 -0.6634
14112TIP3   OH263826   2.369   6.332  16.619 -0.1530 -0.2972 -0.3893
14112TIP3    H163827   2.354   6.421  16.586  0.8289 -0.6074 -1.7869
14112TIP3    H263828   2.331   6.275  16.551 -0.9394 -0.9662  0.5796
14113TIP3   OH263829   6.386   4.315   0.577 -0.4081 -0.3855 -0.1060
14113TIP3    H163830   6.458   4.306   0.515 -0.1587  0.1426  0.1021
14113TIP3    H263831   6.323   4.248   0.550 -0.3540 -0.0864 -0.9924
14114TIP3   OH263832   3.566   5.559   0.661 -0.0795  0.6355  0.1032
14114TIP3    H163833   3.611   5.641   0.680  0.6815  0.1239  0.5074
14114TIP3    H263834   3.473   5.579   0.675  0.2210  1.0300  1.6354
14115TIP3   OH263835   2.633   3.892   4.013 -0.2713 -1.2913  0.7226
14115TIP3    H163836   2.559   3.943   3.978 -1.6900 -2.1838  2.2685
14115TIP3    H263837   2.676   3.857   3.935 -0.5175  0.5124 -0.2871
14116TIP3   OH263838   0.965   0.718  16.759 -0.4120 -0.0677  0.0585
14116TIP3    H163839   0.881   0.673  16.744 -0.4146  0.1530 -0.6259
14116TIP3    H263840   0.955   0.802  16.714  0.5283 -0.4265 -0.8519
14117TIP3   OH263841   5.014   1.184   3.805  0.3847  0.2101 -0.2655
14117TIP3    H163842   4.986   1.125   3.734 -1.4471 -2.3037  2.3119
14117TIP3    H263843   5.081   1.134   3.852  1.7867  1.9654 -0.2984
14118TIP3   OH263844   5.884   0.973  15.543 -0.1618  0.3249  0.4376
14118TIP3    H163845   5.963   0.973  15.489  0.4012  0.4004  1.2513
14118TIP3    H263846   5.891   0.894  15.596 -1.2947 -0.3793 -0.4178
14119TIP3   OH263847   0.772   3.388   0.729  0.1654 -0.1012 -0.2348
14119TIP3    H163848   0.713   3.451   0.686 -0.3273  0.7547  1.6117
14119TIP3    H263849   0.745   3.388   0.821  2.0882 -0.8172  0.3823
14120TIP3   OH263850   0.933   6.423  12.791 -0.3498 -0.1613 -0.4186
14120TIP3    H163851   0.894   6.380  12.868  0.1045 -0.1879 -0.1993
14120TIP3    H263852   0.999   6.361  12.760 -0.1598  0.0855 -0.5096
14121TIP3   OH263853   6.445   3.422   1.268  0.2047  0.1171  0.1996
14121TIP3    H163854   6.400   3.499   1.234  2.1631  1.0284 -0.4935
14121TIP3    H263855   6.417   3.416   1.359 -1.3419  0.5836 -0.2217
14122TIP3   OH263856   1.528   5.215  16.258 -0.1157 -0.3926 -0.3334
14122TIP3    H163857   1.570   5.301  16.267 -0.5456 -0.3002  0.9085
14122TIP3    H263858   1.580   5.157  16.314 -0.7873 -0.5895  0.0859
14123TIP3   OH263859   4.543   1.040   3.405  0.0146  0.0136 -0.0241
14123TIP3    H163860   4.581   1.128   3.393  0.9189 -0.2471  0.7454
14123TIP3    H263861   4.616   0.981   3.389 -0.2653 -0.5422  0.6945
14124TIP3   OH263862   0.530   0.496   0.925  0.3609  0.0477  0.1407
14124TIP3    H163863   0.559   0.586   0.908  0.5887 -0.2596 -1.2022
14124TIP3    H263864   0.493   0.499   1.013  1.4939  1.1800  0.6147
14125TIP3   OH263865   3.604   0.684   1.072 -0.3003  0.0143  0.4660
14125TIP3    H163866   3.558   0.751   1.021 -0.0197 -1.5488 -2.0132
14125TIP3    H263867   3.693   0.685   1.038  0.2089 -0.3585  1.7312
14126TIP3   OH263868   3.626   5.215  13.102  0.0106 -0.2223  0.0631
14126TIP3    H163869   3.583   5.219  13.187  0.9352 -1.5477  0.6188
14126TIP3    H263870   3.715   5.245  13.119  1.2873 -3.7860  0.3784
14127TIP3   OH263871   6.520   3.742   5.094  0.1171 -0.9683 -0.3873
14127TIP3    H163872   6.434   3.735   5.055 -0.7063  0.3338  1.0819
14127TIP3    H263873   6.523   3.671   5.159 -0.3008 -0.3611  0.3155
14128TIP3   OH263874   1.910   1.292  12.609  0.4559 -0.6530 -0.3875
14128TIP3    H163875   1.870   1.251  12.686  0.1994  0.0284 -0.1539
14128TIP3    H263876   1.986   1.338  12.644  0.4417 -0.4890 -0.5728
14129TIP3   OH263877   3.810   5.116  14.562  0.4522  0.9011  0.0169
14129TIP3    H163878   3.791   5.196  14.514  2.8663  0.3887 -2.0180
14129TIP3    H263879   3.890   5.136  14.611  0.4483  0.0604  0.3803
14130TIP3   OH263880   4.537   1.306   5.854  0.4924  0.2520  0.0747
14130TIP3    H163881   4.628   1.286   5.874  0.5577 -0.0364 -0.5023
14130TIP3    H263882   4.537   1.331   5.761 -0.2919 -1.5722 -0.4618
14131TIP3   OH263883   6.723   5.610  16.630 -0.8800 -0.1263 -0.2091
14131TIP3    H163884   6.682   5.552  16.695 -1.6440 -0.2049 -0.7492
14131TIP3    H263885   6.809   5.629  16.667 -1.8757  1.1271  1.6264
14132TIP3   OH263886   3.313   0.354   5.353 -0.0832 -0.1139  0.1002
14132TIP3    H163887   3.225   0.335   5.321 -0.2686 -0.0903  0.5988
14132TIP3    H263888   3.310   0.445   5.382  0.1601 -0.0519 -0.0614
14133TIP3   OH263889   4.748   3.839   0.408  0.0715  0.5834 -0.1587
14133TIP3    H163890   4.765   3.821   0.500  2.2113  1.2132 -0.3711
14133TIP3    H263891   4.654   3.859   0.404 -0.4442 -1.2199  1.5478
14134TIP3   OH263892   4.369   6.215  16.598  0.4351 -0.4502 -0.0288
14134TIP3    H163893   4.432   6.148  16.624 -0.6212 -0.5988  2.3330
14134TIP3    H263894   4.285   6.170  16.597  0.0921  0.1407 -1.5521
14135TIP3   OH263895   4.286   6.399  13.572 -0.1285 -0.4948  0.2707
14135TIP3    H163896   4.279   6.421  13.665 -4.2895  0.0770 -0.0112
14135TIP3    H263897   4.278   6.483  13.527 -2.3975 -1.1019 -0.5813
14136TIP3   OH263898   3.545   4.191  10.992  0.0440 -0.0714  0.3959
14136TIP3    H163899   3.453   4.217  11.001 -0.6661 -1.5243 -1.7317
14136TIP3    H263900   3.594   4.271  11.005 -1.7986  1.6661 -2.2925
14137TIP3   OH263901   0.729   0.222  15.770  0.6603 -0.1726 -0.1444
14137TIP3    H163902   0.700   0.311  15.789  0.9789  0.1990 -1.2693
14137TIP3    H263903   0.651   0.168  15.785 -0.3048  0.6380 -1.8560
14138TIP3   OH263904   5.449   1.236   3.847 -0.0045  0.3651  0.4622
14138TIP3    H163905   5.513   1.171   3.816 -1.6336 -0.9158 -0.3515
14138TIP3    H263906   5.449   1.303   3.778 -0.6901 -0.4597 -0.3728
14139TIP3   OH263907   4.876   0.163   3.495  0.3107  0.5140 -0.1620
14139TIP3    H163908   4.837   0.080   3.524  1.3617 -0.3266 -1.0262
14139TIP3    H263909   4.907   0.145   3.406 -2.4203  2.8528 -1.7525
14140TIP3   OH263910   2.303   0.999  15.031 -0.5763  0.4784 -0.6332
14140TIP3    H163911   2.276   0.963  15.115 -1.0175  0.3826 -0.8144
14140TIP3    H263912   2.380   1.052  15.051 -1.5149  1.6094  0.0593
14141TIP3   OH263913   3.738   4.066  11.521 -0.1821  0.0903 -0.2923
14141TIP3    H163914   3.774   4.129  11.458 -1.6429  1.3067  0.0261
14141TIP3    H263915   3.653   4.103  11.546 -1.3208 -2.2216 -0.4050
14142TIP3   OH263916   2.993   4.162  16.195 -0.0623  0.1059 -0.3003
14142TIP3    H163917   3.027   4.101  16.130  0.2331 -0.9358  0.7948
14142TIP3    H263918   3.059   4.162  16.265 -0.4963  0.9922  0.1246
14143TIP3   OH263919   3.688   6.253   2.612 -0.1436  0.1002 -0.1593
14143TIP3    H163920   3.651   6.274   2.697  1.4224 -1.6232  1.0234
14143TIP3    H263921   3.755   6.319   2.597  0.2063 -0.1312  0.3839
14144TIP3   OH263922   0.816   6.782   2.268 -0.1606 -0.1501  0.3737
14144TIP3    H163923   0.905   6.772   2.234  0.0293  0.5586  0.6521
14144TIP3    H263924   0.822   6.852   2.333 -0.5217 -1.4204  1.8502
14145TIP3   OH263925   3.508   3.075   0.595 -0.4240 -0.0215  0.8036
14145TIP3    H163926   3.436   3.027   0.554 -1.6499  3.4072 -1.5212
14145TIP3    H263927   3.587   3.035   0.559 -1.1740 -2.1967  1.3985
14146TIP3   OH263928   2.093   6.801  12.102  0.2105 -0.6553  0.1356
14146TIP3    H163929   2.174   6.787  12.054 -1.0515 -2.4448 -1.6209
14146TIP3    H263930   2.024   6.788  12.037 -1.5872 -2.8195  2.2779
14147TIP3   OH263931   3.043   3.768   6.211  0.0878 -0.0971 -0.5724
14147TIP3    H163932   3.123   3.768   6.264  0.3160 -1.2785 -0.8897
14147TIP3    H263933   3.066   3.717   6.133 -1.5106 -2.1261  0.1889
14148TIP3   OH263934   0.278   0.372  14.572 -0.3955  0.3805 -0.0935
14148TIP3    H163935   0.243   0.284  14.561  0.3605  0.1224 -0.5396
14148TIP3    H263936   0.202   0.426  14.597 -1.3344  0.0390 -2.0050
14149TIP3   OH263937   4.574   5.234   5.098  0.1071  0.4980 -0.5526
14149TIP3    H163938   4.528   5.304   5.052 -1.5639 -1.5796 -2.2041
14149TIP3    H263939   4.561   5.255   5.191 -2.3613  1.1759 -0.9785
14150TIP3   OH263940   1.503   2.279  15.183 -0.3476 -0.0407  0.3252
14150TIP3    H163941   1.425   2.249  15.137 -0.5257  0.6293  0.1723
14150TIP3    H263942   1.472   2.353  15.236 -0.0339 -0.4472  1.1009
14151TIP3   OH263943   1.238   2.085  10.648 -0.4143 -0.6126 -0.1823
14151TIP3    H163944   1.149   2.083  10.613 -0.3143 -2.0154 -0.4219
14151TIP3    H263945   1.278   2.163  10.609 -2.3095  1.6633  2.0302
14152TIP3   OH263946   4.607   3.490  12.822  0.1294 -0.2044  0.3304
14152TIP3    H163947   4.524   3.516  12.782 -0.2237 -0.1034  1.0974
14152TIP3    H263948   4.647   3.572  12.852 -0.7581 -0.4200  2.3143
14153TIP3   OH263949   6.085   2.102  15.269 -0.0724  0.3867 -0.4258
14153TIP3    H163950   6.017   2.051  15.313 -1.2283  0.9430 -1.5158
14153TIP3    H263951   6.141   2.037  15.227  0.3454 -0.0974  0.8394
14154TIP3   OH263952   4.844   6.518  12.168  0.1390 -0.3719  0.2037
14154TIP3    H163953   4.895   6.595  12.143  0.5199 -0.9251 -0.7917
14154TIP3    H263954   4.826   6.530  12.261 -0.1709  1.1206 -0.0200
14155TIP3   OH263955   0.404   3.924  12.863  0.3527  0.1618  0.8730
14155TIP3    H163956   0.378   3.897  12.774  2.8417 -2.0406  0.6993
14155TIP3    H263957   0.353   3.867  12.921  0.9303 -0.5465  0.7079
14156TIP3   OH263958   4.064   2.389   1.367 -0.7352  0.0157  0.3257
14156TIP3    H163959   4.016   2.471   1.358  0.8126  0.7109 -4.0666
14156TIP3    H263960   4.156   2.415   1.368 -0.2500 -1.6109  1.0448
14157TIP3   OH263961   4.039   0.701   4.057 -0.5978  0.3247 -0.0675
14157TIP3    H163962   4.071   0.758   4.128 -3.2184  1.1249  0.5924
14157TIP3    H263963   3.996   0.761   3.996  0.1097 -0.5594 -1.4721
14158TIP3   OH263964   0.081   2.617  16.602 -0.1394  0.1709  0.5963
14158TIP3    H163965   0.076   2.521  16.598  0.0544  0.1392  1.0291
14158TIP3    H263966   0.013   2.648  16.542  0.8105 -0.2436 -0.7524
14159TIP3   OH263967   5.826   4.724   5.376 -0.0745 -0.2874  0.0838
14159TIP3    H163968   5.871   4.660   5.322  0.4257 -0.9552  1.2546
14159TIP3    H263969   5.872   4.807   5.358  2.1173 -1.0473  1.6931
14160TIP3   OH263970   0.618   3.072   5.113  0.1475  0.5599 -0.1369
14160TIP3    H163971   0.585   2.989   5.079  1.8777 -0.6471  0.9689
14160TIP3    H263972   0.686   3.099   5.051  1.1254 -0.0365  0.6342
14161TIP3   OH263973   0.543   1.291  12.972  0.2593 -0.2209  0.1278
14161TIP3    H163974   0.552   1.356  13.041  1.3306  0.3983 -0.5676
14161TIP3    H263975   0.488   1.222  13.010  0.6885  0.1855  1.5266
14162TIP3   OH263976   5.649   0.097  16.739 -0.2968  0.6566  0.1344
14162TIP3    H163977   5.643   0.177  16.686 -2.6879  0.4000 -0.1224
14162TIP3    H263978   5.622   0.027  16.680 -0.7638  0.0397  1.0553
14163TIP3   OH263979   1.653   0.902  16.895  0.6192  0.5173 -0.0380
14163TIP3    H163980   1.725   0.961  16.873  0.0728  0.7514 -1.3346
14163TIP3    H263981   1.664   0.828  16.836 -1.7148  1.8167 -2.3330
14164TIP3   OH263982   6.702   3.982  15.681 -0.1705  0.4515 -0.0304
14164TIP3    H163983   6.719   4.072  15.707 -1.0920  0.9387 -1.0200
14164TIP3    H263984   6.659   3.942  15.756  0.1368  0.8671  0.3704
14165TIP3   OH263985   6.248   1.772  15.621 -0.4635  0.2488  0.3798
14165TIP3    H163986   6.301   1.849  15.602 -0.7527  0.3072 -0.2321
14165TIP3    H263987   6.214   1.787  15.709  1.1932 -0.1868  1.1240
14166TIP3   OH263988   1.477   4.950  16.122 -0.0670  0.3710  0.2589
14166TIP3    H163989   1.445   4.911  16.204  0.1324  0.3574  0.3312
14166TIP3    H263990   1.466   5.044  16.135 -0.6836  0.3369  0.0277
14167TIP3   OH263991   5.374   3.941  13.674  0.2329 -0.8846 -0.2943
14167TIP3    H163992   5.378   4.028  13.636 -3.5192 -0.7890 -0.8852
14167TIP3    H263993   5.364   3.956  13.768 -5.2352 -0.1144 -0.6783
14168TIP3   OH263994   1.633   1.476   1.739  0.7254 -0.3056  0.7256
14168TIP3    H163995   1.594   1.559   1.766 -1.9743 -0.5428 -1.9323
14168TIP3    H263996   1.692   1.500   1.667 -3.1784 -0.7660 -3.0165
14169TIP3   OH263997   0.778   0.298  11.637 -0.7758 -0.1048 -0.2835
14169TIP3    H163998   0.709   0.359  11.611 -0.2745  0.6527  0.1293
14169TIP3    H263999   0.741   0.251  11.712  0.1022  2.2837  1.8285
14170TIP3   OH264000   0.768   2.151   2.098 -0.3119 -0.0745 -0.2413
14170TIP3    H164001   0.740   2.092   2.028 -0.5526  0.7893 -0.8844
14170TIP3    H264002   0.863   2.157   2.087 -0.0817 -1.4322  0.7084
14171TIP3   OH264003   5.087   2.294   2.086  0.0459  0.3642 -0.1937
14171TIP3    H164004   5.031   2.342   2.026 -0.3351  0.7558  0.4699
14171TIP3    H264005   5.037   2.288   2.167  0.8612  0.5364  0.3432
14172TIP3   OH264006   3.609   2.193  16.468 -0.4860  0.1370  0.3274
14172TIP3    H164007   3.516   2.207  16.455 -0.2672  0.5921 -0.8883
14172TIP3    H264008   3.645   2.183  16.380  0.7204  0.7147  0.7192
14173TIP3   OH264009   2.983   5.984  16.453  0.2739 -0.0501 -0.0614
14173TIP3    H164010   3.032   5.999  16.534 -0.8396  0.3701  0.5681
14173TIP3    H264011   2.906   6.040  16.462  0.3289  0.3145 -1.6073
14174TIP3   OH264012   0.915   5.407   4.325  0.0209  0.1241  0.4008
14174TIP3    H164013   0.946   5.316   4.320 -2.1385 -0.6679  0.3052
14174TIP3    H264014   0.821   5.401   4.309 -0.3362  2.2869  1.3443
14175TIP3   OH264015   5.943   2.418  16.795 -0.0941 -0.2967 -0.0010
14175TIP3    H164016   5.987   2.487  16.745 -0.3476  2.2962  3.0540
14175TIP3    H264017   5.851   2.445  16.797 -0.8424 -2.4357 -1.2171
14176TIP3   OH264018   2.144   4.118   6.183  0.3086  0.0184  0.5153
14176TIP3    H164019   2.129   4.184   6.115  0.0891  1.6079  2.0431
14176TIP3    H264020   2.063   4.118   6.235  0.9698 -0.1724  1.5731
14177TIP3   OH264021   3.554   1.203  12.129  0.4815 -0.1531 -0.2887
14177TIP3    H164022   3.625   1.187  12.192  0.4800 -0.3299 -0.3328
14177TIP3    H264023   3.477   1.219  12.184  0.1547 -1.7558 -0.2526
14178TIP3   OH264024   4.963   4.719   2.875 -0.2129 -0.4793 -0.0582
14178TIP3    H164025   4.892   4.677   2.826  0.6294 -0.9110 -0.9519
14178TIP3    H264026   4.964   4.674   2.959 -0.7822 -0.6996 -0.1633
14179TIP3   OH264027   4.215   5.674   3.956  0.1915 -0.1940  0.1393
14179TIP3    H164028   4.134   5.655   3.908 -0.0137 -0.5841  0.6300
14179TIP3    H264029   4.244   5.759   3.922  0.9828 -1.2348 -1.9098
14180TIP3   OH264030   3.190   1.951   4.780 -0.1357 -0.4123 -0.6449
14180TIP3    H164031   3.132   1.875   4.787  0.4724 -0.9570 -1.4427
14180TIP3    H264032   3.256   1.938   4.848 -1.0170  0.2966  0.3837
14181TIP3   OH264033   1.651   5.925   3.643  0.7445 -0.3072 -0.2344
14181TIP3    H164034   1.697   5.978   3.577  1.8245  0.3667  0.9995
14181TIP3    H264035   1.595   5.867   3.592  0.5077  1.1243 -1.6888
14182TIP3   OH264036   0.196   5.670  10.710 -0.3719  0.1388  0.4881
14182TIP3    H164037   0.242   5.593  10.675  0.3936  0.1361  1.4703
14182TIP3    H264038   0.124   5.684  10.649 -0.1734 -1.0034 -0.0361
14183TIP3   OH264039   4.981   5.251   2.510 -0.0460  0.1517 -0.1231
14183TIP3    H164040   4.970   5.176   2.452  1.0354  1.2567 -1.8891
14183TIP3    H264041   5.036   5.219   2.581 -0.9882 -1.1305  0.0574
14184TIP3   OH264042   6.521   0.647  15.989 -0.1962 -0.2999  0.2732
14184TIP3    H164043   6.504   0.691  15.906  0.2341 -1.3604 -0.3937
14184TIP3    H264044   6.521   0.717  16.054  1.6307  0.8406 -0.8960
14185TIP3   OH264045   3.815   6.007   5.383 -0.2709  0.2310 -0.8391
14185TIP3    H164046   3.874   5.972   5.317 -0.0643 -0.8179 -0.1270
14185TIP3    H264047   3.735   6.028   5.335  0.7924  2.1063 -1.9001
14186TIP3   OH264048   4.258   2.036   3.431  0.1432 -0.4508 -0.0870
14186TIP3    H164049   4.338   1.983   3.436  0.0598 -0.4983  1.4601
14186TIP3    H264050   4.189   1.973   3.408  0.3538 -0.6467 -0.1872
14187TIP3   OH264051   5.372   3.225   3.021  0.0077  0.1235  0.6120
14187TIP3    H164052   5.350   3.237   2.929 -2.0224 -0.0817  1.0329
14187TIP3    H264053   5.391   3.313   3.053  1.4105  0.1196 -0.1307
14188TIP3   OH264054   4.105   6.641  15.523 -0.0592 -0.0991  0.1861
14188TIP3    H164055   4.070   6.697  15.592 -1.5441 -0.5249 -0.1974
14188TIP3    H264056   4.071   6.678  15.441  0.6281 -0.3617 -0.2360
14189TIP3   OH264057   4.100   0.066   1.571  0.2386 -0.0677 -0.1568
14189TIP3    H164058   4.154   0.060   1.492  0.1738 -1.8810 -0.1068
14189TIP3    H264059   4.162   0.089   1.640  0.7753 -0.9676 -0.3148
14190TIP3   OH264060   5.484   0.296   5.472 -0.3908  0.0843  0.0644
14190TIP3    H164061   5.476   0.375   5.418  0.7747 -0.1015 -0.4073
14190TIP3    H264062   5.431   0.231   5.426  1.0373 -0.2340 -1.2090
14191TIP3   OH264063   3.052   0.373  12.856  0.1984  0.5413  0.0645
14191TIP3    H164064   3.123   0.333  12.806 -1.5813 -1.6072 -0.9208
14191TIP3    H264065   2.991   0.301  12.872 -0.9750  1.9204  2.3656
14192TIP3   OH264066   0.556   3.898  11.319  0.2642  0.3768 -0.2076
14192TIP3    H164067   0.579   3.845  11.242  0.2566 -0.0201  0.0596
14192TIP3    H264068   0.579   3.987  11.294 -0.3831  0.3516 -0.9276
14193TIP3   OH264069   1.096   5.708   3.730  0.3338 -0.0954  0.1667
14193TIP3    H164070   1.082   5.692   3.823  0.8295 -1.3653  0.0440
14193TIP3    H264071   1.188   5.734   3.724  0.4599 -0.5803 -0.0297
14194TIP3   OH264072   0.860   0.307   3.577  0.7717 -0.4556 -0.3635
14194TIP3    H164073   0.906   0.267   3.651 -0.7736  0.1622  1.0030
14194TIP3    H264074   0.799   0.368   3.618 -0.6992 -0.6771 -2.1258
14195TIP3   OH264075   2.372   5.358  17.271 -0.3092  0.1098 -0.5888
14195TIP3    H164076   2.457   5.315  17.285 -0.2595  0.1066 -0.8955
14195TIP3    H264077   2.310   5.285  17.263 -0.3289  0.1100 -0.4374
14196TIP3   OH264078   4.666   4.623  13.310 -0.0661 -0.2274  0.4160
14196TIP3    H164079   4.657   4.547  13.253 -0.6681 -0.3738  0.6910
14196TIP3    H264080   4.677   4.586  13.398  0.1961 -0.0032  0.4772
14197TIP3   OH264081   4.142   5.274   2.127 -0.0472 -0.5072  0.3479
14197TIP3    H164082   4.077   5.225   2.077 -0.5867 -0.3807  0.9214
14197TIP3    H264083   4.212   5.291   2.064 -0.7562 -0.2712 -0.3946
14198TIP3   OH264084   2.710   0.988   5.970 -0.4000 -0.5730 -0.2658
14198TIP3    H164085   2.743   1.077   5.970  0.4230 -0.8517  0.8384
14198TIP3    H264086   2.672   0.977   6.057 -0.5209 -1.2849 -0.4002
14199TIP3   OH264087   4.342   3.941  13.865 -0.4351  0.6394  0.3994
14199TIP3    H164088   4.382   3.961  13.781 -0.2210  1.1014  0.6083
14199TIP3    H264089   4.329   4.026  13.907 -1.5539  0.4932  0.3808
14200TIP3   OH264090   2.485   0.501   2.032 -0.4113  0.4436  0.5874
14200TIP3    H164091   2.393   0.494   2.060 -0.4244 -1.2708  0.2481
14200TIP3    H264092   2.534   0.514   2.113 -0.9872  2.1567  0.7036
14201TIP3   OH264093   0.843   0.938   0.113 -0.1177  0.5293 -0.3052
14201TIP3    H164094   0.786   0.871   0.151  0.6034  1.1254  1.9192
14201TIP3    H264095   0.785   1.013   0.098 -0.1000  0.9017  1.3271
14202TIP3   OH264096   1.072   5.105  15.071 -0.2856  0.3876 -0.6395
14202TIP3    H164097   1.045   5.021  15.033 -0.7420  0.0570  0.3965
14202TIP3    H264098   1.039   5.171  15.010 -0.9661 -0.1297 -0.8370
14203TIP3   OH264099   0.854   5.874   6.838 -0.4420 -0.3289 -0.0345
14203TIP3    H164100   0.790   5.809   6.868 -0.3680 -0.8385 -0.9369
14203TIP3    H264101   0.927   5.821   6.804 -0.3558  0.2299 -0.7292
14204TIP3   OH264102   3.822   1.831  12.799 -0.2012  0.2686 -0.6567
14204TIP3    H164103   3.767   1.756  12.775  0.3006 -0.2346 -0.2606
14204TIP3    H264104   3.911   1.797  12.794 -0.0165  0.4981  0.7016
14205TIP3   OH264105   4.117   4.441   2.923 -0.2061 -0.3368 -0.9304
14205TIP3    H164106   4.105   4.515   2.863 -1.3565 -2.0714 -2.9804
14205TIP3    H264107   4.132   4.366   2.866  0.1446 -1.8583  1.0428
14206TIP3   OH264108   1.142   1.417  13.964 -0.0111 -0.3505 -0.0959
14206TIP3    H164109   1.127   1.333  13.921 -2.1904  0.1584 -0.4438
14206TIP3    H264110   1.182   1.395  14.048 -0.2883 -1.7055 -0.3032
14207TIP3   OH264111   2.130   6.395  16.866  0.4419  0.1121  0.3936
14207TIP3    H164112   2.057   6.452  16.841  0.2423  0.0766  0.8722
14207TIP3    H264113   2.205   6.453  16.876 -0.5164  0.9396  4.3752
14208TIP3   OH264114   1.213   1.559   1.476 -0.8331 -0.0144  0.5945
14208TIP3    H164115   1.191   1.561   1.570 -2.6316 -1.0658  0.2438
14208TIP3    H264116   1.220   1.651   1.452 -0.1967  0.2753  1.7866
14209TIP3   OH264117   5.319   3.449  12.666  0.6275 -0.0749  0.1548
14209TIP3    H164118   5.318   3.544  12.655  1.5662 -0.0027  0.5525
14209TIP3    H264119   5.287   3.415  12.583 -3.4581  0.6056  1.2388
14210TIP3   OH264120   3.002   3.424  12.402  0.2425 -0.3526  0.3437
14210TIP3    H164121   2.929   3.482  12.380 -1.4354 -2.6754 -0.7414
14210TIP3    H264122   3.068   3.442  12.335 -0.3255  0.1860 -0.0829
14211TIP3   OH264123   1.679   4.594   3.994  0.3629  0.1729  0.2861
14211TIP3    H164124   1.595   4.567   3.957  0.4872  0.8181 -0.5005
14211TIP3    H264125   1.708   4.666   3.938  3.7405 -3.0047 -2.5457
14212TIP3   OH264126   5.710   5.375   5.331  0.0063 -0.0357 -0.0100
14212TIP3    H164127   5.787   5.412   5.373 -0.8976  0.0991  1.6094
14212TIP3    H264128   5.648   5.362   5.402 -2.7703  2.9957 -1.5801
14213TIP3   OH264129   1.587   1.660   1.964  0.9743 -0.2776 -0.7567
14213TIP3    H164130   1.581   1.727   1.895  0.3021 -0.8008 -1.2144
14213TIP3    H264131   1.505   1.666   2.011  1.3386 -0.0829 -0.1357
14214TIP3   OH264132   4.897   6.392  16.337 -0.0289 -0.0239  0.0947
14214TIP3    H164133   4.846   6.473  16.340  0.5890  0.4078 -0.6330
14214TIP3    H264134   4.943   6.389  16.421 -0.5585  0.0423  0.3899
14215TIP3   OH264135   6.211   2.901  11.778  0.5021  0.1248  0.5293
14215TIP3    H164136   6.160   2.977  11.751 -0.0678 -0.5315 -0.3003
14215TIP3    H264137   6.258   2.930  11.856 -1.1760  0.7354  1.3534
14216TIP3   OH264138   0.269   3.364   3.248 -0.3310  0.3183  0.1028
14216TIP3    H164139   0.199   3.422   3.279  0.0821  0.4631  0.7887
14216TIP3    H264140   0.350   3.410   3.271 -0.0076  0.0829 -0.5527
14217TIP3   OH264141   3.537   2.218   5.248 -0.2718 -0.8875 -0.3843
14217TIP3    H164142   3.606   2.232   5.312 -0.0953  0.0909 -0.7608
14217TIP3    H264143   3.495   2.136   5.274  0.1453 -0.7812  0.6482
14218TIP3   OH264144   4.852   6.054   3.362 -0.3080  0.3986  0.1943
14218TIP3    H164145   4.855   6.022   3.272  2.5017  1.2734 -0.0976
14218TIP3    H264146   4.815   6.143   3.355  3.6785  2.2078 -0.8430
14219TIP3   OH264147   1.174   2.720   0.069 -0.0868  0.0824  0.3371
14219TIP3    H164148   1.116   2.758   0.002  0.3654  1.2356  0.5717
14219TIP3    H264149   1.161   2.776   0.146  1.0356  0.1114  0.5233
14220TIP3   OH264150   0.652   1.164  16.162  0.6723 -0.2869 -0.0762
14220TIP3    H164151   0.578   1.163  16.222  0.4343 -1.1207 -0.3866
14220TIP3    H264152   0.711   1.230  16.199 -0.6159  1.0566 -0.3259
14221TIP3   OH264153   2.032   3.613   5.634  0.2572 -0.1091 -0.3096
14221TIP3    H164154   1.986   3.696   5.645 -2.1241 -1.4063  0.3989
14221TIP3    H264155   2.021   3.569   5.718  1.5620 -1.1089 -0.6352
14222TIP3   OH264156   5.629   0.310  14.568  0.1841 -0.2210 -0.0237
14222TIP3    H164157   5.545   0.357  14.563  0.1919 -0.2430 -0.3791
14222TIP3    H264158   5.693   0.378  14.589  0.3558  0.1240 -1.5333
14223TIP3   OH264159   6.706   2.588   3.511  0.2427 -0.0285  0.1427
14223TIP3    H164160   6.728   2.679   3.530  0.7995 -0.3477  1.0953
14223TIP3    H264161   6.744   2.572   3.425 -0.0748  0.6971 -0.1488
14224TIP3   OH264162   4.655   4.677  10.716  0.0031 -0.0603 -0.1371
14224TIP3    H164163   4.638   4.604  10.657  2.2858 -0.5545 -0.2642
14224TIP3    H264164   4.734   4.718  10.682  0.8546  0.2387  2.0121
14225TIP3   OH264165   5.548   4.910  11.331 -0.2585  0.4250  0.6262
14225TIP3    H164166   5.486   4.918  11.259  1.4050  2.8408 -0.6476
14225TIP3    H264167   5.625   4.869  11.292 -0.1119 -0.2538  1.5913
14226TIP3   OH264168   2.297   1.779   5.539  0.0645 -0.1153  0.0735
14226TIP3    H164169   2.391   1.774   5.553  0.5508  0.2569 -2.5236
14226TIP3    H264170   2.273   1.868   5.567  0.4144 -0.2995  0.9860
14227TIP3   OH264171   5.741   1.517  12.678  0.0429 -0.1249 -0.0278
14227TIP3    H164172   5.795   1.539  12.602  0.2332 -0.6415 -0.0431
14227TIP3    H264173   5.712   1.427  12.662 -0.6694  0.0833  0.0691
14228TIP3   OH264174   6.733   0.094   3.095  0.0113 -0.2446 -0.6912
14228TIP3    H164175   6.710   0.029   3.029  1.9079 -1.4970 -0.1967
14228TIP3    H264176   6.743   0.044   3.176  3.3745  0.2284 -0.6602
14229TIP3   OH264177   5.199   1.099  13.116 -0.8126 -0.0580  0.1403
14229TIP3    H164178   5.118   1.099  13.166 -2.4025 -2.7747 -2.2107
14229TIP3    H264179   5.172   1.114  13.025  1.2113 -1.5707 -0.7886
14230TIP3   OH264180   3.738   0.746  16.526 -0.5394  0.0876 -0.0837
14230TIP3    H164181   3.682   0.798  16.469 -0.2804  0.9191  0.4105
14230TIP3    H264182   3.695   0.747  16.611  0.2397  0.7909  0.3185
14231TIP3   OH264183   2.981   3.374  13.771  0.2484 -1.0347  0.1462
14231TIP3    H164184   2.924   3.335  13.837 -0.5119 -0.8580 -0.3880
14231TIP3    H264185   2.923   3.430  13.719  1.0594 -0.2624  0.0509
14232TIP3   OH264186   4.481   3.152   0.858  0.7543 -0.4357 -0.5375
14232TIP3    H164187   4.518   3.174   0.772  2.0440 -0.3337  0.0138
14232TIP3    H264188   4.505   3.060   0.871 -0.8831 -0.9594 -0.9777
14233TIP3   OH264189   3.795   3.361  12.932  0.1935  0.3106  0.5500
14233TIP3    H164190   3.809   3.294  13.000  0.0467  1.2217  1.4968
14233TIP3    H264191   3.704   3.389  12.945  0.5419  1.3534  0.7655
14234TIP3   OH264192   1.899   4.191   3.977 -0.3034 -0.5409 -0.0101
14234TIP3    H164193   1.885   4.286   3.980  2.8353  0.0958 -1.1946
14234TIP3    H264194   1.984   4.178   4.019 -0.4151 -2.7844 -0.3492
14235TIP3   OH264195   0.878   5.909  11.336 -0.0488 -0.7768 -0.0797
14235TIP3    H164196   0.823   5.941  11.265 -1.6323 -2.9071  0.0590
14235TIP3    H264197   0.957   5.877  11.294  0.5011  0.9605 -0.4547
14236TIP3   OH264198   3.357   3.418  14.493  0.5750  0.6428  0.1564
14236TIP3    H164199   3.296   3.418  14.419 -0.1321  0.7727  0.7182
14236TIP3    H264200   3.362   3.327  14.521  0.8721  0.5880 -0.0735
14237TIP3   OH264201   3.833   6.181  15.870  0.3100 -0.2747 -0.6795
14237TIP3    H164202   3.801   6.111  15.813  2.0693 -0.4005 -1.5748
14237TIP3    H264203   3.763   6.246  15.868 -0.5152 -1.1357 -1.4155
14238TIP3   OH264204   2.755   0.206   4.842 -0.2777  0.6841  0.2585
14238TIP3    H164205   2.761   0.171   4.753  1.0748 -2.4766  1.4696
14238TIP3    H264206   2.691   0.151   4.885 -0.9773  2.2380  1.2599
14239TIP3   OH264207   3.180   4.472   1.402 -0.2137 -0.1505 -0.5657
14239TIP3    H164208   3.214   4.425   1.325 -0.2905 -1.5073  0.1865
14239TIP3    H264209   3.129   4.406   1.449 -0.6363  0.8125  0.3636
14240TIP3   OH264210   3.214   4.736  15.518  0.1218 -0.3393 -0.3615
14240TIP3    H164211   3.152   4.711  15.449 -0.3645  0.0254 -0.0659
14240TIP3    H264212   3.263   4.656  15.537  0.0970 -0.4986 -0.9685
14241TIP3   OH264213   6.572   0.871  15.796 -0.0263 -0.5462  0.3159
14241TIP3    H164214   6.625   0.799  15.763  1.6143  0.4920  0.5356
14241TIP3    H264215   6.631   0.918  15.856 -1.5653  0.0282  1.4462
14242TIP3   OH264216   1.128   4.899  17.244  0.0852 -0.4688  0.3148
14242TIP3    H164217   1.036   4.924  17.245 -0.5115 -2.4248 -0.7413
14242TIP3    H264218   1.156   4.909  17.335 -1.4238 -0.7358  0.8419
14243TIP3   OH264219   3.580   5.968   3.973  0.0795  0.5049 -0.2536
14243TIP3    H164220   3.617   5.928   3.894 -1.5176  0.5588 -1.0971
14243TIP3    H264221   3.605   5.910   4.044  2.1848  0.8464 -0.6643
14244TIP3   OH264222   3.164   6.628   1.126  0.4653  0.4983  0.4280
14244TIP3    H164223   3.229   6.558   1.132  0.6958  0.2098 -3.2893
14244TIP3    H264224   3.212   6.703   1.091 -0.9215  0.4988 -1.6827
14245TIP3   OH264225   5.324   6.063  11.356 -0.9148 -0.1106  0.3919
14245TIP3    H164226   5.324   5.976  11.395  0.0296 -0.5098 -0.4411
14245TIP3    H264227   5.279   6.119  11.419 -2.0695 -1.3181  0.6664
14246TIP3   OH264228   4.252   1.527   2.404 -0.4002  0.1972 -0.7360
14246TIP3    H164229   4.257   1.461   2.473  0.6423  1.2557  0.2569
14246TIP3    H264230   4.312   1.495   2.337 -0.2921 -0.1200 -0.4941
14247TIP3   OH264231   6.733   3.646   1.874 -0.4731  0.1231  0.1359
14247TIP3    H164232   6.799   3.579   1.894  0.0857  0.5084 -0.3798
14247TIP3    H264233   6.655   3.618   1.921  0.2763  0.0461  1.3852
14248TIP3   OH264234   2.935   1.799  12.197  0.0865 -0.6840 -0.2113
14248TIP3    H164235   2.968   1.758  12.277 -2.1900 -1.7372  0.2747
14248TIP3    H264236   3.001   1.865  12.175  2.3944 -2.5053  0.7069
14249TIP3   OH264237   5.445   2.250  15.745  0.1027 -0.4423 -0.1004
14249TIP3    H164238   5.353   2.227  15.735 -0.1371  0.6418 -0.5811
14249TIP3    H264239   5.462   2.315  15.676  1.3714 -1.0215 -0.3715
14250TIP3   OH264240   3.537   3.751  11.153  0.0623 -0.0095  0.5161
14250TIP3    H164241   3.592   3.688  11.105  1.7855 -1.0863  3.6159
14250TIP3    H264242   3.592   3.829  11.162 -0.0316 -0.0042  1.0960
14251TIP3   OH264243   2.629   2.892   2.677  0.5024 -0.3462  0.2482
14251TIP3    H164244   2.601   2.954   2.744  1.1126  0.3987 -0.1768
14251TIP3    H264245   2.565   2.821   2.682 -0.9090  0.8635 -0.0677
14252TIP3   OH264246   5.509   3.480   4.436  0.0115 -0.6725 -0.0010
14252TIP3    H164247   5.508   3.426   4.515  1.8681  0.4411  0.8401
14252TIP3    H264248   5.539   3.421   4.367 -0.2373 -1.2856  0.4076
14253TIP3   OH264249   5.856   3.435   3.911 -0.4862 -0.4360 -0.0309
14253TIP3    H164250   5.912   3.512   3.915 -0.2887 -0.5355 -0.7266
14253TIP3    H264251   5.767   3.470   3.915 -0.3872 -0.2887  1.2421
14254TIP3   OH264252   4.478   2.664  16.864 -0.1269  0.5862 -0.2277
14254TIP3    H164253   4.409   2.729  16.851 -0.7957  0.2339  1.3003
14254TIP3    H264254   4.433   2.580  16.856  0.5541  0.3142 -1.2857
14255TIP3   OH264255   4.141   1.871  14.962 -0.0685 -0.3425  0.2717
14255TIP3    H164256   4.100   1.789  14.934 -0.6147 -0.4371  1.3074
14255TIP3    H264257   4.139   1.867  15.057  2.6122 -0.4765  0.3882
14256TIP3   OH264258   6.151   0.955  13.597  0.6961 -0.7873  0.2387
14256TIP3    H164259   6.221   0.894  13.574 -1.1796 -2.4581 -1.4539
14256TIP3    H264260   6.160   1.027  13.535  2.6414  0.5416  1.9493
14257TIP3   OH264261   0.393   0.220  12.282 -0.0185 -0.3619 -0.2171
14257TIP3    H164262   0.319   0.214  12.222 -0.0844  0.1293 -0.1900
14257TIP3    H264263   0.403   0.314  12.299  0.6254 -0.4159 -0.2457
14258TIP3   OH264264   0.698   3.370   2.808  0.9234  0.1823 -0.4740
14258TIP3    H164265   0.757   3.340   2.877 -1.2658 -1.7327  0.6809
14258TIP3    H264266   0.613   3.378   2.851 -0.5386 -1.1381 -2.9162
14259TIP3   OH264267   5.920   5.608  16.462 -0.4469 -0.2190  0.1159
14259TIP3    H164268   6.012   5.633  16.454 -0.1008 -1.4461  0.0507
14259TIP3    H264269   5.883   5.627  16.376 -0.2097  0.1071  0.0827
14260TIP3   OH264270   2.999   3.322  14.069 -0.2986  0.1180  0.2764
14260TIP3    H164271   3.017   3.409  14.105  0.3117  0.3572 -0.5730
14260TIP3    H264272   3.082   3.295  14.030 -0.5355 -0.7766  0.3775
14261TIP3   OH264273   4.286   3.714   3.598 -0.5133  0.0431  0.7662
14261TIP3    H164274   4.192   3.724   3.615 -0.7998 -0.3263 -0.5011
14261TIP3    H264275   4.320   3.803   3.601 -1.1764  0.3435 -0.1939
14262TIP3   OH264276   2.618   5.477   4.877 -0.8345  0.6763 -0.5429
14262TIP3    H164277   2.599   5.556   4.928 -0.9589  0.7622 -0.7190
14262TIP3    H264278   2.534   5.431   4.873 -0.7372  0.4825 -0.3502
14263TIP3   OH264279   4.128   4.231  13.779  0.0978  0.2084 -0.4234
14263TIP3    H164280   4.076   4.211  13.701 -0.5243  2.1159 -0.5489
14263TIP3    H264281   4.066   4.224  13.851 -0.0239  1.1885 -0.4250
14264TIP3   OH264282   5.305   4.665   3.945  0.2833 -0.1346 -0.2625
14264TIP3    H164283   5.277   4.710   4.025 -0.9095 -1.6792  0.2450
14264TIP3    H264284   5.224   4.627   3.911  1.2061 -1.6528 -0.8072
14265TIP3   OH264285   0.908   5.786  16.118  0.0375  0.1520  0.0603
14265TIP3    H164286   0.961   5.800  16.039  1.0504 -0.9467  0.5157
14265TIP3    H264287   0.968   5.743  16.179 -0.8362  0.6865  1.3159
14266TIP3   OH264288   6.164   6.553  13.520 -0.1333  0.0982 -0.0397
14266TIP3    H164289   6.086   6.579  13.569  0.5004  2.5470 -0.1976
14266TIP3    H264290   6.135   6.550  13.429 -0.2629  0.0755  0.0018
14267TIP3   OH264291   5.055   1.899   5.863 -0.2312  0.0705 -0.1309
14267TIP3    H164292   5.026   1.966   5.924  0.0373 -0.3625  0.4821
14267TIP3    H264293   5.140   1.930   5.831  0.6571 -0.7354  1.3794
14268TIP3   OH264294   1.377   5.274  12.979  0.5761 -0.1983  0.3286
14268TIP3    H164295   1.407   5.295  12.890 -0.5137 -2.0453 -0.5371
14268TIP3    H264296   1.457   5.263  13.029  1.2970 -1.3369 -1.0040
14269TIP3   OH264297   4.319   1.652  11.984 -0.0585  0.0497  0.1296
14269TIP3    H164298   4.395   1.691  12.027  0.1539  0.2686 -0.4376
14269TIP3    H264299   4.329   1.558  11.997  1.0036 -0.0237 -1.0612
14270TIP3   OH264300   4.458   6.799   0.074 -0.5255 -0.2702  0.0392
14270TIP3    H164301   4.491   6.740   0.006  0.4108  0.4976 -0.1972
14270TIP3    H264302   4.527   6.800   0.141  0.6475  2.3347 -1.0412
14271TIP3   OH264303   0.203   2.148  15.385 -0.2076  0.0692 -0.1838
14271TIP3    H164304   0.172   2.106  15.466  0.9408 -0.0242  0.2315
14271TIP3    H264305   0.236   2.233  15.414  1.9731 -0.7055 -0.1974
14272TIP3   OH264306   1.485   0.229  13.162 -0.5185 -0.0658 -0.1793
14272TIP3    H164307   1.514   0.165  13.227  0.1593  0.6603  0.2436
14272TIP3    H264308   1.533   0.206  13.083  0.5962  0.6145  0.2878
14273TIP3   OH264309   4.437   1.828  14.273  0.3787  0.3750  0.0274
14273TIP3    H164310   4.444   1.751  14.216  0.7905  0.4834 -0.0743
14273TIP3    H264311   4.379   1.888  14.225 -0.3549 -0.0707  0.3409
14274TIP3   OH264312   2.399   4.259  16.921  0.2618  0.2176  0.4923
14274TIP3    H164313   2.374   4.255  17.014  1.3226  0.9618  0.8372
14274TIP3    H264314   2.347   4.331  16.886 -1.2378 -1.0029  0.1228
14275TIP3   OH264315   1.038   3.790   3.099 -0.0566  0.4278 -0.1203
14275TIP3    H164316   1.110   3.843   3.133 -0.0513  0.8690 -0.7935
14275TIP3    H264317   0.997   3.753   3.177 -0.7962  2.3623  0.4902
14276TIP3   OH264318   1.733   6.438  16.449 -0.6045 -0.3187  0.5925
14276TIP3    H164319   1.667   6.497  16.413  0.2569  0.3571  0.0922
14276TIP3    H264320   1.758   6.477  16.533 -0.8620 -0.6070  0.8103
14277TIP3   OH264321   1.295   4.544  15.242  0.3293 -0.3139 -0.9210
14277TIP3    H164322   1.237   4.613  15.274 -0.1145 -1.0584 -0.0977
14277TIP3    H264323   1.263   4.464  15.283  0.9645 -0.9866 -1.7066
14278TIP3   OH264324   5.410   6.756  11.859  0.4589  0.0009 -0.4980
14278TIP3    H164325   5.459   6.686  11.902  3.7492  0.1409 -3.5479
14278TIP3    H264326   5.345   6.711  11.806  0.8821 -0.6108 -0.5075
14279TIP3   OH264327   1.338   5.874   3.392 -0.3265 -0.4177 -0.1772
14279TIP3    H164328   1.384   5.921   3.323 -1.5718 -1.0022 -1.4631
14279TIP3    H264329   1.246   5.898   3.380 -0.8245 -2.0923 -0.0268
14280TIP3   OH264330   3.585   3.405   1.639  0.0900 -0.8313 -0.2317
14280TIP3    H164331   3.576   3.408   1.544  2.4430 -3.2110 -0.6632
14280TIP3    H264332   3.527   3.334   1.666 -1.5009  0.6275  0.3348
14281TIP3   OH264333   0.366   1.616   4.197 -0.2263 -0.1097  0.5197
14281TIP3    H164334   0.418   1.547   4.239  0.8049  1.5942  2.1848
14281TIP3    H264335   0.331   1.574   4.118  1.5829 -2.0943  0.6571
14282TIP3   OH264336   4.005   6.735  12.558  0.5166 -0.0156 -0.3243
14282TIP3    H164337   3.921   6.766  12.592  1.4873  1.3753  0.8939
14282TIP3    H264338   4.034   6.804  12.499  0.6196 -0.7070 -1.1071
14283TIP3   OH264339   5.027   2.427   0.719 -0.0387  0.2568 -0.0567
14283TIP3    H164340   5.074   2.400   0.798 -0.5327  1.0125  0.5093
14283TIP3    H264341   5.095   2.459   0.660  0.3106 -0.1071  0.1443
14284TIP3   OH264342   5.117   0.795   5.538 -0.0170  0.2251 -0.9871
14284TIP3    H164343   5.186   0.855   5.512  0.1564  0.4536 -0.0303
14284TIP3    H264344   5.118   0.727   5.470  0.1685  0.9826 -1.7614
14285TIP3   OH264345   4.227   5.576   4.334  0.1872 -0.5758 -0.0432
14285TIP3    H164346   4.165   5.629   4.384  0.3105  0.2475 -0.7252
14285TIP3    H264347   4.172   5.526   4.273  0.1802  0.2746 -0.7579
14286TIP3   OH264348   3.806   4.927   1.778 -0.1298 -0.2301 -0.0727
14286TIP3    H164349   3.797   5.022   1.788 -0.7527 -0.3290  0.3188
14286TIP3    H264350   3.721   4.898   1.745 -0.5098 -0.8659  1.4026
14287TIP3   OH264351   5.085   1.084  14.254 -0.1976 -0.2946  0.2611
14287TIP3    H164352   5.147   1.014  14.230  0.3453  0.7887 -1.7477
14287TIP3    H264353   5.139   1.151  14.295 -0.3717 -0.1526  0.2599
14288TIP3   OH264354   1.222   5.493  12.340 -0.4679 -0.3361 -0.1375
14288TIP3    H164355   1.235   5.577  12.296 -1.6425 -0.2699 -0.3916
14288TIP3    H264356   1.271   5.430  12.287  1.3783  0.3335  0.6941
14289TIP3   OH264357   2.563   1.000   0.499  0.4418 -0.0945 -0.0410
14289TIP3    H164358   2.587   0.986   0.408 -0.5527  1.5228 -0.5780
14289TIP3    H264359   2.522   0.917   0.526  0.6328 -0.5396 -1.0921
14290TIP3   OH264360   3.937   1.796   2.035  0.2490 -0.0716  0.2541
14290TIP3    H164361   4.018   1.803   2.086  0.9562 -1.0288 -0.7118
14290TIP3    H264362   3.964   1.760   1.951 -1.1124  0.1251 -0.2923
14291TIP3   OH264363   0.699   2.956  15.452  0.5091  0.8653  0.4963
14291TIP3    H164364   0.792   2.980  15.459  1.7803 -3.0205 -0.3878
14291TIP3    H264365   0.678   2.921  15.538  1.2467 -2.0216 -0.3893
14292TIP3   OH264366   3.911   5.125   4.547 -0.2250 -0.3091 -0.0672
14292TIP3    H164367   3.895   5.143   4.454 -0.4497  0.6364  0.1364
14292TIP3    H264368   3.876   5.202   4.592  0.1931 -0.6000  0.7780
14293TIP3   OH264369   4.223   5.331  14.818 -0.0978  0.3593 -0.3009
14293TIP3    H164370   4.190   5.418  14.841  1.3721  0.5228  1.4081
14293TIP3    H264371   4.232   5.286  14.902 -0.0038 -1.1598 -1.0850
14294TIP3   OH264372   0.480   1.657   2.422 -0.9015  0.2568  0.3708
14294TIP3    H164373   0.481   1.671   2.517 -0.2968  1.7685  0.1722
14294TIP3    H264374   0.485   1.562   2.412 -1.8915  0.0111  1.8511
14295TIP3   OH264375   0.216   5.311   3.699  0.4093  0.1093 -0.0502
14295TIP3    H164376   0.129   5.282   3.671  0.4612  0.4745 -0.5945
14295TIP3    H264377   0.201   5.350   3.786  0.4179 -1.9247  0.9098
14296TIP3   OH264378   3.030   1.033  15.580  0.4945  0.5877 -0.6972
14296TIP3    H164379   3.004   1.106  15.524 -1.6306  0.1131 -0.4214
14296TIP3    H264380   3.080   0.975  15.522  1.4427  1.8024 -1.1361
14297TIP3   OH264381   6.296   2.975  14.389  0.3655 -0.0866 -0.3641
14297TIP3    H164382   6.335   3.046  14.439 -1.5062 -0.3372  1.6484
14297TIP3    H264383   6.287   2.904  14.453 -2.2864 -0.3838 -0.9646
14298TIP3   OH264384   6.132   5.208  14.494  0.2184 -0.3475 -0.1503
14298TIP3    H164385   6.057   5.225  14.550 -0.7827  0.0893 -1.5812
14298TIP3    H264386   6.184   5.288  14.499 -0.1284 -0.1152 -0.2455
14299TIP3   OH264387   0.187   1.567  16.175 -0.1903  0.4724  0.2290
14299TIP3    H164388   0.255   1.567  16.107  0.6920 -0.5673  1.0656
14299TIP3    H264389   0.117   1.513  16.140  0.8376 -1.2080  0.6425
14300TIP3   OH264390   2.064   6.634   6.393  0.3411  0.0289 -0.0089
14300TIP3    H164391   2.071   6.703   6.327  1.5465 -1.3004 -1.3459
14300TIP3    H264392   1.973   6.604   6.387 -0.2931  1.6398  0.8033
14301TIP3   OH264393   6.505   4.540   1.265  0.2167  0.3668  0.9563
14301TIP3    H164394   6.539   4.630   1.265  1.8335 -0.1723 -0.9772
14301TIP3    H264395   6.410   4.551   1.260  0.4205  2.0123 -0.3035
14302TIP3   OH264396   5.310   6.586  13.141  0.1146  0.0694  0.0334
14302TIP3    H164397   5.220   6.601  13.170  0.4620 -0.4047  1.4129
14302TIP3    H264398   5.351   6.673  13.146 -0.3614  0.3842 -1.0629
14303TIP3   OH264399   4.922   6.260  16.600  0.3197 -0.6839 -0.4510
14303TIP3    H164400   4.926   6.312  16.680 -0.3316 -0.4334 -0.5711
14303TIP3    H264401   4.959   6.176  16.624 -1.3937 -1.1898  0.6020
14304TIP3   OH264402   3.303   1.334  13.749 -0.4549 -0.0917 -0.2126
14304TIP3    H164403   3.326   1.295  13.834 -0.0740 -0.3900 -0.4486
14304TIP3    H264404   3.263   1.418  13.771  0.5411  0.2857  0.2367
14305TIP3   OH264405   1.409   1.235  11.058  0.2875  0.0680 -0.0838
14305TIP3    H164406   1.332   1.231  11.001 -1.0530 -0.6013  1.6652
14305TIP3    H264407   1.424   1.329  11.071  1.7458  0.3218 -2.8656
14306TIP3   OH264408   2.861   2.972  16.641  0.4541  0.3909 -0.1420
14306TIP3    H164409   2.895   3.055  16.608 -0.5541 -0.0725 -2.5602
14306TIP3    H264410   2.780   2.996  16.686  0.1253  0.7290 -0.8944
14307TIP3   OH264411   2.638   6.705  17.065  0.0042  0.3633 -0.1551
14307TIP3    H164412   2.708   6.766  17.088  0.7261 -0.8264  0.8638
14307TIP3    H264413   2.658   6.625  17.112 -2.9646  0.4895  1.5601
14308TIP3   OH264414   3.358   3.375  12.237 -0.5248  0.0856  0.6058
14308TIP3    H164415   3.450   3.352  12.230 -0.4861  0.4665 -0.4272
14308TIP3    H264416   3.335   3.358  12.328  0.4604 -0.3861  0.7754
14309TIP3   OH264417   4.697   1.828   6.670  0.1741 -0.0394 -0.3911
14309TIP3    H164418   4.607   1.798   6.683  0.1834 -0.5241 -1.3605
14309TIP3    H264419   4.719   1.873   6.752 -0.3363 -1.4541  0.5711
14310TIP3   OH264420   0.213   4.644  13.746  0.3177 -0.1955 -0.2072
14310TIP3    H164421   0.193   4.562  13.702 -0.3512 -0.1171 -0.0543
14310TIP3    H264422   0.186   4.631  13.836 -1.3303  0.7289 -0.5265
14311TIP3   OH264423   2.657   4.301   2.600  0.6210  0.0626 -0.1360
14311TIP3    H164424   2.582   4.287   2.541  1.6739 -2.0314 -1.1082
14311TIP3    H264425   2.629   4.371   2.658 -1.8857 -0.2671 -0.8173
14312TIP3   OH264426   4.317   2.140   5.488  0.1059 -0.0033  0.1209
14312TIP3    H164427   4.366   2.119   5.567  0.0952 -1.6952 -0.2884
14312TIP3    H264428   4.384   2.170   5.426  0.2353  0.3880  0.4434
14313TIP3   OH264429   2.289   1.164   0.596 -0.2980  0.7313  0.0203
14313TIP3    H164430   2.282   1.106   0.672 -2.0790  1.2930  0.3299
14313TIP3    H264431   2.234   1.239   0.617 -1.0209  0.8178 -1.8947
14314TIP3   OH264432   0.826   2.169  12.077  0.1448  0.4070 -0.2012
14314TIP3    H164433   0.904   2.208  12.116  0.7193 -0.8626 -0.0020
14314TIP3    H264434   0.835   2.186  11.983  1.1986 -0.5614 -0.3028
14315TIP3   OH264435   6.563   4.321   4.063  0.8398 -0.0932 -0.1772
14315TIP3    H164436   6.654   4.295   4.052  1.3875  1.6076  0.1678
14315TIP3    H264437   6.539   4.287   4.150  0.1283 -3.2112 -1.4423
14316TIP3   OH264438   6.387   0.523   0.996 -0.0872  0.7898  0.2739
14316TIP3    H164439   6.345   0.534   0.911  2.6424 -0.0137 -1.2811
14316TIP3    H264440   6.397   0.428   1.006  4.5756  0.8692 -1.3130
14317TIP3   OH264441   1.683   5.121   4.643 -0.2592  0.4307 -0.3178
14317TIP3    H164442   1.595   5.091   4.620  0.2696 -0.1052 -1.7323
14317TIP3    H264443   1.671   5.213   4.667 -1.3533  0.0801  0.5928
14318TIP3   OH264444   5.024   5.756   5.771  0.2268 -0.2846 -0.4561
14318TIP3    H164445   5.116   5.736   5.760 -0.4068 -3.2007 -1.2016
14318TIP3    H264446   4.989   5.683   5.822 -1.7359  0.5594 -0.5077
14319TIP3   OH264447   2.264   2.764  15.123 -0.5315 -0.4807  0.0973
14319TIP3    H164448   2.215   2.761  15.041 -0.2430 -1.5338 -0.0601
14319TIP3    H264449   2.283   2.672  15.143 -1.1406 -0.2992  1.6728
14320TIP3   OH264450   4.518   2.046  11.442  0.3193 -0.8064 -0.2584
14320TIP3    H164451   4.503   2.123  11.498  1.5846  0.5236 -1.6502
14320TIP3    H264452   4.558   1.981  11.501  1.5714  0.5409  0.4528
14321TIP3   OH264453   5.954   0.986   6.068 -0.3468  0.0012 -0.5198
14321TIP3    H164454   5.946   1.062   6.125  1.1590 -0.6657  0.6513
14321TIP3    H264455   5.990   1.020   5.986  1.2677  0.4561  0.3361
14322TIP3   OH264456   0.611   0.853  14.686 -0.5949  0.3504  0.0087
14322TIP3    H164457   0.565   0.770  14.673  0.2084  0.0029 -0.7597
14322TIP3    H264458   0.672   0.858  14.612 -1.2375  2.0518 -0.4363
14323TIP3   OH264459   6.016   6.629  12.337 -0.1305  0.1296 -0.4500
14323TIP3    H164460   5.939   6.638  12.281  0.2727 -0.1220 -1.0482
14323TIP3    H264461   6.090   6.649  12.280  0.3723 -1.2719 -0.3338
14324TIP3   OH264462   3.363   6.247   4.891  0.3071 -0.1443  0.9619
14324TIP3    H164463   3.456   6.263   4.908  0.2357 -0.0314  1.2436
14324TIP3    H264464   3.338   6.178   4.951 -0.0426  0.5393  1.6182
14325TIP3   OH264465   3.208   3.682   3.712  0.2022  0.3024 -0.2417
14325TIP3    H164466   3.159   3.759   3.740 -1.5711 -0.0103 -2.2678
14325TIP3    H264467   3.205   3.624   3.788  0.9338  1.8786  1.0536
14326TIP3   OH264468   5.333   2.738   4.191 -0.4043  0.0392  0.1957
14326TIP3    H164469   5.419   2.705   4.164 -0.8603 -0.8287 -0.2488
14326TIP3    H264470   5.282   2.659   4.210 -1.2646  0.5189 -0.0512
14327TIP3   OH264471   3.261   0.692   1.083 -0.1162 -0.3526  0.1919
14327TIP3    H164472   3.306   0.770   1.117 -0.6845 -0.5629  1.4819
14327TIP3    H264473   3.195   0.672   1.149 -0.7867 -1.2249 -0.7157
14328TIP3   OH264474   6.681   5.368   5.963 -0.1658 -0.4381  0.6178
14328TIP3    H164475   6.705   5.276   5.948 -0.4966 -0.4074 -0.1630
14328TIP3    H264476   6.748   5.418   5.916 -0.5629 -0.3049  0.1930
14329TIP3   OH264477   2.428   5.316  15.145  0.4069 -0.1984  0.3548
14329TIP3    H164478   2.406   5.238  15.196  0.9094 -1.7763 -1.7137
14329TIP3    H264479   2.502   5.355  15.192  0.3507 -1.1283  1.2624
14330TIP3   OH264480   0.545   6.164   1.602 -0.0684 -0.5048  0.0544
14330TIP3    H164481   0.636   6.153   1.573  0.2474  3.0994 -0.8253
14330TIP3    H264482   0.493   6.123   1.533  0.8734 -0.4274 -0.7321
14331TIP3   OH264483   5.732   1.863   4.415  0.3778  0.4116  0.3878
14331TIP3    H164484   5.819   1.869   4.454  1.0290  0.5618 -1.0230
14331TIP3    H264485   5.685   1.800   4.468  0.6063  1.9275  2.5140
14332TIP3   OH264486   1.376   1.468   3.036 -0.2005 -0.4057  0.0209
14332TIP3    H164487   1.317   1.466   2.960  0.6307  1.6476 -0.7494
14332TIP3    H264488   1.373   1.559   3.066  0.9459 -0.7681  1.2894
14333TIP3   OH264489   0.578   3.639   5.537 -0.0868 -0.1780 -0.2879
14333TIP3    H164490   0.628   3.713   5.572 -0.1019 -0.5299  0.5186
14333TIP3    H264491   0.605   3.565   5.591  0.7296 -1.0029 -1.7820
14334TIP3   OH264492   0.848   3.889   1.737 -0.4259  0.4744  1.0658
14334TIP3    H164493   0.916   3.924   1.795  0.4137  1.2447 -0.3194
14334TIP3    H264494   0.824   3.963   1.681  0.3261 -0.7234 -0.9486
14335TIP3   OH264495   2.609   3.762   3.343 -0.7997 -0.4098 -0.7053
14335TIP3    H164496   2.568   3.843   3.312 -0.1027  0.4663  0.5530
14335TIP3    H264497   2.700   3.769   3.316  0.1460  0.9581  2.3649
14336TIP3   OH264498   6.386   0.423  11.431 -0.0250 -0.2499 -0.1617
14336TIP3    H164499   6.360   0.509  11.463 -1.3506 -1.0499  1.0193
14336TIP3    H264500   6.478   0.415  11.456 -0.6060 -0.2275  2.2240
14337TIP3   OH264501   4.250   5.613  13.581  0.6525 -0.5893  0.0605
14337TIP3    H164502   4.218   5.668  13.510 -2.5858 -1.6235  0.5609
14337TIP3    H264503   4.286   5.536  13.539 -0.0081 -0.5961 -0.4978
14338TIP3   OH264504   1.483   3.825  11.724 -0.1671 -0.4939 -0.7759
14338TIP3    H164505   1.527   3.765  11.784  1.0364  0.6752 -0.4187
14338TIP3    H264506   1.391   3.802  11.730  0.2576 -2.3850 -0.7726
14339TIP3   OH264507   2.010   3.373   4.890 -0.6384  0.3069  0.5882
14339TIP3    H164508   2.061   3.450   4.867 -0.1478 -0.0522  0.4612
14339TIP3    H264509   2.065   3.299   4.866 -1.3488 -0.0925  0.1475
14340TIP3   OH264510   1.696   0.077  11.537  0.2182  0.2604 -0.3222
14340TIP3    H164511   1.676   0.170  11.547  0.1167  0.3449 -1.2659
14340TIP3    H264512   1.714   0.066  11.444  1.3671 -0.4483 -0.0337
14341TIP3   OH264513   4.780   0.629  14.267  0.3827 -0.0808  1.2371
14341TIP3    H164514   4.810   0.712  14.304 -0.3454  1.0574 -0.5897
14341TIP3    H264515   4.684   0.636  14.268  0.3041  0.4511 -1.6439
14342TIP3   OH264516   5.794   1.246  16.920 -0.2287  0.3458  0.7099
14342TIP3    H164517   5.743   1.317  16.959 -2.1061  0.3677 -1.5149
14342TIP3    H264518   5.842   1.287  16.848  1.3002 -0.0906  1.4309
14343TIP3   OH264519   5.294   2.863  14.303 -0.5657 -0.0648  0.8059
14343TIP3    H164520   5.348   2.906  14.237  0.1015 -2.1516 -0.0913
14343TIP3    H264521   5.308   2.914  14.383  0.6371  1.0047 -0.0552
14344TIP3   OH264522   6.262   3.658   0.525  0.1872  0.0172 -0.4076
14344TIP3    H164523   6.338   3.696   0.480  0.1761  0.4586 -0.0569
14344TIP3    H264524   6.299   3.589   0.580  0.6928  1.9268  1.7542
14345TIP3   OH264525   2.647   1.282  14.730 -0.1125  0.1683  0.7055
14345TIP3    H164526   2.714   1.299  14.664 -0.2823 -0.8557  0.2550
14345TIP3    H264527   2.691   1.228  14.796 -0.8285 -1.7089 -0.2889
14346TIP3   OH264528   5.710   3.577  14.256  0.2659 -0.6771 -0.6719
14346TIP3    H164529   5.690   3.496  14.209 -1.0697 -0.4223 -0.5955
14346TIP3    H264530   5.800   3.566  14.286 -0.5609 -3.1344  1.2635
14347TIP3   OH264531   1.413   4.851  16.825  0.2814  0.1937 -0.2105
14347TIP3    H164532   1.344   4.805  16.873 -0.6967  1.9982  0.2162
14347TIP3    H264533   1.395   4.832  16.733 -1.0797  0.9624 -0.1367
14348TIP3   OH264534   1.075   0.226   0.882  0.2110 -0.1226  0.2907
14348TIP3    H164535   1.163   0.208   0.915 -0.0952 -1.3941  0.4943
14348TIP3    H264536   1.031   0.270   0.955  0.2251 -0.8666  0.7567
14349TIP3   OH264537   4.453   6.143  11.830 -0.0203  0.0126 -0.1337
14349TIP3    H164538   4.387   6.212  11.839 -0.2063 -0.0880 -0.6742
14349TIP3    H264539   4.414   6.067  11.874  0.4703  0.4290  1.0574
14350TIP3   OH264540   3.558   2.244  11.492 -0.5142 -0.3465 -0.0497
14350TIP3    H164541   3.503   2.323  11.501  0.4121  0.4076 -0.8254
14350TIP3    H264542   3.594   2.231  11.580 -0.5304  0.2051  0.0487
14351TIP3   OH264543   2.878   4.442  16.988 -0.5348  0.1509  0.7662
14351TIP3    H164544   2.862   4.497  16.912  3.9220  1.3170  0.3578
14351TIP3    H264545   2.913   4.501  17.054  0.1926 -1.5068  1.9514
14352TIP3   OH264546   2.219   0.433   2.103 -0.0236  0.4693  0.1517
14352TIP3    H164547   2.153   0.405   2.167  0.9833  0.6099  1.2802
14352TIP3    H264548   2.178   0.416   2.018 -0.8171 -1.0886  0.8081
14353TIP3   OH264549   5.010   3.444   6.120  0.1263  0.6719 -0.1921
14353TIP3    H164550   4.954   3.521   6.110 -0.2400  0.7552  2.0212
14353TIP3    H264551   4.954   3.370   6.097 -0.8330  0.7877  1.6114
14354TIP3   OH264552   2.581   4.808  13.007 -0.0698  0.3037 -0.6804
14354TIP3    H164553   2.648   4.785  12.942  0.1906  0.7154 -0.5658
14354TIP3    H264554   2.626   4.803  13.091 -0.4085 -0.2335 -0.5280
14355TIP3   OH264555   4.025   3.487   5.759 -0.0643 -0.0588  0.0450
14355TIP3    H164556   3.994   3.452   5.842  1.4973 -1.0875  0.2425
14355TIP3    H264557   3.994   3.424   5.694 -2.2478  1.3241 -0.3508
14356TIP3   OH264558   0.455   2.379   5.000  0.2491 -0.6292 -0.3481
14356TIP3    H164559   0.413   2.444   4.943  0.6378 -0.5793 -0.5787
14356TIP3    H264560   0.423   2.400   5.088 -0.1917 -0.5770 -0.5177
14357TIP3   OH264561   4.330   6.129   0.251 -0.2392 -0.6689 -0.0221
14357TIP3    H164562   4.276   6.197   0.291  2.0803  0.0784  2.1002
14357TIP3    H264563   4.304   6.048   0.295  0.7514 -0.1963  1.5430
14358TIP3   OH264564   4.205   5.281  17.012  0.1157  0.2289  0.4207
14358TIP3    H164565   4.218   5.373  16.987  2.4100  0.2028  1.2465
14358TIP3    H264566   4.112   5.274  17.031 -0.0599  2.4689  0.6338
14359TIP3   OH264567   4.009   4.078   2.261  0.1323  0.8967 -0.2042
14359TIP3    H164568   4.011   4.173   2.244 -0.2049  0.7089 -1.4129
14359TIP3    H264569   3.920   4.052   2.239  0.2608  0.2696  0.0148
14360TIP3   OH264570   2.932   2.155  13.043  0.2533 -0.3271  0.2276
14360TIP3    H164571   2.946   2.164  13.138 -1.2948 -2.2532  0.7164
14360TIP3    H264572   2.995   2.214  13.004  3.1201 -1.6840  2.3714
14361TIP3   OH264573   2.611   6.556   5.226  0.0999  0.2160  0.4452
14361TIP3    H164574   2.574   6.499   5.293  0.7316  0.7699  1.2979
14361TIP3    H264575   2.645   6.631   5.275  1.1792  0.3276 -0.4279
14362TIP3   OH264576   1.712   3.179  15.268  0.2641  0.2975  0.5853
14362TIP3    H164577   1.690   3.164  15.176  1.7110  0.5688  0.1786
14362TIP3    H264578   1.713   3.092  15.308 -0.3791  0.1828  0.3601
14363TIP3   OH264579   5.664   6.019  13.849 -0.6926 -0.0745 -0.0144
14363TIP3    H164580   5.624   6.097  13.888  0.9745  0.6534  0.3472
14363TIP3    H264581   5.595   5.980  13.796 -1.8833  1.0579  0.6495
14364TIP3   OH264582   6.496   5.774  13.051  0.3542  0.0004  0.2251
14364TIP3    H164583   6.552   5.813  12.984 -0.7304  2.2192  0.5044
14364TIP3    H264584   6.432   5.721  13.002 -0.4140  1.5737 -0.5593
14365TIP3   OH264585   3.586   4.226   1.764 -0.2301 -0.3927 -0.5343
14365TIP3    H164586   3.515   4.218   1.827  0.3373  1.7018  0.4512
14365TIP3    H264587   3.545   4.269   1.688 -0.3564 -0.6481 -0.6131
14366TIP3   OH264588   4.307   3.199  14.926 -0.2576 -0.1549  0.4103
14366TIP3    H164589   4.264   3.227  15.007 -1.0140 -2.5399  0.9311
14366TIP3    H264590   4.314   3.104  14.935  2.7079 -0.1688 -0.8896
14367TIP3   OH264591   2.058   4.668   2.164 -0.1045 -0.6131 -0.1667
14367TIP3    H164592   2.125   4.730   2.194  0.2694 -0.6228 -0.9476
14367TIP3    H264593   1.982   4.723   2.143  0.6287 -0.2255 -2.0349
14368TIP3   OH264594   6.188   0.319  11.941  0.3341 -0.0258  0.2182
14368TIP3    H164595   6.278   0.288  11.934  0.3706  0.3657 -1.4161
14368TIP3    H264596   6.136   0.253  11.896 -0.1693 -0.1136  0.9195
14369TIP3   OH264597   2.985   5.772  16.660 -0.0802  0.3032  0.1467
14369TIP3    H164598   2.997   5.685  16.696 -0.0480 -0.4057 -1.4844
14369TIP3    H264599   3.070   5.815  16.670  0.6844 -0.7758 -1.3157
14370TIP3   OH264600   6.502   0.913  12.713  0.1459  0.1934  0.3222
14370TIP3    H164601   6.541   1.000  12.698 -1.4061  0.9659  0.5796
14370TIP3    H264602   6.446   0.925  12.790 -0.7340 -0.8216 -0.1381
14371TIP3   OH264603   2.741   0.847  17.181  0.0392  0.2421 -0.7144
14371TIP3    H164604   2.726   0.769  17.235 -1.6139  1.0321  0.0384
14371TIP3    H264605   2.698   0.827  17.097  0.1407  0.1096 -0.7347
14372TIP3   OH264606   2.408   4.762   1.321 -0.4705  0.0397 -0.1923
14372TIP3    H164607   2.482   4.807   1.281 -1.6188  1.4656 -0.7818
14372TIP3    H264608   2.346   4.747   1.249 -2.2621  2.0061  0.8345
14373TIP3   OH264609   0.329   3.704   1.578  0.1117  0.2257 -0.2164
14373TIP3    H164610   0.384   3.778   1.603  1.8089 -1.0295 -0.0563
14373TIP3    H264611   0.390   3.630   1.572 -1.9799 -2.1737  3.6944
14374TIP3   OH264612   2.351   4.226   4.787  0.4805  0.1696 -0.0007
14374TIP3    H164613   2.269   4.217   4.738  1.4369 -0.2160 -1.5605
14374TIP3    H264614   2.407   4.156   4.754  0.5230 -1.4801  3.0799
14375TIP3   OH264615   4.936   5.173  11.104 -0.3376 -0.2412 -0.5405
14375TIP3    H164616   4.988   5.228  11.045 -0.5747 -0.0106 -0.5358
14375TIP3    H264617   4.981   5.088  11.104  0.8467  0.3649  0.5724
14376TIP3   OH264618   3.990   5.865  15.706  0.0212  0.5837  0.1708
14376TIP3    H164619   4.024   5.954  15.702 -0.4656  0.7394 -0.8828
14376TIP3    H264620   3.917   5.869  15.768 -0.4316  1.0837 -0.3804
14377TIP3   OH264621   2.310   6.755   5.437 -1.1339 -0.8017 -0.3043
14377TIP3    H164622   2.238   6.790   5.490 -0.0632 -0.5779  1.0352
14377TIP3    H264623   2.387   6.804   5.465 -0.4557 -0.9866 -1.7797
14378TIP3   OH264624   3.517   2.252   3.812 -0.5225 -0.5206 -0.5158
14378TIP3    H164625   3.500   2.179   3.871 -1.9316 -1.2136 -1.7325
14378TIP3    H264626   3.527   2.212   3.726 -0.8348  0.6557 -1.1211
14379TIP3   OH264627   0.864   1.294  10.869 -0.6682  0.0602  0.2554
14379TIP3    H164628   0.903   1.262  10.787 -1.3145 -0.2626  0.0658
14379TIP3    H264629   0.778   1.327  10.843 -0.3280  1.2603  0.5807
14380TIP3   OH264630   4.347   5.710   6.326 -0.0906 -0.2823 -0.5081
14380TIP3    H164631   4.413   5.751   6.271  0.3018 -0.8880 -0.5021
14380TIP3    H264632   4.397   5.663   6.393 -0.4873 -1.3562 -0.9355
14381TIP3   OH264633   1.097   3.185   1.114 -0.6811 -0.2132  0.1526
14381TIP3    H164634   1.137   3.228   1.038  1.8296  0.1346  1.5520
14381TIP3    H264635   1.032   3.126   1.077  1.4716 -1.1979 -2.4247
14382TIP3   OH264636   6.486   1.340   4.590 -0.0736 -0.1826  0.5143
14382TIP3    H164637   6.564   1.296   4.556 -0.9850  0.2571 -2.5098
14382TIP3    H264638   6.426   1.269   4.613  0.4971 -0.5117  1.0089
14383TIP3   OH264639   2.785   5.741  13.473  0.4307 -0.3057  0.0874
14383TIP3    H164640   2.858   5.788  13.513 -2.0761  2.7122  1.5303
14383TIP3    H264641   2.733   5.709  13.546  0.3668 -2.6928 -0.8994
14384TIP3   OH264642   6.180   5.102  16.756 -0.2026 -0.1515 -0.0520
14384TIP3    H164643   6.219   5.125  16.840  2.0165  2.7087 -1.7098
14384TIP3    H264644   6.098   5.151  16.753 -0.7392 -0.9679  0.7423
14385TIP3   OH264645   1.927   1.138   3.303 -0.2514  0.1281  0.4115
14385TIP3    H164646   1.970   1.185   3.375  2.2814  1.3762 -1.7334
14385TIP3    H264647   1.873   1.204   3.260  1.9004  0.7692 -1.5203
14386TIP3   OH264648   0.688   5.714  11.442  0.0315 -0.8463  0.0694
14386TIP3    H164649   0.730   5.664  11.511  0.3519 -0.2762  0.2929
14386TIP3    H264650   0.759   5.732  11.379 -0.0233 -0.4651  0.1140
14387TIP3   OH264651   0.244   1.022   4.840 -0.0940  0.0867  0.8096
14387TIP3    H164652   0.204   1.081   4.904 -0.8326  0.6260 -0.1132
14387TIP3    H264653   0.258   1.077   4.763  1.0505 -0.4787  0.5964
14388TIP3   OH264654   2.132   1.814   1.141 -0.5690 -0.8561 -0.0106
14388TIP3    H164655   2.073   1.815   1.065 -0.3837  1.3497 -0.1744
14388TIP3    H264656   2.075   1.820   1.217 -0.6453 -0.7431 -0.0778
14389TIP3   OH264657   0.797   1.861   0.867  0.6667  0.1202 -0.2753
14389TIP3    H164658   0.827   1.855   0.958 -0.6654  2.0667  0.3727
14389TIP3    H264659   0.862   1.918   0.825 -0.7409  2.5483  0.5774
14390TIP3   OH264660   2.472   4.919  16.327 -0.5242  0.5557 -0.3437
14390TIP3    H164661   2.509   5.007  16.316  0.9416 -0.1228 -1.2659
14390TIP3    H264662   2.542   4.869  16.369 -1.9411  0.1954  1.7574
14391TIP3   OH264663   1.667   4.212  12.792 -0.2997  0.1427 -0.6090
14391TIP3    H164664   1.681   4.307  12.786 -0.2935  0.1037 -1.3160
14391TIP3    H264665   1.662   4.183  12.701 -1.7937 -0.3225 -0.4060
14392TIP3   OH264666   2.136   0.769   5.849  0.4459 -0.0096  0.3696
14392TIP3    H164667   2.102   0.810   5.769 -0.0366 -2.1753 -0.6009
14392TIP3    H264668   2.201   0.831   5.881  0.7412  0.8999 -1.7695
14393TIP3   OH264669   0.390   2.891   1.009 -0.0451 -0.5165 -0.3514
14393TIP3    H164670   0.325   2.960   0.999  1.0382  0.5813 -0.1156
14393TIP3    H264671   0.345   2.811   0.981 -2.5527 -0.4297  2.8995
14394TIP3   OH264672   1.903   6.546  11.592 -0.2609  0.5272 -0.0301
14394TIP3    H164673   1.954   6.496  11.527 -1.0340 -1.5829  0.8916
14394TIP3    H264674   1.939   6.634  11.587  0.7110  0.0947 -2.2738
14395TIP3   OH264675   2.033   3.229  14.181 -0.1473 -0.0445  0.0031
14395TIP3    H164676   1.996   3.236  14.269 -0.2268  1.3379 -0.1124
14395TIP3    H264677   2.127   3.225  14.195 -0.1089  0.9447  0.1531
14396TIP3   OH264678   4.023   1.596  14.888  0.2310  0.3134  0.1688
14396TIP3    H164679   3.973   1.556  14.817 -0.8461  1.5104  0.2279
14396TIP3    H264680   4.085   1.528  14.915 -1.0280 -1.0419 -0.2330
14397TIP3   OH264681   5.510   5.481   5.171 -0.8521 -0.1883  0.4820
14397TIP3    H164682   5.577   5.432   5.218  0.0502  0.0481 -0.5242
14397TIP3    H264683   5.554   5.514   5.093 -1.9707  0.5274  0.1233
14398TIP3   OH264684   1.465   4.167   5.879  0.2101 -1.0880  0.3310
14398TIP3    H164685   1.486   4.096   5.940  0.2422  0.3589  2.0751
14398TIP3    H264686   1.548   4.188   5.836  0.7326 -0.4848  1.6057
14399TIP3   OH264687   5.547   3.900   2.243  0.5641  1.1281 -0.3340
14399TIP3    H164688   5.512   3.822   2.200 -0.6526 -0.1167  2.6690
14399TIP3    H264689   5.580   3.954   2.171  1.2830 -2.0093 -2.5635
14400TIP3   OH264690   5.202   1.822  14.934  0.0264 -0.8262  0.2714
14400TIP3    H164691   5.292   1.850  14.954  0.3009 -2.1613  1.0250
14400TIP3    H264692   5.208   1.727  14.925 -1.0234 -0.7789 -1.3901
14401TIP3   OH264693   6.614   3.840  15.972 -0.1920 -0.0256  0.0531
14401TIP3    H164694   6.703   3.870  15.989 -1.0868  1.2337  3.3015
14401TIP3    H264695   6.561   3.919  15.971 -1.1634 -0.4695 -4.2732
14402TIP3   OH264696   6.429   0.425  15.725 -0.5929  0.3157  0.3157
14402TIP3    H164697   6.484   0.498  15.695  0.8880 -1.0368 -0.4035
14402TIP3    H264698   6.371   0.464  15.790  0.6225  1.9990  0.4537
14403TIP3   OH264699   3.021   2.210  16.880  0.0277 -0.6365  0.0788
14403TIP3    H164700   3.090   2.269  16.910  0.1700 -0.7692  0.0168
14403TIP3    H264701   3.003   2.238  16.790 -2.2545  1.4963  1.0726
14404TIP3   OH264702   5.841   4.586   0.282  0.6086  0.1119 -0.3337
14404TIP3    H164703   5.932   4.558   0.269  0.3939 -0.4852 -0.5919
14404TIP3    H264704   5.845   4.649   0.354  1.0109 -1.2459  0.8866
14405TIP3   OH264705   4.583   1.145   2.122 -0.2711  0.0746 -0.3393
14405TIP3    H164706   4.607   1.119   2.211  0.7045  0.7696 -0.3695
14405TIP3    H264707   4.537   1.229   2.133  3.0326  2.1368 -0.6158
14406TIP3   OH264708   3.261   1.730   1.773 -0.1521 -0.4909 -0.1856
14406TIP3    H164709   3.284   1.738   1.680 -2.1118  2.7799 -0.5245
14406TIP3    H264710   3.300   1.807   1.815 -1.4879 -0.5051  1.1804
14407TIP3   OH264711   0.805   2.088  15.994  0.1318  0.0105 -0.0710
14407TIP3    H164712   0.766   2.107  15.909  0.2492 -0.6624 -0.2836
14407TIP3    H264713   0.868   2.018  15.977  1.3800  0.9940  0.2823
14408TIP3   OH264714   0.010   2.619   2.541 -0.5434  0.2345 -0.1350
14408TIP3    H164715   0.104   2.611   2.551 -0.5709 -0.0152 -0.0712
14408TIP3    H264716  -0.025   2.533   2.565 -0.7365  0.1342 -0.7452
14409TIP3   OH264717   4.721   4.773  10.991 -0.4082  0.1060 -0.5332
14409TIP3    H164718   4.652   4.731  11.042 -0.9990 -0.1438 -1.5175
14409TIP3    H264719   4.687   4.776  10.902 -0.2133  2.2843 -0.5923
14410TIP3   OH264720   2.528   3.636   1.562 -0.0405 -0.0946 -0.5273
14410TIP3    H164721   2.537   3.716   1.615  0.2128 -0.9373  0.7536
14410TIP3    H264722   2.475   3.578   1.616 -2.0513 -0.0759 -2.3304
14411TIP3   OH264723   1.320   1.006   4.467 -0.5366  0.1750 -0.4727
14411TIP3    H164724   1.241   0.998   4.520 -0.0443  0.6746  0.3626
14411TIP3    H264725   1.305   1.083   4.412 -0.8738 -0.0879 -0.7486
14412TIP3   OH264726   4.545   3.761   5.268  0.4004  0.0885  0.2719
14412TIP3    H164727   4.456   3.729   5.283  0.0367  1.3168  0.9207
14412TIP3    H264728   4.600   3.683   5.275 -0.5817 -0.6197  0.3137
14413TIP3   OH264729   4.755   5.548  15.856 -0.0136 -0.2764  0.5129
14413TIP3    H164730   4.683   5.495  15.822 -0.4101  0.4892  0.1219
14413TIP3    H264731   4.830   5.528  15.800  0.3984 -1.8815  1.5767
14414TIP3   OH264732   1.981   1.972  17.160  0.2528  0.3575  0.5320
14414TIP3    H164733   1.898   1.942  17.124 -0.1282 -0.0179  1.6722
14414TIP3    H264734   2.034   1.893  17.166  0.0707  0.2934  1.4018
14415TIP3   OH264735   1.996   5.131   3.570 -0.8613  0.2935  0.5811
14415TIP3    H164736   1.979   5.223   3.588 -0.3399  0.7592 -1.1406
14415TIP3    H264737   1.998   5.125   3.475  2.4144 -0.8729  0.6044
14416TIP3   OH264738   6.536   5.306  13.227 -0.1015 -0.1469  0.4385
14416TIP3    H164739   6.453   5.257  13.229  0.0223 -0.3467  0.9936
14416TIP3    H264740   6.523   5.377  13.290  0.6180 -0.9792  1.5639
14417TIP3   OH264741   3.331   0.280  14.725 -0.0604 -0.1078 -0.0047
14417TIP3    H164742   3.341   0.374  14.713  0.5572 -0.3453 -1.5944
14417TIP3    H264743   3.254   0.271  14.780  0.5783  1.3552  1.1915
14418TIP3   OH264744   6.610   4.637  16.630  0.3701  0.3222  0.6015
14418TIP3    H164745   6.631   4.728  16.609 -0.0304  0.0926 -0.8969
14418TIP3    H264746   6.575   4.601  16.549 -0.6411 -0.8285  1.5093
14419TIP3   OH264747   3.917   3.443   4.331 -0.1885 -0.5330  0.5897
14419TIP3    H164748   3.926   3.476   4.421 -1.0591  0.6869  0.2559
14419TIP3    H264749   3.862   3.366   4.339 -0.8782 -0.0038  1.0316
14420TIP3   OH264750   0.678   6.406   0.241 -0.2268  0.1953  0.3770
14420TIP3    H164751   0.670   6.311   0.240  2.2515 -0.0741 -0.0488
14420TIP3    H264752   0.589   6.437   0.260 -0.9782 -2.1906  1.1429
14421TIP3   OH264753   1.596   3.393  13.598  0.5954  0.4715 -0.2812
14421TIP3    H164754   1.524   3.345  13.639 -0.8313  2.4515 -0.3277
14421TIP3    H264755   1.671   3.380  13.657 -0.2037 -0.3858  0.5708
14422TIP3   OH264756   6.400   4.432  16.191  0.6953 -0.0981 -0.4494
14422TIP3    H164757   6.314   4.393  16.206 -0.1636  1.9907  0.5124
14422TIP3    H264758   6.452   4.405  16.267  0.8586 -1.1799 -0.9217
14423TIP3   OH264759   4.530   6.774   5.790  0.6914  0.3471 -0.4434
14423TIP3    H164760   4.438   6.763   5.815  0.6577 -2.2562 -1.4085
14423TIP3    H264761   4.549   6.866   5.809 -1.9409  0.8270  0.2920
14424TIP3   OH264762   3.253   1.086  17.246  0.3934 -0.1742 -0.2955
14424TIP3    H164763   3.335   1.088  17.197  0.6429  1.1260  0.1147
14424TIP3    H264764   3.196   1.149  17.201  0.6033  0.9931  0.9814
14425TIP3   OH264765   4.863   0.953   4.410  0.2218  0.4365  0.7172
14425TIP3    H164766   4.885   0.879   4.354 -0.2529  1.7964 -1.4155
14425TIP3    H264767   4.904   0.934   4.494  2.6647 -0.8200 -0.6668
14426TIP3   OH264768   0.958   5.425  13.492  0.2140  0.2377  0.7632
14426TIP3    H164769   0.925   5.437  13.403  0.2119 -0.7043  0.6233
14426TIP3    H264770   0.905   5.354  13.527  0.6071  0.2144  1.3131
14427TIP3   OH264771   0.071   3.913  17.070 -0.0623 -0.4476 -0.3881
14427TIP3    H164772   0.094   3.891  16.979 -2.6071 -0.7959 -1.0336
14427TIP3    H264773   0.014   3.990  17.062 -0.9156 -0.9126  0.8214
14428TIP3   OH264774   5.395   0.264  12.876 -0.3809  0.2526  0.0858
14428TIP3    H164775   5.415   0.357  12.876 -0.6116  0.3017  0.1486
14428TIP3    H264776   5.299   0.260  12.877 -0.3910  0.0237 -0.7611
14429TIP3   OH264777   4.037   1.526   4.148 -0.0691  0.0930  0.2813
14429TIP3    H164778   4.027   1.434   4.175  1.0014  0.0881  0.6992
14429TIP3    H264779   4.049   1.522   4.053 -0.0343 -0.1999  0.2956
14430TIP3   OH264780   3.229   1.588   3.620  0.1810  0.5567  0.1981
14430TIP3    H164781   3.212   1.513   3.677  0.7535 -0.2677 -0.6788
14430TIP3    H264782   3.169   1.576   3.547 -1.4538  2.2844  1.1689
14431TIP3   OH264783   2.493   2.441  12.609 -0.0292 -0.3651 -0.3201
14431TIP3    H164784   2.515   2.428  12.517  0.2179 -1.1773 -0.1444
14431TIP3    H264785   2.550   2.513  12.638 -0.1148 -0.1037 -0.7951
14432TIP3   OH264786   2.930   4.083   0.762  0.5035  0.5516  0.5180
14432TIP3    H164787   2.876   4.138   0.705  0.9714 -0.2887 -0.8015
14432TIP3    H264788   3.015   4.080   0.718  1.2421  0.8107  1.8921
14433TIP3   OH264789   4.268   1.980  12.887  1.1646 -0.1724  0.0042
14433TIP3    H164790   4.304   2.056  12.840  2.1543 -0.6976 -0.1122
14433TIP3    H264791   4.221   1.930  12.821  2.0635 -0.6057 -0.3250
14434TIP3   OH264792   0.924   6.219  11.500 -0.8569  0.4612 -0.4435
14434TIP3    H164793   0.851   6.264  11.457 -1.4784  1.1478  1.2589
14434TIP3    H264794   0.960   6.283  11.561  0.4567 -0.2424 -0.4365
14435TIP3   OH264795   6.009   4.406   5.361 -0.2461 -0.4018 -0.3366
14435TIP3    H164796   6.071   4.338   5.334 -0.8719 -0.4842 -1.6358
14435TIP3    H264797   6.062   4.486   5.368  0.7850 -1.1907  2.5170
14436TIP3   OH264798   3.383   5.657   1.899 -0.1304  0.1005 -0.3798
14436TIP3    H164799   3.424   5.578   1.936 -0.7043 -0.0512 -0.0523
14436TIP3    H264800   3.456   5.718   1.887  0.2968 -0.4228 -0.4925
14437TIP3   OH264801   2.311   3.234  14.224  0.0584  0.2599  0.2993
14437TIP3    H164802   2.341   3.147  14.252  0.2878  0.1061 -0.4071
14437TIP3    H264803   2.388   3.289  14.230 -0.0879  0.4176  0.7481
14438TIP3   OH264804   5.823   2.524  10.807  0.1987 -0.2899 -0.0386
14438TIP3    H164805   5.916   2.538  10.824  0.4928 -3.0190  1.2560
14438TIP3    H264806   5.781   2.604  10.836  2.1066  0.8829 -0.3533
14439TIP3   OH264807   0.275   5.447  15.833 -0.5409 -0.2781 -0.0086
14439TIP3    H164808   0.263   5.539  15.856  0.3324 -0.3264  0.7052
14439TIP3    H264809   0.188   5.408  15.844 -0.5744  0.1240  1.3373
14440TIP3   OH264810   2.648   2.557  17.175 -0.2323 -0.5070  0.2020
14440TIP3    H164811   2.650   2.643  17.217  1.1209  0.7038 -2.1660
14440TIP3    H264812   2.648   2.575  17.082  0.6565 -3.1009 -0.3877
14441TIP3   OH264813   3.406   3.211  14.690 -0.2946 -0.0548  0.2889
14441TIP3    H164814   3.502   3.208  14.694 -0.3291 -0.0820  3.2109
14441TIP3    H264815   3.381   3.282  14.749 -2.1042 -0.1557 -0.2806
14442TIP3   OH264816   2.744   4.281  10.607  0.1861 -0.0706 -0.2183
14442TIP3    H164817   2.685   4.311  10.676 -1.1428 -0.9603 -0.9172
14442TIP3    H264818   2.742   4.185  10.614  0.2036 -0.1609 -1.3443
14443TIP3   OH264819   4.927   2.951  11.425 -0.7606  0.0317 -0.1917
14443TIP3    H164820   4.980   2.898  11.365 -1.7646 -0.4834 -0.6644
14443TIP3    H264821   4.870   2.888  11.469 -1.3709  0.6159 -0.1212
14444TIP3   OH264822   4.339   4.479  16.104  0.5231 -0.3869 -0.2076
14444TIP3    H164823   4.399   4.450  16.036 -0.0322  1.3308 -1.5269
14444TIP3    H264824   4.273   4.530  16.057 -0.4294  0.0570  1.5195
14445TIP3   OH264825   4.137   1.824   0.059  0.2405 -0.3978 -0.9308
14445TIP3    H164826   4.155   1.788   0.145 -2.3225  0.4630  0.0617
14445TIP3    H264827   4.206   1.889   0.045 -0.5880  1.1442  1.5819
14446TIP3   OH264828   4.665   3.911   2.311 -0.1951  0.8447  0.0441
14446TIP3    H164829   4.620   3.970   2.372  1.3404  1.6981  0.3849
14446TIP3    H264830   4.671   3.828   2.359 -0.7359  0.9327  0.2791
14447TIP3   OH264831   3.843   6.133   0.811  0.3485 -0.0999 -0.1780
14447TIP3    H164832   3.894   6.170   0.883 -1.1028 -1.2844  1.5299
14447TIP3    H264833   3.831   6.041   0.834  0.4010 -0.6955 -2.2929
14448TIP3   OH264834   3.418   5.799  12.018 -0.6996  0.3256  0.2663
14448TIP3    H164835   3.475   5.751  12.078 -0.7043  1.3953  1.1517
14448TIP3    H264836   3.458   5.787  11.932 -0.7763 -1.3482  0.4362
14449TIP3   OH264837   5.675   3.696   6.385 -0.0489 -0.7627 -0.0390
14449TIP3    H164838   5.689   3.693   6.479 -0.5590 -2.2102  0.0099
14449TIP3    H264839   5.751   3.650   6.348 -1.3936 -3.0725 -0.1156
14450TIP3   OH264840   4.656   5.859  15.207 -0.2488 -0.1095 -0.2743
14450TIP3    H164841   4.564   5.832  15.200 -0.6558  1.3846 -1.0850
14450TIP3    H264842   4.682   5.878  15.117 -0.0358  2.2217  0.2289
14451TIP3   OH264843   3.325   3.841   6.278  0.1523 -0.3537  0.3122
14451TIP3    H164844   3.407   3.890   6.280  0.5919 -1.0620 -0.0891
14451TIP3    H264845   3.284   3.868   6.196 -0.0698  0.0811  0.5641
14452TIP3   OH264846   2.998   4.016   4.033  0.0065 -0.3975  0.1850
14452TIP3    H164847   2.983   3.967   4.114  0.4467 -1.5799 -0.4319
14452TIP3    H264848   3.085   4.054   4.043  0.6163 -1.6578 -0.2841
14453TIP3   OH264849   0.351   1.889  15.935  0.0511 -0.2534 -0.2536
14453TIP3    H164850   0.335   1.795  15.941  1.1532 -0.6577 -2.6054
14453TIP3    H264851   0.417   1.907  16.002 -0.4889 -1.0472  0.5123
14454TIP3   OH264852   5.055   0.377   0.263 -0.2882  0.2659 -0.5396
14454TIP3    H164853   5.126   0.391   0.326  0.0274 -2.2939 -0.2444
14454TIP3    H264854   5.054   0.457   0.211  3.1502  0.2418 -0.8700
14455TIP3   OH264855   4.099   1.490  16.802 -0.5616  0.1964 -0.2907
14455TIP3    H164856   4.083   1.399  16.775  0.0342 -0.2663  0.8388
14455TIP3    H264857   4.151   1.527  16.731 -2.4005  0.2497 -1.6715
14456TIP3   OH264858   3.487   3.863   2.566  0.8784  0.2717  0.4543
14456TIP3    H164859   3.535   3.780   2.564 -1.1493 -0.9737 -0.9888
14456TIP3    H264860   3.404   3.842   2.608  0.1115  1.4350 -0.3999
14457TIP3   OH264861   1.131   4.834  11.500 -0.4756  0.0957  0.6463
14457TIP3    H164862   1.222   4.812  11.480  0.0572  1.9015  0.9352
14457TIP3    H264863   1.083   4.815  11.419  0.5593  1.2556 -0.2742
14458TIP3   OH264864   3.090   4.385  13.071  0.2849  0.0930  0.4365
14458TIP3    H164865   3.120   4.456  13.128  0.3866  2.6597 -2.5330
14458TIP3    H264866   3.005   4.414  13.038  0.3582 -1.1271 -0.9508
14459TIP3   OH264867   3.117   6.101   0.595 -0.0812 -0.3494  0.3938
14459TIP3    H164868   3.091   6.012   0.621 -0.4225 -0.0296  1.1613
14459TIP3    H264869   3.036   6.143   0.567  0.3245 -0.8127 -1.6747
14460TIP3   OH264870   5.857   3.118   1.946  0.5731 -0.1454  0.5121
14460TIP3    H164871   5.873   3.023   1.938  1.2819 -0.0422  0.6359
14460TIP3    H264872   5.784   3.125   2.007  0.1089 -0.6395  0.0284
14461TIP3   OH264873   3.846   1.283   2.452  0.0442  0.0659 -0.1569
14461TIP3    H164874   3.891   1.287   2.368 -1.8610 -0.5322 -1.2446
14461TIP3    H264875   3.856   1.192   2.480 -2.4736 -0.7248 -1.5946
14462TIP3   OH264876   4.563   3.255   3.939 -0.3677 -0.2861  0.3204
14462TIP3    H164877   4.504   3.327   3.958  1.4175  1.4814 -0.4442
14462TIP3    H264878   4.544   3.189   4.006 -2.5419  0.5585  0.6066
14463TIP3   OH264879   3.593   3.301  12.123  0.2555  0.1013 -0.2136
14463TIP3    H164880   3.641   3.378  12.093  2.2803 -0.6873  0.8207
14463TIP3    H264881   3.554   3.265  12.044 -1.6560  2.7268 -0.5759
14464TIP3   OH264882   2.835   4.437  15.117  0.0657  0.1982 -0.1826
14464TIP3    H164883   2.759   4.380  15.104 -0.2926  0.1063  1.9100
14464TIP3    H264884   2.910   4.378  15.112  0.0173  0.2427 -1.9760
14465TIP3   OH264885   5.263   4.440  11.800  0.3284 -0.0163  0.2046
14465TIP3    H164886   5.277   4.485  11.717 -2.1032  1.0152  0.2612
14465TIP3    H264887   5.196   4.375  11.780 -0.7647  0.6876  1.4687
14466TIP3   OH264888   5.485   0.417  16.847 -0.5366 -0.5562 -0.2951
14466TIP3    H164889   5.430   0.353  16.801  0.2203 -0.7731 -0.9078
14466TIP3    H264890   5.572   0.379  16.846 -0.6148 -0.9553  2.0465
14467TIP3   OH264891   2.805   5.387  12.793  0.4749 -0.7372  0.0586
14467TIP3    H164892   2.899   5.374  12.781  0.3558 -2.3006  0.6081
14467TIP3    H264893   2.771   5.300  12.812 -0.7438  0.1083  2.1556
14468TIP3   OH264894   5.553   5.726  13.046 -0.0534 -0.2861  0.6147
14468TIP3    H164895   5.602   5.783  13.105  0.3927  0.7476 -0.6918
14468TIP3    H264896   5.548   5.776  12.964  1.3460 -2.5734 -0.9682
14469TIP3   OH264897   0.108   5.050  16.709 -0.3619 -0.2542 -0.5170
14469TIP3    H164898   0.165   5.084  16.639 -1.2937 -0.5833 -1.4474
14469TIP3    H264899   0.058   5.126  16.737 -0.1916 -0.1848 -0.3949
14470TIP3   OH264900   2.644   3.817  12.576 -0.3656 -0.2787 -0.0373
14470TIP3    H164901   2.657   3.729  12.541 -0.7374 -0.3113 -0.0975
14470TIP3    H264902   2.558   3.814  12.617 -0.3683  0.0493 -0.0172
14471TIP3   OH264903   5.714   2.282   0.800 -0.0760 -0.4232  0.3575
14471TIP3    H164904   5.642   2.276   0.862 -0.2697 -0.1386  0.1621
14471TIP3    H264905   5.703   2.368   0.758  0.6281 -0.1879  0.6385
14472TIP3   OH264906   6.514   1.049   2.989 -0.2122 -0.0041  0.5813
14472TIP3    H164907   6.514   0.953   2.982  1.3949  0.0850 -2.2585
14472TIP3    H264908   6.538   1.079   2.901 -0.2661  3.0206  1.4906
14473TIP3   OH264909   6.547   6.334  16.365 -0.2812  0.1578 -0.0188
14473TIP3    H164910   6.497   6.339  16.446  1.9314  1.4603  1.3866
14473TIP3    H264911   6.619   6.273  16.383 -0.7738 -0.9904 -1.6648
14474TIP3   OH264912   1.721   6.206   2.095 -0.1038 -0.4038  0.1769
14474TIP3    H164913   1.759   6.253   2.169 -0.6867  1.1498 -0.4709
14474TIP3    H264914   1.628   6.229   2.097 -0.4145 -1.5407 -0.1896
14475TIP3   OH264915   2.134   6.013   3.866  0.1026  0.5801 -0.1788
14475TIP3    H164916   2.202   6.077   3.886  0.7538 -0.2303  0.2470
14475TIP3    H264917   2.127   6.016   3.770  0.7239  0.6872 -0.2270
14476TIP3   OH264918   1.473   3.607   1.978  0.3440  0.2364 -0.0747
14476TIP3    H164919   1.459   3.592   1.885  0.1713 -0.5430  0.0648
14476TIP3    H264920   1.514   3.526   2.009  0.7773  0.6454  0.4457
14477TIP3   OH264921   1.598   0.951   0.869  0.4081  0.1723  0.1692
14477TIP3    H164922   1.606   1.047   0.870  1.7052  0.0972  2.2176
14477TIP3    H264923   1.630   0.924   0.955 -0.9822 -2.0430  0.0538
14478TIP3   OH264924   2.213   1.319   5.611 -0.2119  0.0861 -0.5188
14478TIP3    H164925   2.145   1.252   5.605 -0.0101 -0.1878  0.1718
14478TIP3    H264926   2.170   1.399   5.581 -1.1202  0.1054  0.7503
14479TIP3   OH264927   3.536   3.757  17.228  0.1813 -0.2414 -0.1067
14479TIP3    H164928   3.605   3.715  17.177  1.0418 -0.0922  0.8863
14479TIP3    H264929   3.456   3.740  17.180  0.9542 -0.0971 -1.5071
14480TIP3   OH264930   1.527   0.823   3.106  0.0833  0.5242 -0.4818
14480TIP3    H164931   1.592   0.763   3.141  0.8399  1.2416 -0.6151
14480TIP3    H264932   1.515   0.796   3.016 -0.7762 -0.4129 -0.1013
14481TIP3   OH264933   3.947   3.405   5.992  0.2261 -0.1578  0.1076
14481TIP3    H164934   3.909   3.317   6.000 -0.7599  0.3170  0.9232
14481TIP3    H264935   3.871   3.463   5.985  0.8404  0.7245  0.6297
14482TIP3   OH264936   6.582   6.435   2.156 -0.3324  0.0603 -0.6427
14482TIP3    H164937   6.610   6.478   2.237  0.1732  0.3857 -0.9839
14482TIP3    H264938   6.556   6.507   2.099 -0.7013 -0.1708 -0.7703
14483TIP3   OH264939   4.410   1.403   0.889  0.3084  0.3375  0.5080
14483TIP3    H164940   4.498   1.435   0.869  0.7349 -0.3558  1.2042
14483TIP3    H264941   4.421   1.351   0.969 -0.3858 -1.4050 -0.4857
14484TIP3   OH264942   5.325   5.393   3.778  0.1074 -0.2725  0.5142
14484TIP3    H164943   5.279   5.477   3.771 -1.1197 -0.8612  1.0706
14484TIP3    H264944   5.395   5.409   3.841 -0.4647  0.2083  1.0414
14485TIP3   OH264945   6.144   2.098  13.230  0.0574  0.3071  0.0013
14485TIP3    H164946   6.225   2.080  13.277  0.4091  0.7161 -0.4420
14485TIP3    H264947   6.106   2.012  13.214  1.6883 -0.1022 -2.0559
14486TIP3   OH264948   5.388   3.702   2.099  0.2695  0.0949 -0.3043
14486TIP3    H164949   5.350   3.617   2.077 -0.0705  0.2215 -0.2083
14486TIP3    H264950   5.332   3.736   2.169  0.0320  0.6715 -0.7648
14487TIP3   OH264951   2.852   2.794  16.361 -0.0647  0.1256  0.5355
14487TIP3    H164952   2.848   2.865  16.425 -0.7259  0.2856  0.3341
14487TIP3    H264953   2.945   2.781  16.345  0.0681  1.6129 -0.1354
14488TIP3   OH264954   2.846   3.594   2.997  0.1642 -0.0554  0.1699
14488TIP3    H164955   2.751   3.579   2.999 -0.0648  1.2644  1.4007
14488TIP3    H264956   2.863   3.650   3.073  1.9199 -0.1406 -0.1072
14489TIP3   OH264957   5.319   0.905   3.077 -0.3811  0.3114 -0.1248
14489TIP3    H164958   5.346   0.992   3.104  0.9489  0.7819 -2.6429
14489TIP3    H264959   5.224   0.909   3.074 -0.5886  0.4756  3.2591
14490TIP3   OH264960   1.914   2.669   6.464 -0.8633 -0.7071 -0.3514
14490TIP3    H164961   1.932   2.630   6.379 -2.0944  1.1624 -1.5463
14490TIP3    H264962   1.864   2.748   6.444 -0.1236  0.4574  2.0386
14491TIP3   OH264963   6.446   5.345  16.139  0.0402  0.4419  0.2040
14491TIP3    H164964   6.464   5.294  16.060  2.8563  0.8689  0.4723
14491TIP3    H264965   6.416   5.430  16.107  0.4774  0.3724 -0.4074
14492TIP3   OH264966   3.733   1.274  15.744  0.4227 -0.1648 -0.2826
14492TIP3    H164967   3.804   1.241  15.800 -0.5805 -0.2071  1.0166
14492TIP3    H264968   3.679   1.197  15.726  0.6778 -0.1301 -1.2598
14493TIP3   OH264969   4.848   3.298   3.879  0.1486  0.2426 -0.2216
14493TIP3    H164970   4.887   3.217   3.847  0.1661 -0.5137  1.6276
14493TIP3    H264971   4.757   3.276   3.897  0.5558  0.1055  1.9157
14494TIP3   OH264972   1.457   6.480   5.229  0.0195  0.1502  1.0838
14494TIP3    H164973   1.424   6.563   5.264 -1.0324  0.0349  0.4106
14494TIP3    H264974   1.487   6.501   5.141 -1.0877 -0.3246  0.5610
14495TIP3   OH264975   3.749   6.503   0.231  0.0267  0.5362  0.1373
14495TIP3    H164976   3.758   6.568   0.300 -1.2305 -0.2134  1.0652
14495TIP3    H264977   3.673   6.532   0.180  2.2973  2.3827 -2.5075
14496TIP3   OH264978   0.616   6.368  12.817  0.3913  0.2668  0.0392
14496TIP3    H164979   0.572   6.388  12.900  0.5705  1.1222 -0.0672
14496TIP3    H264980   0.691   6.315  12.842  0.2996  0.3065  0.4003
14497TIP3   OH264981   2.511   2.754   5.319  0.2851  0.1079  0.2536
14497TIP3    H164982   2.430   2.793   5.351 -1.4296 -2.1636 -0.9895
14497TIP3    H264983   2.511   2.774   5.225  0.4885 -0.9216  0.0203
14498TIP3   OH264984   3.655   6.268  12.850 -0.1280 -0.2779 -0.0392
14498TIP3    H164985   3.609   6.342  12.810 -1.3991 -0.9429  0.1443
14498TIP3    H264986   3.704   6.307  12.922 -1.1533  0.3267  0.3484
14499TIP3   OH264987   6.574   0.069   1.255  0.2635  0.2321  0.8037
14499TIP3    H164988   6.533   0.155   1.263  1.0294  0.7078 -0.1248
14499TIP3    H264989   6.665   0.088   1.233  0.6594 -0.8168  1.4590
14500TIP3   OH264990   3.571   0.094   0.722  0.6505 -0.1866  0.0446
14500TIP3    H164991   3.566   0.110   0.816 -1.1255  0.8745 -0.1857
14500TIP3    H264992   3.497   0.036   0.704  2.0195 -1.8446 -0.4634
14501TIP3   OH264993   2.143   4.925   0.957 -0.4799 -0.0997 -0.0830
14501TIP3    H164994   2.201   4.998   0.981  0.3782  0.0993 -2.4299
14501TIP3    H264995   2.076   4.965   0.901 -0.9393 -0.8685 -0.0951
14502TIP3   OH264996   3.370   1.711  16.613 -0.6566  0.0950 -0.2768
14502TIP3    H164997   3.368   1.805  16.630  0.7308  0.2868 -0.9723
14502TIP3    H264998   3.429   1.702  16.538  0.8916 -1.4923  1.0263
14503TIP3   OH264999   2.316   1.474   1.828  0.2995 -0.2693 -0.2285
14503TIP3    H165000   2.378   1.539   1.797 -0.9190  1.0550  0.0365
14503TIP3    H265001   2.245   1.475   1.763 -1.0609  0.7222  1.2007
14504TIP3   OH265002   0.960   5.885  15.165  0.1459 -0.3038  0.5926
14504TIP3    H165003   0.977   5.902  15.072  0.9579 -1.6871  0.4572
14504TIP3    H265004   0.933   5.793  15.168 -1.7755  0.2384  1.5266
14505TIP3   OH265005   4.781   6.020   4.987  0.3322 -0.6537 -0.1718
14505TIP3    H165006   4.694   6.048   4.960  0.6865 -0.8875 -1.7073
14505TIP3    H265007   4.799   5.942   4.933  1.3381 -0.8390  0.3891
14506TIP3   OH265008   2.345   0.262   1.224 -0.0735 -0.0062 -0.7351
14506TIP3    H165009   2.354   0.252   1.319 -1.8673 -2.2588 -0.7259
14506TIP3    H265010   2.294   0.342   1.213 -0.5026 -0.1290  0.2552
14507TIP3   OH265011   2.981   0.872  14.969  0.4395 -0.1043  0.1597
14507TIP3    H165012   2.922   0.912  14.906  0.0845  0.4139  0.8015
14507TIP3    H265013   2.954   0.908  15.054  2.0124  0.5708  0.4162
14508TIP3   OH265014   3.073   0.479   3.657  0.1356  0.0370 -0.5080
14508TIP3    H165015   3.159   0.513   3.634  0.7064  0.7089  2.2519
14508TIP3    H265016   3.077   0.386   3.636  0.5147  0.5247 -2.9241
14509TIP3   OH265017   1.600   4.673  14.402 -0.1922 -0.3185 -0.0533
14509TIP3    H165018   1.617   4.659  14.495  1.5258  1.4524 -0.0233
14509TIP3    H265019   1.593   4.585  14.365 -3.0548 -1.1249  2.0173
14510TIP3   OH265020   4.776   0.472   0.367 -0.1452 -0.1386  0.3063
14510TIP3    H165021   4.821   0.389   0.355 -1.3134 -0.9518  1.1817
14510TIP3    H265022   4.695   0.463   0.316  0.7000  1.3463 -1.3736
14511TIP3   OH265023   2.381   0.188  16.547 -0.5453 -0.0251 -0.3310
14511TIP3    H165024   2.343   0.242  16.616 -1.1030 -1.7014  0.7612
14511TIP3    H265025   2.413   0.110  16.594 -1.1058 -1.3003 -1.9658
14512TIP3   OH265026   2.442   3.011  16.488  0.3461  0.0987  0.1393
14512TIP3    H165027   2.453   2.921  16.519  1.3354  0.7553  1.8046
14512TIP3    H265028   2.510   3.022  16.422  0.1508 -0.4008 -0.1534
14513TIP3   OH265029   5.298   3.691  12.571  0.1992 -0.6775 -0.3289
14513TIP3    H165030   5.363   3.758  12.549  0.4524 -0.3357  1.3600
14513TIP3    H265031   5.235   3.736  12.626  0.3057 -1.7938  0.7434
14514TIP3   OH265032   5.834   4.516   2.991  0.3926  0.4896  0.4828
14514TIP3    H165033   5.897   4.571   3.037  1.8550 -0.2355 -0.5811
14514TIP3    H265034   5.886   4.444   2.956 -0.8100  0.5266 -1.5301
14515TIP3   OH265035   1.712   3.019  14.743  0.1985  0.4440 -0.3853
14515TIP3    H165036   1.649   3.045  14.675 -0.3148 -0.5160 -0.3022
14515TIP3    H265037   1.740   2.931  14.717 -1.0765 -0.5319  1.3572
14516TIP3   OH265038   2.550   6.170   5.819  0.5210 -0.4946 -0.1655
14516TIP3    H165039   2.607   6.236   5.859 -0.3310  0.1244  0.0414
14516TIP3    H265040   2.583   6.160   5.730  0.7176  0.1371 -0.1666
14517TIP3   OH265041   2.513   4.279  12.864 -0.4932 -0.0043  0.2223
14517TIP3    H165042   2.565   4.333  12.805 -3.6049  2.6392 -0.3721
14517TIP3    H265043   2.502   4.334  12.942  1.1961 -2.3208  2.2386
14518TIP3   OH265044   1.015   1.130  12.342 -0.3167  0.1462 -0.5580
14518TIP3    H165045   0.999   1.051  12.395 -0.5746  0.2992 -0.4033
14518TIP3    H265046   1.085   1.105  12.282  0.1672  0.0495  0.0392
14519TIP3   OH265047   6.346   3.474  16.341  0.3864 -0.0446 -0.0029
14519TIP3    H165048   6.391   3.525  16.408  2.0526 -1.9743  0.4785
14519TIP3    H265049   6.387   3.387  16.346 -1.7109 -1.2087 -1.3047
14520TIP3   OH265050   5.055   0.966  13.936 -0.4622  0.3414  0.0489
14520TIP3    H165051   4.968   0.954  13.975 -0.6968 -0.1638 -0.6038
14520TIP3    H265052   5.037   1.000  13.848 -0.1374 -1.9390 -0.9607
14521TIP3   OH265053   3.888   1.165  14.084 -0.1091  0.7593 -0.1671
14521TIP3    H165054   3.823   1.190  14.018 -0.6450  0.2044  0.1330
14521TIP3    H265055   3.972   1.180  14.042 -0.4379  0.1279 -1.1031
14522TIP3   OH265056   1.552   6.525   2.081 -0.1621 -0.2416  0.2202
14522TIP3    H165057   1.537   6.576   2.001 -2.1978  1.0187  1.3330
14522TIP3    H265058   1.610   6.579   2.134 -1.7415  0.6438  1.0958
14523TIP3   OH265059   6.524   3.261   6.636 -0.7560  0.1536  0.1352
14523TIP3    H165060   6.610   3.246   6.675  0.0749 -0.8815 -1.9041
14523TIP3    H265061   6.466   3.200   6.680 -0.3884  0.6409  1.3209
14524TIP3   OH265062   2.319   4.259   2.553 -0.0372  0.2403 -0.1755
14524TIP3    H165063   2.303   4.233   2.463  1.9649  0.5947 -0.6866
14524TIP3    H265064   2.325   4.355   2.550 -0.2394  0.2782  0.3979
14525TIP3   OH265065   4.806   1.610  13.064  0.3284  0.0026 -0.2891
14525TIP3    H165066   4.759   1.676  13.013 -1.4987 -0.9945  0.0066
14525TIP3    H265067   4.765   1.527  13.039  3.7379 -1.3544 -2.0376
14526TIP3   OH265068   4.852   4.210  14.961  0.0544 -0.0797  0.0465
14526TIP3    H165069   4.883   4.275  14.898 -0.6542  0.6888  0.4778
14526TIP3    H265070   4.757   4.222  14.964  0.1135  0.1632  1.5544
14527TIP3   OH265071   2.405   6.114  13.955  0.2685 -0.4352  0.1069
14527TIP3    H165072   2.380   6.046  14.017 -1.4475  1.4185  1.6015
14527TIP3    H265073   2.479   6.159  13.997 -0.3186  0.2520  0.4416
14528TIP3   OH265074   4.370   2.119   2.097 -0.1798  0.5086  0.8979
14528TIP3    H165075   4.397   2.205   2.129 -0.1249  1.8107 -2.3137
14528TIP3    H265076   4.452   2.074   2.077 -0.1743  1.4127 -1.3815
14529TIP3   OH265077   3.428   1.631  16.932 -0.3191  0.0337 -0.0758
14529TIP3    H165078   3.380   1.548  16.935  0.4625 -0.4220  0.1123
14529TIP3    H265079   3.415   1.664  16.843 -1.4186  0.1929  0.1260
14530TIP3   OH265080   2.286   0.883   3.875 -0.7395  0.3857  0.3836
14530TIP3    H165081   2.340   0.847   3.945  0.4757  0.8059 -0.3167
14530TIP3    H265082   2.239   0.807   3.839  0.1693 -0.1575  0.3179
14531TIP3   OH265083   2.316   5.822  12.801  0.6195 -0.3456  0.2358
14531TIP3    H165084   2.312   5.797  12.893  1.1620 -0.1100  0.3267
14531TIP3    H265085   2.256   5.762  12.757  0.4864 -0.5675  0.7188
14532TIP3   OH265086   6.590   1.671   1.490  0.5420 -0.2786 -0.2829
14532TIP3    H165087   6.542   1.598   1.530 -0.6812  0.1190 -0.9969
14532TIP3    H265088   6.623   1.720   1.565 -0.5412 -0.3158  0.2497
14533TIP3   OH265089   3.370   0.039  15.207 -0.1677 -0.0963 -0.3523
14533TIP3    H165090   3.320   0.004  15.280 -3.2217  1.2840 -1.6204
14533TIP3    H265091   3.386  -0.037  15.150  1.2551 -0.9609  1.1105
14534TIP3   OH265092   4.839   2.225   2.710 -0.3718  0.6243  0.4763
14534TIP3    H165093   4.833   2.306   2.660 -0.5470 -0.1443 -0.8071
14534TIP3    H265094   4.758   2.221   2.761 -1.5668  0.0722 -1.3661
14535TIP3   OH265095   1.016   2.890   5.769  0.2671  0.3636 -0.1979
14535TIP3    H165096   1.062   2.887   5.853 -0.2440  0.8342  0.1052
14535TIP3    H265097   0.976   2.977   5.767  0.8663  0.6400 -1.2494
14536TIP3   OH265098   1.541   6.113   0.131  0.4125 -0.0283  0.0594
14536TIP3    H165099   1.548   6.148   0.220 -0.0263  1.8762 -0.6302
14536TIP3    H265100   1.572   6.183   0.074  2.0224 -1.6914 -1.2599
14537TIP3   OH265101   0.611   1.649  12.985  0.1981  0.1473 -0.8059
14537TIP3    H165102   0.541   1.586  13.004 -0.2029  0.6245 -0.7013
14537TIP3    H265103   0.689   1.610  13.025  0.1762 -0.8073 -1.6550
14538TIP3   OH265104   4.063   2.686   5.208 -0.0134  0.3516 -0.1792
14538TIP3    H165105   4.139   2.639   5.174  0.4367  0.7135  0.3043
14538TIP3    H265106   4.072   2.774   5.172 -0.9593  0.0383 -1.2483
14539TIP3   OH265107   3.663   2.550   2.069 -0.0001 -0.1293  0.0312
14539TIP3    H165108   3.596   2.566   2.003  2.4942  0.0490 -2.7074
14539TIP3    H265109   3.687   2.458   2.057  1.0893  0.1381  0.0170
14540TIP3   OH265110   3.124   0.727  11.464  0.0213  0.3161 -0.1782
14540TIP3    H165111   3.121   0.802  11.524  0.3806  1.4479 -1.5123
14540TIP3    H265112   3.211   0.689  11.476  0.7668  1.6160 -1.1819
14541TIP3   OH265113   0.392   0.109  16.801 -0.6797  1.0122  0.2256
14541TIP3    H165114   0.356   0.060  16.875 -1.3110  2.1424  0.6928
14541TIP3    H265115   0.446   0.177  16.841 -0.3787  1.1437 -0.3850
14542TIP3   OH265116   6.266   1.208  12.366  0.4094  0.4445  0.1247
14542TIP3    H165117   6.278   1.205  12.461 -0.2210 -0.5920  0.1903
14542TIP3    H265118   6.335   1.151  12.331  0.4098  0.5277 -0.0093
14543TIP3   OH265119   0.879   6.461   4.069 -0.0413 -0.6885  0.6334
14543TIP3    H165120   0.877   6.538   4.126 -0.3877 -0.6083  0.5177
14543TIP3    H265121   0.968   6.458   4.035 -0.5851  0.8875 -1.0359
14544TIP3   OH265122   0.754   5.553  11.742  0.1672  0.1469  0.2302
14544TIP3    H165123   0.705   5.525  11.819 -1.4084 -0.0603 -0.7862
14544TIP3    H265124   0.753   5.477  11.683  1.1067  0.3831 -0.1067
14545TIP3   OH265125   1.530   6.360   2.434 -0.1359  0.0266 -0.0408
14545TIP3    H165126   1.620   6.371   2.404  0.5932  1.3953  2.3775
14545TIP3    H265127   1.487   6.443   2.411 -0.4034 -0.0757  0.0801
14546TIP3   OH265128   4.388   1.999  11.887  0.2055 -0.1532 -0.5300
14546TIP3    H165129   4.408   2.024  11.977  0.7050 -1.2297 -0.3215
14546TIP3    H265130   4.458   1.939  11.862  0.3982  0.5750 -1.8540
14547TIP3   OH265131   2.496   5.426   0.780  0.1896 -0.0516 -0.2289
14547TIP3    H165132   2.426   5.370   0.746  0.7921 -1.0470  0.1304
14547TIP3    H265133   2.454   5.479   0.848 -1.1237  2.2338 -2.6122
14548TIP3   OH265134   0.829   0.629   2.608  0.5120  0.1372  0.3220
14548TIP3    H165135   0.907   0.587   2.643  1.7214  2.7125  0.9354
14548TIP3    H265136   0.817   0.707   2.662 -1.0368  1.1154 -1.3136
14549TIP3   OH265137   1.369   3.780   3.355 -0.0396 -0.2217  0.2071
14549TIP3    H165138   1.415   3.715   3.409  0.4215 -0.6140 -0.6339
14549TIP3    H265139   1.317   3.728   3.295  1.6417  0.1070 -1.6270
14550TIP3   OH265140   2.625   5.544  12.989 -0.0289  0.2824  0.2421
14550TIP3    H165141   2.566   5.617  13.006  0.7733  0.2425  3.9990
14550TIP3    H265142   2.708   5.571  13.027  1.2141 -1.4001 -1.0969
14551TIP3   OH265143   6.386   1.016  12.099  0.3343  0.6149  0.2122
14551TIP3    H165144   6.376   0.926  12.067  0.7413  0.2099  1.1622
14551TIP3    H265145   6.333   1.069  12.040 -1.4089 -0.4934  0.7053
14552TIP3   OH265146   3.688   3.585  10.911  0.4964  0.1409 -0.3342
14552TIP3    H165147   3.605   3.569  10.864  0.2393  2.5330 -0.8129
14552TIP3    H265148   3.721   3.497  10.930 -1.8599 -0.9017 -0.6291
14553TIP3   OH265149   0.001   3.950   2.887 -0.2244  0.6145  0.2927
14553TIP3    H165150   0.025   3.866   2.925 -0.4173  0.4010 -0.0565
14553TIP3    H265151   0.015   4.013   2.958 -2.4435 -0.0256  1.3861
14554TIP3   OH265152   6.308   3.328   5.604  0.4071 -0.0197  0.0162
14554TIP3    H165153   6.249   3.265   5.645 -2.1056  3.3501  2.0161
14554TIP3    H265154   6.259   3.361   5.529  1.1907  0.4371 -0.3062
14555TIP3   OH265155   0.782   5.234   6.068 -0.2924 -0.2309  0.7254
14555TIP3    H165156   0.843   5.288   6.118 -0.7508  0.4542  0.5752
14555TIP3    H265157   0.777   5.152   6.116 -0.0823  0.1061  1.3414
14556TIP3   OH265158   6.704   2.380  16.941  0.1866 -0.5255 -0.3405
14556TIP3    H165159   6.741   2.306  16.989  0.4530  0.4303  0.9572
14556TIP3    H265160   6.612   2.381  16.965 -0.0199 -0.9522 -1.0626
14557TIP3   OH265161   5.198   2.011  15.932  0.5293  0.8368 -0.1953
14557TIP3    H165162   5.213   1.945  15.864  2.6049  1.4695 -0.4229
14557TIP3    H265163   5.106   1.999  15.957  0.7786 -2.0072 -0.3420
14558TIP3   OH265164   4.735   5.788  16.143  0.3523 -0.4345  0.1083
14558TIP3    H165165   4.729   5.699  16.107  0.7542 -0.8740  1.0804
14558TIP3    H265166   4.646   5.809  16.170  0.4342 -0.9886  0.8615
14559TIP3   OH265167   0.922   4.792   3.053  0.0446  0.3109 -0.2329
14559TIP3    H165168   0.963   4.851   2.989  0.2219 -0.6514 -1.0376
14559TIP3    H265169   0.829   4.814   3.050 -0.1431 -0.5901 -1.7974
14560TIP3   OH265170   5.996   0.457  13.953 -0.3040 -0.3669  0.5760
14560TIP3    H165171   5.917   0.431  14.000 -0.3092 -2.0808 -0.2955
14560TIP3    H265172   6.067   0.413  13.999 -0.0374 -0.0650  0.4554
14561TIP3   OH265173   0.788   6.690  12.394  0.5007  0.0308 -0.4346
14561TIP3    H165174   0.758   6.753  12.459  1.5074 -0.4611  0.5300
14561TIP3    H265175   0.800   6.609  12.442  1.4244 -0.2973 -1.1826
14562TIP3   OH265176   3.960   5.003   6.386 -0.3056  0.0462 -0.4389
14562TIP3    H165177   3.919   5.073   6.336 -0.7227 -0.9230 -1.4831
14562TIP3    H265178   3.961   5.036   6.476 -1.0576  1.1265 -0.8015
14563TIP3   OH265179   4.426   0.412   5.787 -0.2633 -0.4018  0.0336
14563TIP3    H165180   4.400   0.345   5.723  0.3922 -1.8838  1.2729
14563TIP3    H265181   4.497   0.372   5.837 -1.6430  0.1450  2.6202
14564TIP3   OH265182   3.157   5.158   5.384 -0.2094  0.1838 -0.1449
14564TIP3    H165183   3.151   5.127   5.294  1.3015 -0.0861 -0.1834
14564TIP3    H265184   3.235   5.213   5.385 -1.1214  1.5175  0.6425
14565TIP3   OH265185   5.928   1.620  12.507  0.1804 -0.4141 -0.2310
14565TIP3    H165186   5.958   1.711  12.501 -1.3399  0.0689 -0.8169
14565TIP3    H265187   5.938   1.586  12.418 -0.9650 -0.2516 -0.4292
14566TIP3   OH265188   3.300   5.929  17.028 -0.1407 -0.2987 -0.1455
14566TIP3    H165189   3.209   5.902  17.023 -0.8806  1.9622 -0.0954
14566TIP3    H265190   3.339   5.900  16.946 -1.3665  0.1952 -0.9252
14567TIP3   OH265191   5.333   2.668   4.787 -0.4818 -0.1627  0.0589
14567TIP3    H165192   5.311   2.577   4.764 -2.4183  0.5797 -1.2831
14567TIP3    H265193   5.333   2.669   4.882 -0.7585 -1.4990  0.0971
14568TIP3   OH265194   4.019   1.159   1.158  0.2042  0.3896 -0.0542
14568TIP3    H165195   4.072   1.172   1.079 -0.9156  1.7723 -0.6396
14568TIP3    H265196   4.076   1.111   1.218  2.6851  2.9775 -0.1064
14569TIP3   OH265197   6.036   6.374  14.738  0.8119  0.3318 -0.1632
14569TIP3    H165198   5.987   6.450  14.706  1.2255 -0.2381 -2.3692
14569TIP3    H265199   6.128   6.401  14.732  0.9498 -0.2246 -0.7237
14570TIP3   OH265200   3.877   3.288  15.091  0.1736 -0.1343  0.0436
14570TIP3    H165201   3.904   3.246  15.173 -0.8071 -0.0504  0.4218
14570TIP3    H265202   3.882   3.219  15.026  1.9828  0.0520 -0.0588
14571TIP3   OH265203   3.849   0.450   0.899 -0.0160 -0.2193 -0.2634
14571TIP3    H165204   3.791   0.398   0.843  0.5215 -0.9748 -0.1326
14571TIP3    H265205   3.795   0.472   0.975 -1.1621  1.8762 -1.5766
14572TIP3   OH265206   1.225   2.326  10.263  0.5582  0.0734 -0.2267
14572TIP3    H165207   1.172   2.247  10.272  0.3518  0.2542  0.2028
14572TIP3    H265208   1.231   2.341  10.169  0.2439 -0.2147 -0.2952
14573TIP3   OH265209   4.955   2.396   1.883  0.3289 -0.2463  0.0345
14573TIP3    H165210   4.890   2.461   1.858 -0.9026  0.1593  3.6652
14573TIP3    H265211   4.943   2.325   1.820 -3.9443 -0.3180  0.5861
14574TIP3   OH265212   1.588   2.742   2.504 -0.0412 -0.3936 -0.0403
14574TIP3    H165213   1.656   2.727   2.438  2.4371  0.1640  2.2586
14574TIP3    H265214   1.560   2.654   2.529  0.1826 -0.6382 -0.6220
14575TIP3   OH265215   6.698   3.883   2.173 -0.3127 -0.0447  0.2994
14575TIP3    H165216   6.786   3.847   2.161  0.8404  3.1771 -2.5313
14575TIP3    H265217   6.710   3.956   2.234 -1.3990 -0.6202  1.2305
14576TIP3   OH265218   2.295   5.072   3.398 -0.0807  0.2959 -0.0336
14576TIP3    H165219   2.320   5.158   3.366 -2.0907  0.4074 -1.4673
14576TIP3    H265220   2.285   5.083   3.493  0.4341  1.4226 -0.1008
14577TIP3   OH265221   3.225   6.275  11.312 -0.1466 -0.6997 -0.0907
14577TIP3    H165222   3.201   6.363  11.340  2.0017 -0.0130 -0.2098
14577TIP3    H265223   3.232   6.281  11.217 -1.4486 -1.4398 -0.2685
14578TIP3   OH265224   5.770   3.110   0.812 -0.3818  0.3568 -0.2380
14578TIP3    H165225   5.814   3.035   0.852 -1.3697  0.6868  1.5444
14578TIP3    H265226   5.678   3.085   0.808 -0.5717  1.0742 -0.5880
14579TIP3   OH265227   0.430   4.690   2.503  0.4065 -0.6610 -0.3941
14579TIP3    H165228   0.364   4.757   2.484 -1.3556 -1.6509  1.8184
14579TIP3    H265229   0.435   4.688   2.599  1.9636 -2.2492 -0.4573
14580TIP3   OH265230   3.807   1.489   6.067  0.6554 -0.0121  0.2400
14580TIP3    H165231   3.822   1.557   6.000  1.4381 -1.2637 -0.9141
14580TIP3    H265232   3.895   1.458   6.088  0.4723  0.6736  2.2622
14581TIP3   OH265233   4.860   6.799  13.449 -0.2782 -0.2276 -0.3273
14581TIP3    H165234   4.937   6.845  13.480 -1.3713  0.9258  0.7857
14581TIP3    H265235   4.793   6.817  13.514 -1.4451 -1.3583 -1.1592
14582TIP3   OH265236   4.675   4.731  13.014 -0.5937  0.1662  0.2362
14582TIP3    H165237   4.612   4.670  13.053 -1.6993  1.0323 -0.1112
14582TIP3    H265238   4.757   4.713  13.060 -0.5014 -2.4884 -0.8110
14583TIP3   OH265239   0.163   2.364  15.569  0.0447  0.9027 -0.3038
14583TIP3    H165240   0.173   2.452  15.534 -1.8642  1.6141  0.7761
14583TIP3    H265241   0.164   2.376  15.664  1.5270 -0.5010 -0.1029
14584TIP3   OH265242   3.499   3.932  13.532 -0.0406  0.0019  0.0727
14584TIP3    H165243   3.448   3.851  13.540 -0.8861  0.1674 -2.7768
14584TIP3    H265244   3.590   3.903  13.541 -0.3853 -1.0364  0.4166
14585TIP3   OH265245   3.932   1.873   0.612  0.0959 -0.1394  0.3558
14585TIP3    H165246   3.879   1.812   0.561  0.6681 -0.7619  0.4867
14585TIP3    H265247   4.022   1.856   0.583  0.3378  0.1100  0.9430
14586TIP3   OH265248   0.136   2.881  16.368  0.4305 -0.0563 -0.2481
14586TIP3    H165249   0.154   2.937  16.443  0.4307  1.0451 -1.0573
14586TIP3    H265250   0.044   2.857  16.378 -0.5128  2.7040 -1.5490
14587TIP3   OH265251   6.806   3.097  12.014 -0.1364  0.2817  0.1323
14587TIP3    H165252   6.852   3.035  11.957  0.4065 -0.4116  1.2942
14587TIP3    H265253   6.800   3.052  12.098 -0.7395  1.3735  0.6870
14588TIP3   OH265254   3.994   5.462  16.680 -0.4383  0.2326 -0.0772
14588TIP3    H165255   3.918   5.520  16.672  0.1173  0.9823  0.0265
14588TIP3    H265256   4.027   5.453  16.591  0.2080  1.0789  0.0685
14589TIP3   OH265257   5.028   0.301   5.520  0.2578 -0.3009 -0.0589
14589TIP3    H165258   5.011   0.271   5.610 -1.1739  0.7762  0.0653
14589TIP3    H265259   4.987   0.234   5.465  1.2152 -1.0123  0.0564
14590TIP3   OH265260   1.649   3.077  17.274 -0.3557  0.4194  0.2567
14590TIP3    H165261   1.626   3.141  17.206  0.1383 -0.1089 -0.4252
14590TIP3    H265262   1.602   2.998  17.249  0.7756 -0.1394 -0.1642
14591TIP3   OH265263   4.003   1.925  15.769  0.3290 -0.2750  0.4220
14591TIP3    H165264   3.970   1.863  15.704  0.2741 -0.8196  0.9617
14591TIP3    H265265   4.004   1.876  15.851  4.0155 -0.8156  0.1789
14592TIP3   OH265266   1.482   2.169  14.121 -0.5865  0.0738 -0.1966
14592TIP3    H165267   1.443   2.173  14.208 -0.3648  0.9400 -0.1266
14592TIP3    H265268   1.532   2.087  14.121 -0.0425  0.3964  0.7261
14593TIP3   OH265269   6.142   0.531  12.114  0.3802  0.4982 -0.1941
14593TIP3    H165270   6.162   0.477  12.038 -0.8467  1.5638 -1.3362
14593TIP3    H265271   6.113   0.470  12.181  1.8364 -0.5012 -0.4385
14594TIP3   OH265272   4.038   6.336   2.810 -0.1124  0.0830 -0.1525
14594TIP3    H165273   4.083   6.420   2.814  1.7707 -0.7340 -2.0980
14594TIP3    H265274   4.005   6.331   2.720 -1.3824 -0.6882  0.3422
14595TIP3   OH265275   5.227   3.174   0.858  0.3377 -0.2513 -0.5902
14595TIP3    H165276   5.133   3.155   0.858  0.2100  0.3115 -1.5330
14595TIP3    H265277   5.233   3.265   0.887  0.4828  0.1401 -1.8135
14596TIP3   OH265278   2.329   3.426   2.953  0.4158 -0.4583 -0.2605
14596TIP3    H165279   2.396   3.365   2.986  0.0632 -0.9683 -0.4644
14596TIP3    H265280   2.348   3.508   2.998  0.3607 -0.9593  0.7147
14597TIP3   OH265281   6.134   6.629  11.504 -0.1359  0.0722  0.1646
14597TIP3    H165282   6.215   6.665  11.539 -0.0827  1.1751 -0.9937
14597TIP3    H265283   6.162   6.557  11.447 -0.1385 -0.8706  1.3147
14598TIP3   OH265284   5.709   4.070   3.180 -0.3015 -0.6487 -0.2096
14598TIP3    H165285   5.717   4.164   3.199  0.9518 -0.3712 -1.8580
14598TIP3    H265286   5.657   4.067   3.100  0.8454 -1.2362 -0.9603
14599TIP3   OH265287   1.691   6.273  11.479  0.5871 -0.1630 -0.0073
14599TIP3    H165288   1.657   6.362  11.482  0.7556 -0.0967 -0.0350
14599TIP3    H265289   1.679   6.246  11.388 -0.1254 -0.4334  0.1602
14600TIP3   OH265290   3.391   1.105   5.128  0.6908  0.1757  0.2621
14600TIP3    H165291   3.345   1.020   5.123  0.7042  0.1284  0.8430
14600TIP3    H265292   3.375   1.146   5.043 -3.4161  1.6682  1.4991
14601TIP3   OH265293   1.218   6.351  16.984 -0.0145 -0.0013  0.2410
14601TIP3    H165294   1.212   6.256  16.994  2.3745 -0.1606  0.6897
14601TIP3    H265295   1.198   6.386  17.070 -0.8152 -0.0808  0.0970
14602TIP3   OH265296   2.756   2.289   5.260 -0.2539  0.1507  0.6805
14602TIP3    H165297   2.838   2.338   5.261 -0.4451  0.6833 -1.8138
14602TIP3    H265298   2.777   2.206   5.303  1.2507  0.7371  1.1542
14603TIP3   OH265299   3.640   0.871  12.308  0.1495 -0.0822  0.1759
14603TIP3    H165300   3.612   0.846  12.396 -1.0942  1.8083  0.3753
14603TIP3    H265301   3.687   0.954  12.320 -0.3686  0.4063 -0.9523
14604TIP3   OH265302   4.448   1.641   1.344 -0.4938 -0.5119 -0.2351
14604TIP3    H165303   4.413   1.730   1.346  0.5958 -0.0814  0.4602
14604TIP3    H265304   4.381   1.588   1.388 -0.9212  0.0382 -0.2076
14605TIP3   OH265305   0.614   4.404  13.600  0.1468  0.4880  0.1273
14605TIP3    H165306   0.673   4.333  13.575 -1.7891 -0.1733 -3.2028
14605TIP3    H265307   0.539   4.359  13.640  0.7872  1.1017  2.0878
14606TIP3   OH265308   3.753   5.540   4.789  0.1338  0.2480  0.7411
14606TIP3    H165309   3.658   5.551   4.783 -0.0257  0.1003  2.5032
14606TIP3    H265310   3.783   5.619   4.834  0.4930 -0.8646  2.5500
14607TIP3   OH265311   2.093   6.215  14.227 -0.2480 -0.7540  0.6284
14607TIP3    H165312   2.185   6.228  14.252 -0.1509 -0.0519 -0.0456
14607TIP3    H265313   2.080   6.275  14.153 -0.9678 -1.5689  0.0705
14608TIP3   OH265314   2.103   4.900   1.405  0.7499  0.1495  0.0747
14608TIP3    H165315   2.103   4.976   1.463  0.2936 -0.7899  1.3783
14608TIP3    H265316   2.127   4.934   1.320 -0.7567  1.9983  0.3090
14609TIP3   OH265317   5.130   1.947  12.885 -0.1613 -0.7036  0.1560
14609TIP3    H165318   5.047   1.903  12.868 -0.4041 -0.5606  0.9174
14609TIP3    H265319   5.186   1.879  12.923  0.7997 -1.3491 -2.2463
14610TIP3   OH265320   6.169   1.594   3.362 -0.1633 -0.3245  0.0901
14610TIP3    H165321   6.218   1.665   3.320  1.3285 -1.4250 -0.1029
14610TIP3    H265322   6.086   1.591   3.314 -1.2824  2.7155  1.5360
14611TIP3   OH265323   4.555   3.032   0.240  0.0397  0.2230 -0.0343
14611TIP3    H165324   4.632   2.983   0.270 -0.5924 -0.5079  0.4242
14611TIP3    H265325   4.563   3.031   0.144  0.7227  0.3596  0.0150
14612TIP3   OH265326   2.905   3.320   1.100  0.2235  0.1678  0.2710
14612TIP3    H165327   2.902   3.297   1.008  0.3039 -0.0513  0.3222
14612TIP3    H265328   2.988   3.367   1.111  1.4791 -2.0243  0.7286
14613TIP3   OH265329   5.407   2.334   5.628  0.3934  0.4073  0.2975
14613TIP3    H165330   5.469   2.338   5.555  0.6508  1.3309  0.5595
14613TIP3    H265331   5.385   2.241   5.634  1.3651  0.1283 -0.1277
14614TIP3   OH265332   5.393   1.816  17.078  0.2168  0.2957  0.4542
14614TIP3    H165333   5.467   1.875  17.093  0.6076 -0.6108  2.3383
14614TIP3    H265334   5.396   1.754  17.151 -1.6578 -0.5488 -0.1215
14615TIP3   OH265335   0.572   6.811  13.377 -0.5547 -0.2474 -0.1540
14615TIP3    H165336   0.536   6.736  13.329 -0.4989 -1.5772  1.7663
14615TIP3    H265337   0.518   6.885  13.349  0.0391 -0.7270 -2.8994
14616TIP3   OH265338   6.523   6.305   1.029 -0.4802  0.8068 -0.4528
14616TIP3    H165339   6.460   6.249   0.984 -1.3004  1.6385 -0.3662
14616TIP3    H265340   6.477   6.335   1.107  0.6583  0.0114  0.5498
14617TIP3   OH265341   1.050   2.881   2.939  0.1628 -0.2950  0.4996
14617TIP3    H165342   1.110   2.933   2.886 -1.2721  0.2388 -0.6565
14617TIP3    H265343   1.086   2.792   2.934  0.7840 -0.0135 -0.2870
14618TIP3   OH265344   0.353   0.823  11.165 -0.3005  0.3724 -0.0580
14618TIP3    H165345   0.423   0.882  11.137 -0.2419  2.2813  3.5198
14618TIP3    H265346   0.275   0.856  11.121  0.1734  1.6820  0.0295
14619TIP3   OH265347   5.208   4.941   1.274 -0.1248  0.9137  0.0304
14619TIP3    H165348   5.179   4.988   1.352 -1.5150 -0.5535  0.4543
14619TIP3    H265349   5.246   4.860   1.307  1.3756  1.2790 -0.7319
14620TIP3   OH265350   3.407   6.816  14.731  0.4664 -0.4171  0.0683
14620TIP3    H165351   3.369   6.822  14.819  1.2469  0.4878  0.3519
14620TIP3    H265352   3.390   6.901  14.691  0.5300 -0.6627 -0.5022
14621TIP3   OH265353   3.707   3.592   5.952 -0.1809 -0.5209 -0.0666
14621TIP3    H165354   3.666   3.591   6.039 -2.5346 -2.0732 -1.0876
14621TIP3    H265355   3.698   3.682   5.922  0.7146  0.0458  1.3014
14622TIP3   OH265356   2.582   0.662  11.662 -0.6194  0.5692  0.0318
14622TIP3    H165357   2.527   0.623  11.730  1.9368 -1.0455  1.3163
14622TIP3    H265358   2.607   0.589  11.606 -0.7436  1.4944 -1.2946
14623TIP3   OH265359   4.053   2.320   1.076  0.2547  0.1818  0.3311
14623TIP3    H165360   3.967   2.323   1.118  0.6415 -2.1262  1.4352
14623TIP3    H265361   4.038   2.269   0.996  0.4850  0.3995  0.1457
14624TIP3   OH265362   4.390   4.648   5.832 -0.1083 -0.6776 -0.0647
14624TIP3    H165363   4.420   4.719   5.775  0.0288 -0.5613  0.1495
14624TIP3    H265364   4.414   4.676   5.921 -0.2845 -0.8742  0.0475
14625TIP3   OH265365   1.417   2.238   0.120  0.0790 -0.2606 -0.3131
14625TIP3    H165366   1.345   2.216   0.179 -0.3767  0.0528 -0.7422
14625TIP3    H265367   1.419   2.333   0.118  0.9126 -0.2564  0.1731
14626TIP3   OH265368   3.217   2.853   0.687  0.0492  0.0321  0.5715
14626TIP3    H165369   3.164   2.864   0.608  0.8242  0.3610  0.0792
14626TIP3    H265370   3.212   2.760   0.707  0.9352 -0.3119 -0.6694
14627TIP3   OH265371   3.722   5.705  12.516  0.4715 -0.1208  0.3365
14627TIP3    H165372   3.636   5.709  12.474  1.2642 -0.0868 -1.3765
14627TIP3    H265373   3.703   5.688  12.608 -1.4560  2.1830  0.4541
14628TIP3   OH265374   0.456   0.883   0.032  0.1486  0.4362 -0.7699
14628TIP3    H165375   0.514   0.816   0.067  0.7668  1.2303 -0.2427
14628TIP3    H265376   0.413   0.921   0.108 -0.2737  0.5687 -1.0702
14629TIP3   OH265377   3.497   4.579   3.290 -0.2425 -0.3487 -0.1895
14629TIP3    H165378   3.544   4.501   3.262  2.9775  1.7635 -1.2612
14629TIP3    H265379   3.435   4.597   3.219  0.6545 -0.6579 -1.0679
14630TIP3   OH265380   0.342   6.332  15.745 -0.0043 -0.5527  0.2580
14630TIP3    H165381   0.433   6.332  15.713  0.0734 -1.4840  0.4489
14630TIP3    H265382   0.316   6.424  15.741  0.9781 -0.2533  0.2849
14631TIP3   OH265383   0.886   4.835   0.461  0.3613  0.0495 -0.7529
14631TIP3    H165384   0.961   4.790   0.421 -0.0380 -0.1971 -1.2326
14631TIP3    H265385   0.896   4.819   0.555  1.2494  0.5380 -0.7579
14632TIP3   OH265386   4.055   0.653   2.659 -0.4314 -0.1864  0.0583
14632TIP3    H165387   4.109   0.659   2.580  0.6977 -2.9874  0.5217
14632TIP3    H265388   3.974   0.699   2.635  0.7956  1.1247 -1.8618
14633TIP3   OH265389   4.338   0.733   0.848 -0.0999 -0.0283  0.2380
14633TIP3    H165390   4.336   0.663   0.913  0.3545  0.8780  1.2675
14633TIP3    H265391   4.277   0.705   0.780 -1.8766 -0.2709  1.8408
14634TIP3   OH265392   5.452   1.740  15.374  0.4479 -0.3232 -0.0250
14634TIP3    H165393   5.434   1.781  15.290 -2.0675 -0.2637  0.4733
14634TIP3    H265394   5.460   1.812  15.436  0.7733 -0.4242  0.0543
14635TIP3   OH265395   5.327   2.590  17.088 -0.0987  0.1556  0.1434
14635TIP3    H165396   5.374   2.556  17.011  0.1305  2.3573 -0.7736
14635TIP3    H265397   5.240   2.611  17.055  0.6355  3.1654 -0.2184
14636TIP3   OH265398   0.103   3.171  15.115 -0.6064 -0.1871  0.5561
14636TIP3    H165399   0.028   3.126  15.154 -0.0528 -0.5174  1.2622
14636TIP3    H265400   0.156   3.199  15.190  0.1485 -0.2529  0.0590
14637TIP3   OH265401   1.295   1.729  13.926 -0.0485 -0.4554  0.3324
14637TIP3    H165402   1.365   1.686  13.877 -0.1537 -0.4065  0.1379
14637TIP3    H265403   1.219   1.671  13.914 -0.7548  0.7690 -1.6184
14638TIP3   OH265404   5.950   1.678  13.145 -0.6484 -0.6117  0.6456
14638TIP3    H165405   5.892   1.639  13.080 -0.7296 -0.1140  0.4155
14638TIP3    H265406   6.013   1.608  13.166 -1.8082 -1.4313  1.5002
14639TIP3   OH265407   5.111   3.146   3.874 -0.0795 -0.0992  0.4803
14639TIP3    H165408   5.162   3.089   3.816  0.0262 -0.4339  0.8994
14639TIP3    H265409   5.092   3.092   3.951 -1.4478 -0.1267  0.1531
14640TIP3   OH265410   2.220   0.635   4.779  0.2217  0.8341  0.7563
14640TIP3    H165411   2.243   0.560   4.835  1.2821  0.7671  0.2612
14640TIP3    H265412   2.281   0.703   4.806 -0.1860  1.2529  0.6238
14641TIP3   OH265413   1.586   2.594  15.976  0.2235  0.4895  0.7638
14641TIP3    H165414   1.663   2.610  16.030  0.9984  0.8727 -0.4130
14641TIP3    H265415   1.619   2.549  15.898 -0.8539 -0.0287  0.5788
14642TIP3   OH265416   6.315   0.817   0.960  0.5288 -0.5509  0.4339
14642TIP3    H165417   6.366   0.737   0.969 -1.0214 -1.5317  0.9818
14642TIP3    H265418   6.275   0.830   1.046 -1.3499 -0.7051 -0.3688
14643TIP3   OH265419   5.881   0.865   5.491  0.2645  0.1438  0.4114
14643TIP3    H165420   5.930   0.813   5.554  0.2777 -0.4129 -0.0407
14643TIP3    H265421   5.792   0.869   5.527  0.8073  1.8610  1.6433
14644TIP3   OH265422   5.581   6.669  11.307 -0.5826 -0.6172  0.5938
14644TIP3    H165423   5.641   6.598  11.284 -0.8251 -0.0298 -2.1258
14644TIP3    H265424   5.512   6.666  11.241 -1.5761  1.0412  1.4770
14645TIP3   OH265425   4.656   5.956  11.606  0.5492  0.0505  0.0340
14645TIP3    H165426   4.652   5.898  11.682  0.7355  2.6061  2.1424
14645TIP3    H265427   4.565   5.965  11.578 -0.0685  1.7464  2.2498
14646TIP3   OH265428   5.398   4.907  15.316 -0.3648  0.1438 -0.3328
14646TIP3    H165429   5.471   4.963  15.291 -1.0648  1.2982  0.1192
14646TIP3    H265430   5.434   4.850  15.384  0.5491 -0.4742 -1.2976
14647TIP3   OH265431   4.937   3.331   3.083  0.7051  0.6078  0.1440
14647TIP3    H165432   4.974   3.393   3.146  1.7178  0.8174 -0.6348
14647TIP3    H265433   4.918   3.253   3.136  4.1869 -0.2977  0.3366
14648TIP3   OH265434   5.150   1.306  12.223  0.2504  0.2471 -0.2208
14648TIP3    H165435   5.129   1.393  12.257  1.3557  1.0882 -1.6370
14648TIP3    H265436   5.232   1.317  12.176 -0.4022 -1.2054 -1.8119
14649TIP3   OH265437   2.750   0.332  13.852  0.3525  0.0427  0.1498
14649TIP3    H165438   2.816   0.387  13.809 -0.9035  2.0310  0.6707
14649TIP3    H265439   2.689   0.310  13.782  1.2062 -1.3521 -0.2115
14650TIP3   OH265440   1.080   2.293  11.359 -0.3556 -0.5225 -0.2966
14650TIP3    H165441   1.085   2.208  11.315 -0.4653 -0.3503 -0.6481
14650TIP3    H265442   1.051   2.273  11.448 -0.0685 -0.8819 -0.2812
14651TIP3   OH265443   3.242   4.294  12.814  0.2838 -0.3780 -0.3682
14651TIP3    H165444   3.263   4.322  12.903  1.1448 -0.0452 -0.6658
14651TIP3    H265445   3.280   4.206  12.806 -1.9059 -1.4723  0.3704
14652TIP3   OH265446   2.965   2.391   2.568  0.0656 -0.2382  0.2148
14652TIP3    H165447   3.022   2.451   2.520  0.9930  0.0872  1.6618
14652TIP3    H265448   2.991   2.304   2.538  0.0539 -0.0124 -0.4728
14653TIP3   OH265449   0.299   0.497  12.038  0.5328 -0.6434  0.2060
14653TIP3    H165450   0.223   0.496  11.979  0.2697 -0.9568  0.5424
14653TIP3    H265451   0.264   0.531  12.120  0.3122 -2.4726  0.9251
14654TIP3   OH265452   0.597   4.810   3.680  0.3598  0.2884  0.0173
14654TIP3    H165453   0.537   4.809   3.754  0.8421 -2.8997  0.4835
14654TIP3    H265454   0.666   4.871   3.705  0.5660 -0.8028  2.2433
14655TIP3   OH265455   0.056   4.871  10.825 -0.3033  0.3060 -0.0025
14655TIP3    H165456   0.005   4.937  10.778 -0.4883  0.3387  0.2384
14655TIP3    H265457   0.145   4.904  10.823 -0.4499  0.7375  0.4085
14656TIP3   OH265458   1.401   0.121  14.576 -0.7123  0.2736  0.1333
14656TIP3    H165459   1.432   0.064  14.505 -1.4446  0.3195 -0.2300
14656TIP3    H265460   1.318   0.157  14.544 -3.8293 -3.5622  2.9281
14657TIP3   OH265461   3.662   5.795  13.134 -0.7627 -0.0638 -0.1139
14657TIP3    H165462   3.587   5.768  13.081 -0.8785  0.9186 -0.4748
14657TIP3    H265463   3.628   5.864  13.191 -0.1179  0.4661 -0.3539
14658TIP3   OH265464   1.846   3.260  14.728  0.1541  0.2305  0.4483
14658TIP3    H165465   1.810   3.172  14.738  0.4084  0.1991  1.2006
14658TIP3    H265466   1.820   3.305  14.809  1.2917  0.3760  0.7517
14659TIP3   OH265467   2.035   1.435  10.734  0.3171  0.2352 -0.1758
14659TIP3    H165468   2.103   1.369  10.748 -0.3869 -0.7357 -1.2040
14659TIP3    H265469   1.954   1.393  10.760 -0.3199  0.1901 -2.1031
14660TIP3   OH265470   5.380   4.598  10.900 -0.0244  0.6497 -0.1880
14660TIP3    H165471   5.336   4.594  10.814 -0.3228  1.2471 -0.0672
14660TIP3    H265472   5.356   4.515  10.942  1.7354 -0.5539 -1.4361
14661TIP3   OH265473   1.773   3.786   0.395 -0.0708  0.0608 -0.8887
14661TIP3    H165474   1.837   3.825   0.454 -0.7428  0.1158 -0.1752
14661TIP3    H265475   1.698   3.845   0.398 -0.8020 -0.8692 -0.4025
14662TIP3   OH265476   6.158   4.440   6.586  0.8414 -0.6806 -0.0454
14662TIP3    H165477   6.168   4.384   6.664  1.5602  0.9027  1.0618
14662TIP3    H265478   6.248   4.450   6.553  0.6081 -0.8612 -0.7350
14663TIP3   OH265479   6.443   5.952  12.546 -0.4827  0.3561 -0.0655
14663TIP3    H165480   6.535   5.934  12.529 -1.0713 -2.4119 -0.7110
14663TIP3    H265481   6.425   6.032  12.496  1.2584  0.3063 -0.8536
14664TIP3   OH265482   6.597   0.303   1.933  0.0472  0.1531 -0.9059
14664TIP3    H165483   6.513   0.258   1.932  0.3606 -0.4707 -0.4278
14664TIP3    H265484   6.586   0.374   1.996 -0.2182  0.2739 -1.0876
14665TIP3   OH265485   2.741   1.488   5.606 -0.0834 -0.3843 -0.8322
14665TIP3    H165486   2.732   1.521   5.695 -2.0691  1.1252 -1.5275
14665TIP3    H265487   2.824   1.525   5.575 -0.8043  1.5603 -0.5721
14666TIP3   OH265488   6.605   5.587   3.340 -0.1329  0.0269 -0.2141
14666TIP3    H165489   6.579   5.633   3.260 -1.4968 -2.0052 -1.0072
14666TIP3    H265490   6.697   5.567   3.327  0.3209  1.8611 -0.1406
14667TIP3   OH265491   3.415   2.871   3.640 -0.1663  0.1163 -0.5510
14667TIP3    H165492   3.415   2.911   3.727  1.0258 -0.5385 -0.2156
14667TIP3    H265493   3.342   2.912   3.594 -0.2443  1.1518  0.4475
14668TIP3   OH265494   0.778   1.109   4.591  0.4524 -0.0546 -0.9673
14668TIP3    H165495   0.808   1.092   4.502  0.5560 -0.8211 -0.7909
14668TIP3    H265496   0.783   1.024   4.635 -1.6740 -0.1742 -0.8381
14669TIP3   OH265497   3.272   6.247  13.980 -1.3000  0.1354  0.4807
14669TIP3    H165498   3.212   6.265  13.908 -1.2161 -0.1585  0.3363
14669TIP3    H265499   3.330   6.179  13.947  0.9572  2.3438 -0.3992
14670TIP3   OH265500   2.428   1.410  13.494  0.4144 -0.3027 -0.0055
14670TIP3    H165501   2.493   1.415  13.424 -0.4362  1.6478 -0.7409
14670TIP3    H265502   2.365   1.344  13.463  0.6179 -0.2401 -0.5685
14671TIP3   OH265503   2.381   2.037  13.866 -0.5370 -0.1073  1.0718
14671TIP3    H165504   2.473   2.064  13.876 -0.2128 -0.2396 -1.0067
14671TIP3    H265505   2.339   2.112  13.824 -0.5164 -1.2485 -1.1817
14672TIP3   OH265506   0.751   2.252  14.044 -0.1495 -0.1026  0.1105
14672TIP3    H165507   0.707   2.337  14.040 -0.1050 -0.0465  0.6732
14672TIP3    H265508   0.844   2.273  14.041 -0.1475 -0.1767 -0.4007
14673TIP3   OH265509   0.106   4.697   6.854  0.4499  0.0903 -0.6282
14673TIP3    H165510   0.169   4.751   6.903 -0.7210  1.1753 -0.2516
14673TIP3    H265511   0.034   4.683   6.916 -1.1589  1.6329 -2.0101
14674TIP3   OH265512   0.852   1.468  16.255  0.0615 -0.1528 -0.5877
14674TIP3    H165513   0.918   1.537  16.248  0.5395 -0.7476 -2.2998
14674TIP3    H265514   0.881   1.415  16.330  0.0328  1.1000  0.3437
14675TIP3   OH265515   6.696   2.163   1.169 -0.8105 -0.3046  0.2635
14675TIP3    H165516   6.677   2.234   1.230 -0.7964 -0.5248  0.5269
14675TIP3    H265517   6.687   2.083   1.222  1.2683 -0.4109  0.5428
14676TIP3   OH265518   3.481   4.384  13.228 -0.4274  0.1953  0.1267
14676TIP3    H165519   3.553   4.396  13.290 -0.1352  0.6825 -0.3081
14676TIP3    H265520   3.486   4.291  13.203 -0.1655  0.1471  0.3560
14677TIP3   OH265521   3.018   6.437   0.535  0.3224  0.0456 -0.4851
14677TIP3    H165522   2.936   6.412   0.578 -0.0953 -1.5683 -2.0899
14677TIP3    H265523   3.063   6.492   0.599 -1.4957  0.0402  0.8784
14678TIP3   OH265524   4.105   4.182   1.341 -0.7116 -0.3682  0.3495
14678TIP3    H165525   4.110   4.239   1.417 -1.2819 -0.5677  0.5357
14678TIP3    H265526   4.063   4.235   1.273  1.2943  0.3949 -0.3828
14679TIP3   OH265527   3.177   6.377  13.412 -0.0247 -0.3584  0.0574
14679TIP3    H165528   3.111   6.446  13.406 -1.3713 -1.2503  2.7898
14679TIP3    H265529   3.155   6.317  13.340 -1.6580 -0.1432  0.3347
14680TIP3   OH265530   4.972   6.020   3.826 -0.1790 -0.2995 -0.7377
14680TIP3    H165531   5.014   5.976   3.752 -1.4541 -0.7537 -1.2321
14680TIP3    H265532   4.938   6.101   3.789 -1.6963 -0.9811 -0.9496
14681TIP3   OH265533   1.492   2.477   2.574 -0.0314  0.4617  0.5912
14681TIP3    H165534   1.531   2.400   2.614 -0.0184 -0.7388 -1.5850
14681TIP3    H265535   1.410   2.446   2.535 -0.9341  1.9603  1.1614
14682TIP3   OH265536   5.791   4.813   2.918  0.1074  0.5554  0.5080
14682TIP3    H165537   5.720   4.870   2.889  0.4851  0.2713 -1.0526
14682TIP3    H265538   5.751   4.727   2.927  0.1284  0.5085  0.1638
14683TIP3   OH265539   0.576   0.536   0.378 -0.4758 -0.0717  0.4787
14683TIP3    H165540   0.595   0.442   0.385  0.5527  0.1819  1.3873
14683TIP3    H265541   0.534   0.557   0.462 -2.4004 -0.0555 -0.4252
14684TIP3   OH265542   3.205   2.849  16.987 -0.7749 -0.2597  0.1778
14684TIP3    H165543   3.184   2.802  17.068  2.2165  0.2928  1.4163
14684TIP3    H265544   3.202   2.941  17.012  2.2239 -0.1123  0.3830
14685TIP3   OH265545   3.570   4.377   3.893 -0.0275 -0.3474  0.5148
14685TIP3    H165546   3.624   4.389   3.815  0.6464 -1.8700  0.7134
14685TIP3    H265547   3.495   4.326   3.862 -1.4184  1.7167  0.2473
14686TIP3   OH265548   6.024   2.004  12.134 -0.0964 -0.0030  0.6696
14686TIP3    H165549   6.010   1.920  12.178 -0.1067  0.0804  0.8225
14686TIP3    H265550   5.948   2.013  12.076 -0.4092  0.1900  1.1011
14687TIP3   OH265551   6.614   2.400   2.607  0.1895  0.4746  0.6963
14687TIP3    H165552   6.637   2.370   2.695  3.0213  1.9073  0.5594
14687TIP3    H265553   6.559   2.477   2.622 -0.1499  0.1463  1.1708
14688TIP3   OH265554   5.269   6.483  15.882 -0.6116 -0.5022 -0.9813
14688TIP3    H165555   5.277   6.523  15.795  0.0790 -1.1428 -1.2132
14688TIP3    H265556   5.180   6.447  15.883 -0.0567 -2.0175 -2.0953
14689TIP3   OH265557   5.669   4.949   5.740  0.0985  0.1473  0.1384
14689TIP3    H165558   5.740   4.900   5.781  0.6264 -0.4604 -1.4203
14689TIP3    H265559   5.618   4.984   5.813  1.8222  0.3551  1.2907
14690TIP3   OH265560   5.589   6.611   5.829 -0.3915 -0.5603  0.1746
14690TIP3    H165561   5.539   6.557   5.769 -0.4306 -0.9098  0.5191
14690TIP3    H265562   5.550   6.595   5.915 -0.7600  0.4354  0.2006
14691TIP3   OH265563   6.047   0.950   0.153  0.6310 -0.0701 -0.1498
14691TIP3    H165564   6.037   1.023   0.215  0.1062  0.6112 -1.0072
14691TIP3    H265565   5.968   0.954   0.099  1.3633 -0.2639 -1.2566
14692TIP3   OH265566   3.803   4.977   1.362 -0.1831  0.4289 -0.0342
14692TIP3    H165567   3.858   4.989   1.285 -0.5787 -0.8134 -0.5442
14692TIP3    H265568   3.721   4.940   1.327  0.0320 -1.1907  1.0586
14693TIP3   OH265569   4.395   4.029  10.824 -0.3153  0.1538 -0.1094
14693TIP3    H165570   4.486   4.057  10.816 -0.2969  0.8776  1.9369
14693TIP3    H265571   4.360   4.082  10.896 -2.2084 -0.4890 -0.4956
14694TIP3   OH265572   5.524   2.269   2.459 -0.3369  0.3739  0.3144
14694TIP3    H165573   5.511   2.360   2.433  0.1913  0.6388  0.9530
14694TIP3    H265574   5.602   2.241   2.411 -0.5165  0.2452  0.0949
14695TIP3   OH265575   3.518   1.172   4.706 -0.4590  0.3044 -0.1259
14695TIP3    H165576   3.429   1.203   4.717 -0.8387 -1.1463  1.4621
14695TIP3    H265577   3.569   1.250   4.685 -1.8584  1.4171  0.4601
14696TIP3   OH265578   5.553   4.151  13.978  0.2008  0.3174  0.7460
14696TIP3    H165579   5.585   4.209  13.908 -3.3648  0.2049 -1.2107
14696TIP3    H265580   5.548   4.207  14.055 -0.0423  1.7324 -0.2542
14697TIP3   OH265581   2.408   3.839  11.643  0.0237 -0.0005  0.1681
14697TIP3    H165582   2.488   3.877  11.606 -0.4424  1.4507  0.5559
14697TIP3    H265583   2.386   3.768  11.583  1.6004 -0.4442  0.0646
14698TIP3   OH265584   6.270   0.186   5.684 -0.4325 -0.2362 -0.7204
14698TIP3    H165585   6.313   0.216   5.604  1.1962 -1.3621 -0.3061
14698TIP3    H265586   6.325   0.219   5.755 -1.1466 -0.3411 -0.1076
14699TIP3   OH265587   1.432   2.553  10.371 -0.0838  0.4597  0.5483
14699TIP3    H165588   1.399   2.531  10.284 -0.0406 -1.7880  1.0414
14699TIP3    H265589   1.358   2.597  10.414 -1.4211 -1.6579  0.5577
14700TIP3   OH265590   6.010   1.111   4.739 -0.8183  0.1640  0.1481
14700TIP3    H165591   6.081   1.161   4.698 -0.5849  0.3094  0.7201
14700TIP3    H265592   6.040   1.021   4.738 -0.4621  0.2702  0.7083
14701TIP3   OH265593   0.098   1.021   2.674 -0.0479  0.1215  0.2977
14701TIP3    H165594   0.035   0.985   2.611  0.0824  0.6045 -0.1089
14701TIP3    H265595   0.118   1.109   2.642 -0.5569  0.6728  1.4336
14702TIP3   OH265596   5.019   5.400  15.958  0.0190  0.1360 -0.2299
14702TIP3    H165597   4.928   5.412  15.983  0.8005  3.1689  1.7786
14702TIP3    H265598   5.061   5.365  16.037  0.7217 -0.4601 -0.8600
14703TIP3   OH265599   0.496   1.442  13.192 -0.1232 -0.3897 -0.3241
14703TIP3    H165600   0.411   1.401  13.207 -0.3168 -0.0963 -0.5924
14703TIP3    H265601   0.526   1.468  13.279 -0.4164 -0.2908 -0.2507
14704TIP3   OH265602   5.713   2.274   4.031  0.4453 -0.4249  0.1812
14704TIP3    H165603   5.768   2.201   4.001  0.9955  0.6194 -1.5223
14704TIP3    H265604   5.771   2.326   4.086  1.1339  0.4798 -1.3196
14705TIP3   OH265605   0.916   5.936  16.726 -0.1248 -0.5324  0.1438
14705TIP3    H165606   0.885   5.967  16.811 -1.4973  2.1949 -1.2272
14705TIP3    H265607   0.848   5.875  16.696 -0.9977  0.5210 -0.0829
14706TIP3   OH265608   0.085   1.386   3.292 -0.1426 -0.1649 -0.5704
14706TIP3    H165609   0.125   1.466   3.325  0.2492 -0.6274  0.0981
14706TIP3    H265610   0.009   1.416   3.242  1.1148  0.7488 -2.0210
14707TIP3   OH265611   4.552   2.751   2.532  0.2363 -0.2498  0.7345
14707TIP3    H165612   4.576   2.812   2.602  0.5784  0.1227  0.2925
14707TIP3    H265613   4.545   2.666   2.576 -0.5064  0.1452  1.4087
14708TIP3   OH265614   5.531   2.754   3.331 -0.2363  0.1034  0.1382
14708TIP3    H165615   5.446   2.710   3.333 -0.7891  0.9825 -1.6267
14708TIP3    H265616   5.558   2.747   3.239  1.4352  0.1730  0.6035
14709TIP3   OH265617   3.246   3.792   3.422 -0.3616 -0.1054 -0.0299
14709TIP3    H165618   3.232   3.803   3.327 -1.8111  1.8580  0.3410
14709TIP3    H265619   3.328   3.743   3.428  0.8675  1.4163 -2.3330
14710TIP3   OH265620   1.500   2.271   2.781  0.4210  0.2883 -0.3644
14710TIP3    H165621   1.473   2.344   2.837 -0.2349  1.0602 -1.6321
14710TIP3    H265622   1.595   2.268   2.789  0.2766 -0.3038  1.5789
14711TIP3   OH265623   2.350   2.114   3.917 -0.1636  0.6758  0.1393
14711TIP3    H165624   2.343   2.174   3.843 -2.8663  0.6400  0.2695
14711TIP3    H265625   2.443   2.115   3.940  0.2304  3.1589 -1.1967
14712TIP3   OH265626   1.620   0.063  10.619 -0.2095 -0.0603  0.1501
14712TIP3    H165627   1.646   0.145  10.577  2.5162 -0.3971  1.0203
14712TIP3    H265628   1.690   0.001  10.597  1.1391 -0.4254  4.5260
14713TIP3   OH265629   3.552   1.601   6.505 -0.1016 -0.4800 -0.0194
14713TIP3    H165630   3.542   1.506   6.504 -0.9285 -0.3942 -0.2384
14713TIP3    H265631   3.467   1.634   6.533  0.6480  0.1454  1.6815
14714TIP3   OH265632   3.501   4.902   5.591 -0.3920 -0.0195  0.1116
14714TIP3    H165633   3.469   4.897   5.501  3.4570  1.4378 -1.5573
14714TIP3    H265634   3.546   4.818   5.604  2.3647  1.2090 -0.8936
14715TIP3   OH265635   0.343   1.852  14.186 -0.3948 -0.0142 -0.0025
14715TIP3    H165636   0.395   1.808  14.254  2.6589  1.7874 -0.9387
14715TIP3    H265637   0.280   1.787  14.158  2.6571 -3.2283 -0.0719
14716TIP3   OH265638   6.790   1.835  15.460  0.4072 -0.3851 -0.9322
14716TIP3    H165639   6.711   1.883  15.437 -0.4214 -0.1973  1.9135
14716TIP3    H265640   6.779   1.749  15.418 -0.8569 -0.0480 -1.3312
14717TIP3   OH265641   3.519   3.447   1.051 -0.2121 -0.1092  0.5400
14717TIP3    H165642   3.555   3.362   1.078  0.5330 -0.5649 -1.6754
14717TIP3    H265643   3.567   3.511   1.102  0.6726 -0.9315  0.7662
14718TIP3   OH265644   5.775   3.246   3.702 -0.3686  0.6885  0.0588
14718TIP3    H165645   5.821   3.279   3.780 -0.1990 -0.3673  0.4165
14718TIP3    H265646   5.745   3.159   3.727 -0.1027  0.2354 -1.1471
14719TIP3   OH265647   5.289   4.989  12.262  0.0431 -0.0779 -0.9073
14719TIP3    H165648   5.194   4.994  12.270  0.0091  1.8473 -1.8304
14719TIP3    H265649   5.304   4.929  12.188 -0.2850 -2.3831  0.7725
14720TIP3   OH265650   1.125   4.270   4.118 -0.0074 -0.1445  0.0344
14720TIP3    H165651   1.180   4.345   4.143 -0.7982  0.8769 -1.1449
14720TIP3    H265652   1.127   4.213   4.194  1.1782  0.7429  0.7193
14721TIP3   OH265653   4.611   3.754   4.332 -0.3176  0.1794 -0.1245
14721TIP3    H165654   4.596   3.659   4.335  0.1920  0.0754 -0.6953
14721TIP3    H265655   4.632   3.772   4.240 -1.6947  1.0519 -0.3029
14722TIP3   OH265656   5.411   3.604  13.319  0.4570 -0.4056 -0.4071
14722TIP3    H165657   5.495   3.596  13.365  0.8344  0.5818 -0.9039
14722TIP3    H265658   5.406   3.696  13.294 -0.1320 -0.7481 -1.6140
14723TIP3   OH265659   1.344   6.242   5.348  0.0675 -0.1106 -0.4990
14723TIP3    H165660   1.397   6.195   5.284  1.1850  0.0475  0.2907
14723TIP3    H265661   1.370   6.333   5.338  0.7204 -0.1703  0.6192
14724TIP3   OH265662   5.995   3.485   1.405  0.2630 -1.1646  0.1897
14724TIP3    H165663   5.997   3.580   1.402 -2.4895 -1.0617 -0.6097
14724TIP3    H265664   6.015   3.457   1.315 -2.0675 -1.1442 -0.4037
14725TIP3   OH265665   6.310   3.797  13.851  0.4201  0.2962  0.1554
14725TIP3    H165666   6.333   3.704  13.852 -1.5423 -0.2380 -0.2274
14725TIP3    H265667   6.391   3.842  13.873  1.2263 -1.5481  1.1550
14726TIP3   OH265668   2.675   3.255   3.147 -0.2295  0.2131  0.9117
14726TIP3    H165669   2.620   3.331   3.164 -0.5302  0.3579 -0.5550
14726TIP3    H265670   2.765   3.289   3.147 -0.2719  0.3271  1.4734
14727TIP3   OH265671   2.539   6.050  13.662  0.4046 -0.7938  0.0677
14727TIP3    H165672   2.474   5.980  13.662 -0.0996 -0.3337 -0.6528
14727TIP3    H265673   2.550   6.072  13.755 -0.8389 -0.5454  0.1729
14728TIP3   OH265674   2.815   5.098   3.163  0.6145 -0.3718  0.7699
14728TIP3    H165675   2.769   5.081   3.081 -0.0752 -0.5523  1.1928
14728TIP3    H265676   2.886   5.034   3.164 -0.5241 -1.6654  1.2049
14729TIP3   OH265677   1.052   1.009  16.381  0.1655 -0.5816  0.1259
14729TIP3    H165678   1.007   1.086  16.414 -0.3679 -0.6794 -0.3519
14729TIP3    H265679   1.058   1.023  16.287  0.3864 -0.9544  0.0807
14730TIP3   OH265680   4.041   0.767  13.405 -0.6940 -0.3097 -0.6138
14730TIP3    H165681   4.105   0.836  13.424 -0.4152 -0.5767 -0.5833
14730TIP3    H265682   4.094   0.693  13.377 -0.9084 -0.9657  0.6661
14731TIP3   OH265683   5.590   0.764   0.994  0.4451 -0.4471 -0.2115
14731TIP3    H165684   5.616   0.854   0.976  1.3514 -0.7310 -0.3748
14731TIP3    H265685   5.566   0.728   0.908  0.4263 -0.4605 -0.2006
14732TIP3   OH265686   4.327   2.007   4.247 -0.0776  0.2949  0.4905
14732TIP3    H165687   4.397   2.034   4.187  0.6387  0.4506  1.3789
14732TIP3    H265688   4.247   2.013   4.194  0.5627  0.1597 -0.5260
14733TIP3   OH265689   3.836   1.519   0.346 -0.5045  0.0096 -0.0450
14733TIP3    H165690   3.915   1.537   0.396 -0.7453 -0.0008  0.3440
14733TIP3    H265691   3.822   1.425   0.356  0.0577 -0.1940 -1.0460
14734TIP3   OH265692   5.647   2.064   0.618  0.2082  0.5686 -0.2966
14734TIP3    H165693   5.574   2.010   0.647  0.6340  0.2599  0.2006
14734TIP3    H265694   5.652   2.135   0.682 -0.2512  1.1356 -0.8607
14735TIP3   OH265695   6.442   3.235   5.926 -0.6124 -0.4517  0.7056
14735TIP3    H165696   6.499   3.225   6.002 -0.3374 -0.1890  0.5402
14735TIP3    H265697   6.502   3.257   5.855 -0.6351 -2.5400 -0.0161
14736TIP3   OH265698   3.474   3.984   1.558 -0.4807 -0.0582 -0.1494
14736TIP3    H165699   3.523   4.010   1.480 -1.8489 -0.5925 -1.2229
14736TIP3    H265700   3.508   3.897   1.580 -0.3598 -0.0708 -0.3819
14737TIP3   OH265701   3.241   4.578  14.417 -0.2570 -0.4708 -0.1932
14737TIP3    H165702   3.262   4.484  14.417 -0.5008 -0.5266 -0.6218
14737TIP3    H265703   3.317   4.619  14.376 -1.4023 -0.7859 -2.8393
14738TIP3   OH265704   1.077   6.655  11.926  0.6185  0.0687  0.1642
14738TIP3    H165705   1.053   6.631  12.015 -0.3524 -0.6665 -0.2735
14738TIP3    H265706   1.172   6.658  11.927  0.6065  0.6218  1.3536
14739TIP3   OH265707   6.438   5.130  16.663  0.1680 -0.8939 -0.3063
14739TIP3    H165708   6.348   5.107  16.685  0.8456 -2.5206  1.0077
14739TIP3    H265709   6.435   5.151  16.570 -1.5448 -0.9493 -0.3038
14740TIP3   OH265710   1.695   1.179   3.639 -0.1920 -0.3651 -0.1752
14740TIP3    H165711   1.696   1.244   3.709 -2.8197  0.2580 -0.6306
14740TIP3    H265712   1.777   1.195   3.591  0.7325  0.4557  1.5989
14741TIP3   OH265713   0.630   1.287  11.271  0.2821  0.3456  0.3239
14741TIP3    H165714   0.624   1.257  11.362 -0.8988 -0.5077  0.0023
14741TIP3    H265715   0.718   1.265  11.243  0.5542  0.3445  1.1696
14742TIP3   OH265716   1.878   4.156   5.175 -0.2638  0.2009 -0.4719
14742TIP3    H165717   1.922   4.081   5.215 -1.6340 -0.9856 -1.0900
14742TIP3    H265718   1.879   4.138   5.081 -1.4251  0.4710 -0.5605
14743TIP3   OH265719   1.939   2.172   0.606 -0.9073  0.0734  0.3796
14743TIP3    H165720   2.029   2.195   0.583 -0.3671 -2.2985 -0.1421
14743TIP3    H265721   1.917   2.229   0.679  0.5083  1.6726 -0.3903
14744TIP3   OH265722   5.720   5.896  12.281  0.2558 -0.2026  0.1331
14744TIP3    H165723   5.644   5.906  12.225 -1.2425 -2.6806  1.5406
14744TIP3    H265724   5.684   5.886  12.369  2.4535  2.2046  1.4599
14745TIP3   OH265725   2.520   4.614  15.463  0.0780 -0.2041  0.3786
14745TIP3    H165726   2.581   4.607  15.389  0.0835 -1.6823  0.4978
14745TIP3    H265727   2.574   4.595  15.540  0.1358  1.6005  0.8316
14746TIP3   OH265728   2.875   4.390  11.044 -0.2757 -0.3631  0.0832
14746TIP3    H165729   2.782   4.399  11.063 -0.2097  0.4843  0.0318
14746TIP3    H265730   2.915   4.468  11.082  0.5091 -1.0411  0.6872
14747TIP3   OH265731   3.101   2.740  12.901 -0.3720  0.1349 -0.5785
14747TIP3    H165732   3.047   2.680  12.953 -1.0154  0.0408 -1.3361
14747TIP3    H265733   3.104   2.821  12.953  1.8225 -0.9854  1.2414
14748TIP3   OH265734   4.025   2.867  16.217  0.0338 -0.0236 -0.1560
14748TIP3    H165735   3.950   2.909  16.261 -1.3619  2.2614 -4.2174
14748TIP3    H265736   4.004   2.774  16.218 -1.4038  0.2694  1.2479
14749TIP3   OH265737   5.161   0.205  16.457  0.1708 -0.0428  0.4165
14749TIP3    H165738   5.088   0.189  16.517 -0.0864 -0.8197 -0.0803
14749TIP3    H265739   5.125   0.262  16.389 -0.4974 -1.7130 -0.7234
14750TIP3   OH265740   3.315   3.317  13.440  0.7259  0.3059  0.2435
14750TIP3    H165741   3.274   3.276  13.364 -0.4419 -0.5011  1.2639
14750TIP3    H265742   3.278   3.405  13.444  0.8403  0.3718 -0.1513
14751TIP3   OH265743   1.814   3.603  15.695  0.3735  0.3611  0.5320
14751TIP3    H165744   1.848   3.629  15.609  0.4941 -0.4764  0.3218
14751TIP3    H265745   1.881   3.545  15.731 -0.9123 -1.5537 -0.0070
14752TIP3   OH265746   0.265   5.152  16.489  0.2287 -0.5781  0.1791
14752TIP3    H165747   0.291   5.237  16.526 -0.8298 -0.4000  0.5612
14752TIP3    H265748   0.345   5.116  16.451  0.9113  0.1428  0.9079
14753TIP3   OH265749   1.557   3.905   5.917  0.1573  0.2750 -0.6410
14753TIP3    H165750   1.537   3.825   5.868  1.1608 -0.2589 -0.2097
14753TIP3    H265751   1.652   3.903   5.929 -0.0060  0.5987  0.9497
14754TIP3   OH265752   5.726   6.378  17.180 -0.3410 -0.5506  0.3118
14754TIP3    H165753   5.768   6.383  17.266  3.7602  2.8125 -1.4998
14754TIP3    H265754   5.670   6.456  17.176  0.9016  0.3427 -0.5613
14755TIP3   OH265755   6.650   1.661   3.588 -0.2240 -0.7808  0.1725
14755TIP3    H165756   6.660   1.567   3.571  0.1143 -0.7078 -0.0481
14755TIP3    H265757   6.703   1.677   3.666 -0.1535 -0.7460  0.1180
14756TIP3   OH265758   5.264   4.426   1.111 -0.3425 -0.4649 -0.2190
14756TIP3    H165759   5.211   4.400   1.186 -0.0659 -2.1608 -0.5821
14756TIP3    H265760   5.204   4.424   1.037 -0.1210 -0.9132 -0.3879
14757TIP3   OH265761   1.335   1.242  13.679  0.2911  0.2804  0.1273
14757TIP3    H165762   1.275   1.311  13.652  0.8635  1.1634  1.0676
14757TIP3    H265763   1.419   1.265  13.638  0.4391  0.0472  0.2945
14758TIP3   OH265764   5.945   2.724  11.026 -0.2674 -0.6695  0.1793
14758TIP3    H165765   5.980   2.646  10.984  3.0337  0.0347  1.2633
14758TIP3    H265766   5.853   2.727  11.001  0.1114 -3.4761 -1.9607
14759TIP3   OH265767   5.734   3.399  15.509 -0.3322 -0.1773 -0.4532
14759TIP3    H165768   5.673   3.466  15.541 -2.6562 -2.6224  0.5650
14759TIP3    H265769   5.821   3.433  15.532 -1.5199  1.4664  2.0442
14760TIP3   OH265770   0.907   5.044  16.215  0.5351  0.2774 -0.6648
14760TIP3    H165771   0.838   4.996  16.169 -0.7349  0.4295  0.9599
14760TIP3    H265772   0.970   5.067  16.148 -0.1405 -1.3775 -1.9283
14761TIP3   OH265773   1.701   6.724   2.213 -0.0402  0.8564  0.0726
14761TIP3    H165774   1.740   6.669   2.281  0.3340  0.4085 -0.4886
14761TIP3    H265775   1.774   6.777   2.181  0.7190 -1.4729 -2.4530
14762TIP3   OH265776   6.297   1.983  13.663 -0.1859 -0.3911 -0.3927
14762TIP3    H165777   6.240   2.008  13.735 -1.3263 -0.8253 -1.1183
14762TIP3    H265778   6.378   1.952  13.705  0.8936  3.2564  0.6351
14763TIP3   OH265779   5.840   1.795  12.240  0.2911 -0.2344  0.1403
14763TIP3    H165780   5.865   1.702  12.235 -1.4845 -0.7510 -0.1709
14763TIP3    H265781   5.886   1.828  12.316  2.3834 -0.8807 -0.7734
14764TIP3   OH265782   6.783   5.625  12.458 -0.0024  0.1956 -0.7560
14764TIP3    H165783   6.741   5.709  12.440  0.2629  0.3660 -0.5821
14764TIP3    H265784   6.849   5.616  12.389  0.2765  0.3400 -0.5081
14765TIP3   OH265785   5.337   2.392  17.294 -0.3504  0.8698 -0.4465
14765TIP3    H165786   5.361   2.453  17.224 -0.5832  2.3937  0.7713
14765TIP3    H265787   5.255   2.426  17.329 -0.5523 -0.2179  0.1865
14766TIP3   OH265788   2.630   3.506  13.874 -0.3138 -0.0642 -0.1443
14766TIP3    H165789   2.593   3.568  13.811 -1.5103 -1.5246 -0.9312
14766TIP3    H265790   2.643   3.558  13.953 -0.1434  1.4740 -1.1190
14767TIP3   OH265791   2.880   0.132   5.547 -0.2121 -0.0733 -0.3473
14767TIP3    H165792   2.888   0.042   5.578 -0.7221  0.1879  0.5890
14767TIP3    H265793   2.794   0.160   5.578  0.3039  1.0204  0.1381
14768TIP3   OH265794   6.323   6.106   6.784 -0.1582  0.1604  0.0598
14768TIP3    H165795   6.237   6.074   6.811 -0.2017  1.5051  1.6106
14768TIP3    H265796   6.311   6.199   6.769  0.2336 -0.1882 -3.3248
14769TIP3   OH265797   1.701   0.912   1.598  0.1974 -0.3980  0.1955
14769TIP3    H165798   1.722   0.846   1.532  0.6259  0.6909 -0.7931
14769TIP3    H265799   1.741   0.993   1.565  1.2743 -0.0232  2.2770
14770TIP3   OH265800   1.940   2.793  13.559 -0.0446  0.0916  0.0146
14770TIP3    H165801   1.856   2.807  13.514  0.4302  1.9242 -0.3751
14770TIP3    H265802   1.952   2.871  13.612  1.1001 -0.4827  0.6326
14771TIP3   OH265803   5.983   4.159  13.737 -0.0621  0.5661 -0.7534
14771TIP3    H165804   5.993   4.228  13.802  0.5604 -0.6018  0.4395
14771TIP3    H265805   5.945   4.085  13.785  0.1279 -0.2272 -1.7732
14772TIP3   OH265806   3.403   2.718   0.097  0.3105 -0.3362 -0.3304
14772TIP3    H165807   3.425   2.628   0.120  1.1224  0.1318  0.7930
14772TIP3    H265808   3.463   2.741   0.026  1.6386  0.0271  0.8731
14773TIP3   OH265809   0.218   4.558   5.888  0.8680  0.3113 -0.1800
14773TIP3    H165810   0.272   4.613   5.945  1.2781  0.9484 -1.1644
14773TIP3    H265811   0.250   4.576   5.800 -1.5768  1.4535 -0.9143
14774TIP3   OH265812   1.070   4.143  12.784  0.0774  0.2723 -0.2740
14774TIP3    H165813   0.999   4.183  12.734 -1.6604  0.3643  2.0874
14774TIP3    H265814   1.078   4.197  12.863  0.3002 -1.7798  1.1936
14775TIP3   OH265815   2.171   1.230  12.319 -0.2212 -0.4503  0.1744
14775TIP3    H165816   2.213   1.152  12.282 -1.4644 -0.8776 -0.3941
14775TIP3    H265817   2.243   1.281  12.354  1.2292  0.3462 -3.4968
14776TIP3   OH265818   0.230   2.644   2.065 -0.0130 -0.1666 -0.4776
14776TIP3    H165819   0.169   2.717   2.071 -0.6916 -0.6666 -1.0063
14776TIP3    H265820   0.243   2.615   2.155  0.2049  0.5618 -0.2755
14777TIP3   OH265821   6.251   1.659   1.961  0.0041 -0.5341  0.0372
14777TIP3    H165822   6.339   1.620   1.957  0.3377  0.2385 -0.4153
14777TIP3    H265823   6.201   1.613   1.893  0.9831  1.1917 -1.9703
14778TIP3   OH265824   3.079   6.762   3.169 -0.0882 -0.8914  0.1296
14778TIP3    H165825   3.014   6.704   3.129 -1.1051  0.6996 -0.6422
14778TIP3    H265826   3.039   6.790   3.251  0.3671 -1.2196  0.4669
14779TIP3   OH265827   3.731   2.253  13.958 -0.1427 -0.2353  0.3718
14779TIP3    H165828   3.724   2.214  13.871 -1.0469  0.7501 -0.0137
14779TIP3    H265829   3.815   2.299  13.957 -0.8975  1.1859 -0.5919
14780TIP3   OH265830   5.385   6.048  14.193 -0.2062 -0.2440 -0.3397
14780TIP3    H165831   5.409   6.094  14.273  0.5112  0.2804 -0.8469
14780TIP3    H265832   5.424   6.099  14.123 -1.8058 -0.0474 -1.1237
14781TIP3   OH265833   6.515   5.630  16.071 -0.2038  0.1913  0.2431
14781TIP3    H165834   6.577   5.629  16.143 -0.2447 -2.4765  0.3707
14781TIP3    H265835   6.569   5.643  15.993 -0.0510  2.1358  0.6345
14782TIP3   OH265836   1.805   6.212   4.715 -0.6609  0.0400 -0.4184
14782TIP3    H165837   1.840   6.279   4.774 -0.1845 -0.7017  0.1515
14782TIP3    H265838   1.715   6.241   4.697 -1.1204 -0.1607  1.3528
14783TIP3   OH265839   2.831   3.702  11.676 -1.0943  0.0822 -0.1011
14783TIP3    H165840   2.923   3.684  11.656 -1.2865 -0.5458 -0.4560
14783TIP3    H265841   2.797   3.744  11.597 -0.8547  1.3031  0.4254
14784TIP3   OH265842   5.683   3.728  17.257 -0.1978 -0.1728 -0.0650
14784TIP3    H165843   5.726   3.720  17.343 -1.2395  1.6356  0.6933
14784TIP3    H265844   5.665   3.822  17.248 -2.9290 -0.6704 -0.8169
14785TIP3   OH265845   0.259   5.404   1.824 -0.6929  0.6406 -0.4047
14785TIP3    H165846   0.299   5.458   1.892  0.9640 -0.8430 -0.1219
14785TIP3    H265847   0.265   5.458   1.745 -0.2123  1.3523  0.0973
14786TIP3   OH265848   2.154   2.505  10.985  0.0050  0.0290  0.1357
14786TIP3    H165849   2.221   2.499  11.053  0.7155 -0.8102 -0.6185
14786TIP3    H265850   2.083   2.555  11.026 -0.3927 -2.0350  2.1349
14787TIP3   OH265851   4.242   1.044  14.965 -0.3594 -0.2142  0.0420
14787TIP3    H165852   4.244   0.951  14.986  2.3624 -0.4525 -0.8566
14787TIP3    H265853   4.164   1.077  15.009 -1.5658 -2.9459  0.1507
14788TIP3   OH265854   3.432   1.359  11.655 -0.4235  0.5961 -0.2244
14788TIP3    H165855   3.387   1.444  11.660 -0.5289  0.5108  0.3131
14788TIP3    H265856   3.387   1.304  11.719 -0.1130  0.2468 -0.3032
14789TIP3   OH265857   5.033   6.118  15.073 -0.1797 -0.1790 -0.1463
14789TIP3    H165858   5.065   6.158  15.154  0.1719  0.9969 -0.8415
14789TIP3    H265859   5.106   6.126  15.012 -0.2782 -1.4755 -0.4642
14790TIP3   OH265860   0.888   1.496   3.485 -0.1498  0.6105 -0.1471
14790TIP3    H165861   0.901   1.481   3.579 -2.5176 -0.0509  0.1474
14790TIP3    H265862   0.970   1.468   3.445  0.3867 -0.5165  1.5944
14791TIP3   OH265863   2.298   1.409   4.419 -0.1533 -0.1048  0.4934
14791TIP3    H165864   2.272   1.480   4.478  2.2974 -0.4964  2.1687
14791TIP3    H265865   2.390   1.393   4.440  0.2537 -1.6429 -2.0878
14792TIP3   OH265866   6.387   1.261   0.688  0.1538  0.5610  0.1935
14792TIP3    H165867   6.377   1.166   0.680  1.8794  0.4269 -1.2730
14792TIP3    H265868   6.306   1.291   0.729 -0.6447 -1.4811  0.2317
14793TIP3   OH265869   5.439   5.639  12.548  0.1218 -0.8371 -0.3394
14793TIP3    H165870   5.468   5.591  12.626 -0.4006  0.9704  1.0536
14793TIP3    H265871   5.364   5.590  12.516 -0.1557 -1.1898  0.7854
14794TIP3   OH265872   4.396   4.886  14.400  0.3992  0.2621  0.2168
14794TIP3    H165873   4.376   4.824  14.329  0.5301  0.2535  0.1868
14794TIP3    H265874   4.321   4.881  14.458 -0.3971  1.3444 -0.6645
14795TIP3   OH265875   0.148   6.337   4.010 -0.2478  0.4340 -0.1124
14795TIP3    H165876   0.108   6.296   4.087  0.6801  0.9393  0.6718
14795TIP3    H265877   0.209   6.402   4.047  0.0497  0.8436 -1.2812
14796TIP3   OH265878   0.191   4.265   6.519  0.4880  0.1434  0.4137
14796TIP3    H165879   0.256   4.329   6.549  0.2447  0.7078 -0.2218
14796TIP3    H265880   0.124   4.264   6.588  0.8612  0.0161  0.7774
14797TIP3   OH265881   0.849   3.688  12.874  0.2891  0.6932 -0.0309
14797TIP3    H165882   0.764   3.672  12.835 -0.3692  1.3908  1.0623
14797TIP3    H265883   0.889   3.755  12.818 -0.0174  0.6135 -0.3486
14798TIP3   OH265884   5.589   2.336   1.639 -0.0598  0.3706 -0.5900
14798TIP3    H165885   5.544   2.288   1.708 -0.2242  0.6498 -0.4993
14798TIP3    H265886   5.572   2.428   1.659  0.3271  0.4683 -0.7093
14799TIP3   OH265887   1.469   2.746  14.566 -0.3791  0.5913 -0.1860
14799TIP3    H165888   1.438   2.836  14.578  1.5050  1.4674 -1.4498
14799TIP3    H265889   1.485   2.739  14.472  1.5101 -0.3585  0.1612
14800TIP3   OH265890   5.344   4.530  15.061 -0.0614 -0.2697  0.0303
14800TIP3    H165891   5.279   4.472  15.020  1.5702 -2.3962  0.2944
14800TIP3    H265892   5.306   4.551  15.147  0.4241 -3.2281  1.0740
14801TIP3   OH265893   5.135   6.221   4.593  0.1692 -0.5689  0.4178
14801TIP3    H165894   5.075   6.286   4.629 -1.3682 -0.7037 -1.6997
14801TIP3    H265895   5.198   6.271   4.542 -0.2946 -0.6470 -0.2399
14802TIP3   OH265896   5.683   4.223   2.946  0.2247  0.1124  0.6068
14802TIP3    H165897   5.745   4.150   2.938 -0.2959 -0.3176  0.3541
14802TIP3    H265898   5.706   4.282   2.875  0.0541 -0.2722  0.2278
14803TIP3   OH265899   1.630   5.435  14.139  0.2425  0.0476  0.4231
14803TIP3    H165900   1.537   5.415  14.128 -0.0447 -0.2571  2.7943
14803TIP3    H265901   1.675   5.377  14.077 -1.0838 -0.9625  0.3679
14804TIP3   OH265902   4.864   3.775  12.031 -0.1922  0.2864  0.2243
14804TIP3    H165903   4.772   3.747  12.032  0.1906 -1.0415  0.8625
14804TIP3    H265904   4.880   3.810  12.119  0.5683 -1.9098  1.0338
14805TIP3   OH265905   2.939   6.716   4.612  0.0621  0.2912  0.3565
14805TIP3    H165906   3.021   6.736   4.566 -0.9070  0.5762 -1.3354
14805TIP3    H265907   2.874   6.774   4.571 -0.8953  0.4479  2.0216
14806TIP3   OH265908   2.375   5.082   3.885 -0.2813 -0.3392  0.6518
14806TIP3    H165909   2.412   5.012   3.830  0.4892  0.4688  0.1081
14806TIP3    H265910   2.335   5.036   3.959 -0.3314 -1.3869 -0.0079
14807TIP3   OH265911   1.683   5.167  12.360 -0.5599  0.6153  0.8623
14807TIP3    H165912   1.604   5.208  12.325 -0.2694  1.9197  1.6901
14807TIP3    H265913   1.656   5.133  12.446 -0.8796 -1.2727  0.0776
14808TIP3   OH265914   1.082   3.355   5.432  0.2630 -0.0058  0.1040
14808TIP3    H165915   0.991   3.326   5.420 -0.1901  1.1444  0.5861
14808TIP3    H265916   1.097   3.347   5.526 -0.3673  2.5475  0.5063
14809TIP3   OH265917   3.510   0.777   4.457  0.0141 -0.0519 -0.1723
14809TIP3    H165918   3.568   0.721   4.407  0.4395  0.6424 -0.4664
14809TIP3    H265919   3.567   0.823   4.519 -0.2521  0.4495 -0.2931
14810TIP3   OH265920   5.935   5.524  14.639 -0.0433  0.4760 -0.2207
14810TIP3    H165921   6.016   5.506  14.591  0.2495  0.6077  0.2108
14810TIP3    H265922   5.866   5.487  14.584  0.2848  0.5859 -0.7180
14811TIP3   OH265923   0.353   6.124  11.421 -0.0551  0.4109 -0.3590
14811TIP3    H165924   0.447   6.124  11.439 -0.0882  0.7210 -0.1848
14811TIP3    H265925   0.318   6.053  11.475  0.1694 -0.1453 -0.9226
14812TIP3   OH265926   3.777   2.804  13.644  0.2984 -0.0560 -0.1625
14812TIP3    H165927   3.699   2.813  13.588  0.9499  0.1525 -1.0643
14812TIP3    H265928   3.747   2.752  13.719 -1.5407  2.7199  1.1783
14813TIP3   OH265929   3.750   3.583   2.161 -0.1714 -0.7676 -0.6122
14813TIP3    H165930   3.672   3.588   2.216  0.2499 -1.1413  0.0300
14813TIP3    H265931   3.716   3.578   2.072 -0.8946 -1.5031 -0.3113
14814TIP3   OH265932   0.299   5.417  12.108  0.0003 -0.1014  0.1826
14814TIP3    H165933   0.360   5.452  12.173 -1.5955  2.7558  0.2906
14814TIP3    H265934   0.345   5.342  12.070  2.7188  0.6918  1.6519
14815TIP3   OH265935   1.797   1.501   0.474  0.4887  0.0732  0.1912
14815TIP3    H165936   1.784   1.428   0.534  1.7670 -0.6795 -0.4002
14815TIP3    H265937   1.734   1.487   0.404  0.5256 -0.3141  0.2322
14816TIP3   OH265938   0.287   1.136   5.534  0.0938 -0.0260 -0.5043
14816TIP3    H165939   0.316   1.172   5.451  0.3096  1.2421  0.0920
14816TIP3    H265940   0.230   1.064   5.511 -0.3760  0.7264 -1.7608
14817TIP3   OH265941   5.942   1.552   0.421 -0.1184  0.0560 -0.4339
14817TIP3    H165942   5.888   1.622   0.457  0.0229 -0.0867  0.0726
14817TIP3    H265943   5.881   1.496   0.373 -0.7261 -0.9509  1.3960
14818TIP3   OH265944   4.262   4.504   1.400  0.6153 -0.4815  0.0478
14818TIP3    H165945   4.197   4.574   1.393  3.1854  2.1831  0.5675
14818TIP3    H265946   4.271   4.489   1.494 -0.8835 -2.6361 -0.0802
14819TIP3   OH265947   1.101   0.659   3.684 -0.2722  0.3959 -0.9277
14819TIP3    H165948   1.190   0.666   3.649 -0.1705 -0.4112 -0.8377
14819TIP3    H265949   1.107   0.594   3.753 -0.9595  0.2597 -0.9905
14820TIP3   OH265950   6.495   6.556   3.284 -0.0562 -0.9708  0.5999
14820TIP3    H165951   6.566   6.610   3.250 -0.5940  0.9598  2.3119
14820TIP3    H265952   6.539   6.491   3.339  0.4316  0.0761  1.4834
14821TIP3   OH265953   0.714   0.008   0.964  0.6609 -0.8481 -0.1820
14821TIP3    H165954   0.764   0.006   1.045  1.5218 -0.4988 -0.6969
14821TIP3    H265955   0.666   0.090   0.967  0.8173 -0.7596 -0.1015
14822TIP3   OH265956   2.924   5.298   2.898  0.3506  0.1293 -0.0706
14822TIP3    H165957   2.970   5.332   2.821  0.7895 -0.8484 -0.2605
14822TIP3    H265958   2.988   5.239   2.939  0.1712  0.7423  1.1234
14823TIP3   OH265959   4.743   3.863   5.037 -0.0601 -0.0518 -0.2563
14823TIP3    H165960   4.772   3.797   4.975 -1.0872 -0.7907  0.0341
14823TIP3    H265961   4.822   3.915   5.055  0.6663 -0.9512 -0.7666
14824TIP3   OH265962   5.333   6.757  12.390 -0.0482  0.1134 -0.7887
14824TIP3    H165963   5.362   6.731  12.477 -0.4944 -0.3853 -0.7806
14824TIP3    H265964   5.291   6.842  12.403 -1.1891 -0.5024 -0.2967
14825TIP3   OH265965   0.597   2.687  13.354  0.1440 -0.4829  0.1781
14825TIP3    H165966   0.517   2.739  13.362 -0.7143 -1.2364 -2.3543
14825TIP3    H265967   0.589   2.620  13.422 -0.2017  0.8080  1.4651
14826TIP3   OH265968   4.026   1.236  10.742  0.3136  0.2028 -0.2858
14826TIP3    H165969   3.981   1.153  10.752 -0.0968 -0.1924 -3.9888
14826TIP3    H265970   4.106   1.214  10.694 -0.0831  1.9228 -1.8644
14827TIP3   OH265971   6.784   0.179  11.356 -0.4746 -0.2023  0.1951
14827TIP3    H165972   6.716   0.239  11.325 -0.1072 -0.0748 -0.3646
14827TIP3    H265973   6.784   0.108  11.292 -0.9410 -0.8388  0.8775
14828TIP3   OH265974   5.106   2.315   0.986 -0.5677  0.0821 -0.4129
14828TIP3    H165975   5.159   2.259   1.043 -0.1674 -0.2905 -1.1357
14828TIP3    H265976   5.016   2.295   1.010 -0.3973  0.1712  0.3139
14829TIP3   OH265977   0.093   3.128   0.267 -0.3601 -0.3733 -0.0099
14829TIP3    H165978   0.112   3.043   0.226 -0.0452  0.4979 -1.7573
14829TIP3    H265979   0.141   3.125   0.350 -0.3546 -1.8971 -0.0296
14830TIP3   OH265980   5.804   0.947  17.202 -0.3383  0.3035  0.6031
14830TIP3    H165981   5.857   1.023  17.178  0.8948 -0.8400 -0.5143
14830TIP3    H265982   5.714   0.978  17.202  0.0734  1.5610 -0.6810
14831TIP3   OH265983   5.713   5.267   0.581 -0.1275 -0.2374 -0.6718
14831TIP3    H165984   5.745   5.351   0.548  0.8759 -0.5749 -0.6033
14831TIP3    H265985   5.702   5.280   0.675 -3.0889  0.7576 -1.0500
14832TIP3   OH265986   6.686   3.591  11.978  0.3487 -0.0074 -0.2084
14832TIP3    H165987   6.749   3.532  12.021  1.1696  0.2781 -0.9947
14832TIP3    H265988   6.663   3.545  11.897 -1.7415 -0.8796  0.8142
14833TIP3   OH265989   5.632   1.956   1.700 -0.7102  0.1457 -0.6952
14833TIP3    H165990   5.624   1.966   1.795 -0.7016  1.4883 -0.8210
14833TIP3    H265991   5.689   2.028   1.673  0.4005 -1.0030 -1.5640
14834TIP3   OH265992   2.168   1.654   3.283  0.3864  0.3627  0.1676
14834TIP3    H165993   2.216   1.613   3.355 -1.0707 -0.5953  0.6324
14834TIP3    H265994   2.150   1.581   3.223  1.8459  1.1927 -1.3618
14835TIP3   OH265995   2.626   1.940   4.048 -0.1994 -0.5767 -0.2059
14835TIP3    H165996   2.623   1.948   3.952 -1.4589 -0.0374 -0.1443
14835TIP3    H265997   2.575   1.861   4.067 -0.1867 -0.5278  0.0352
14836TIP3   OH265998   3.505   0.277   5.541 -0.2342  0.0547  0.0361
14836TIP3    H165999   3.476   0.302   5.453  2.4284 -0.3891 -1.0639
14836TIP3    H266000   3.447   0.204   5.565 -0.1213 -0.7953 -2.0091
14837TIP3   OH266001   1.392   6.098  13.356 -0.2768 -0.5369 -0.3044
14837TIP3    H166002   1.432   6.015  13.331  1.2364  0.3041 -0.8093
14837TIP3    H266003   1.332   6.118  13.284 -1.0829 -1.4417  0.0943
14838TIP3   OH266004   2.950   4.995   1.087  0.0436  0.2836 -0.2562
14838TIP3    H166005   2.888   4.940   1.039  1.6861 -0.0380 -2.1337
14838TIP3    H266006   3.036   4.964   1.060  1.1073  0.2204  2.8322
14839TIP3   OH266007   1.977   5.181   1.509 -0.1874 -0.8586 -0.1320
14839TIP3    H166008   2.002   5.170   1.601 -1.4581 -0.9435  0.2181
14839TIP3    H266009   2.046   5.237   1.473 -0.4085  0.3627  1.2312
14840TIP3   OH266010   5.532   2.867  13.776  0.2064  0.1761 -0.6458
14840TIP3    H166011   5.545   2.783  13.733 -2.0893  0.0638 -1.2781
14840TIP3    H266012   5.603   2.923  13.742  1.3296 -1.2723 -0.7715
14841TIP3   OH266013   3.720   2.050  14.325  0.4653  0.1256 -0.5229
14841TIP3    H166014   3.674   1.968  14.309  0.9702  0.2559 -3.0145
14841TIP3    H266015   3.660   2.118  14.295  0.7424  0.5697 -0.0964
14842TIP3   OH266016   1.044   5.609  14.502  0.2351 -0.2124  0.4567
14842TIP3    H166017   0.967   5.628  14.449  0.9911 -1.1830 -1.0460
14842TIP3    H266018   1.013   5.549  14.570  0.2388 -3.5845 -2.2531
14843TIP3   OH266019   4.126   4.431   4.132  0.0495  0.2433  0.4791
14843TIP3    H166020   4.118   4.523   4.157 -0.3001  1.1288 -2.4984
14843TIP3    H266021   4.035   4.400   4.128  0.0721  0.2280  0.0228
14844TIP3   OH266022   0.948   3.972   2.700 -0.3766  0.0228 -0.1433
14844TIP3    H166023   1.024   4.018   2.737  1.6107 -1.8001 -1.6626
14844TIP3    H266024   0.916   3.918   2.772  1.7085 -1.4209 -0.2107
14845TIP3   OH266025   1.261   0.759  11.016 -0.0129  0.6857 -0.6230
14845TIP3    H166026   1.268   0.751  10.921  0.0031 -1.2606 -0.4948
14845TIP3    H266027   1.325   0.826  11.040  1.6737 -0.4692 -1.7660
14846TIP3   OH266028   5.989   4.297  11.764  0.2981  0.1011  0.0964
14846TIP3    H166029   6.062   4.337  11.811  1.6100 -2.1990  0.1745
14846TIP3    H266030   5.970   4.357  11.692  2.1154  0.8781  0.2251
14847TIP3   OH266031   1.845   4.421  13.032  0.5153 -0.3695  0.0171
14847TIP3    H166032   1.908   4.493  13.025  0.0254  0.0627  0.0081
14847TIP3    H266033   1.769   4.451  12.984 -0.0788 -0.4692  0.8696
14848TIP3   OH266034   6.664   3.544   3.414 -0.3405  0.3699 -0.1893
14848TIP3    H166035   6.628   3.591   3.489 -2.6457  1.9706 -2.1445
14848TIP3    H266036   6.643   3.599   3.339  1.7230 -1.2229 -2.0750
14849TIP3   OH266037   4.964   0.517  15.438 -0.7561  0.3100  0.0178
14849TIP3    H166038   4.935   0.436  15.396 -0.0172 -0.2790  0.6180
14849TIP3    H266039   4.895   0.538  15.500 -1.2483  0.4898 -0.5824
14850TIP3   OH266040   4.555   4.951  12.493 -0.1385  0.6915 -0.7787
14850TIP3    H166041   4.486   4.900  12.536 -0.6711  0.5710 -1.7529
14850TIP3    H266042   4.607   4.986  12.565 -0.0880 -0.7751 -0.0595
14851TIP3   OH266043   0.435   4.961   3.087 -0.1765 -0.6333  0.2231
14851TIP3    H166044   0.351   4.988   3.123 -0.5417 -0.9703 -0.3568
14851TIP3    H266045   0.439   5.005   3.002 -0.4857 -1.8468 -0.4511
14852TIP3   OH266046   5.293   6.462  12.904  0.4995  0.3579  0.5229
14852TIP3    H166047   5.302   6.505  12.989 -1.7994  0.0688  0.9807
14852TIP3    H266048   5.345   6.382  12.911 -0.0595  0.0828  1.8790
14853TIP3   OH266049   2.245   6.241   1.225  0.1453  0.1674 -0.0265
14853TIP3    H166050   2.320   6.253   1.166  0.8891  0.2245  0.9086
14853TIP3    H266051   2.203   6.161   1.194  1.2695 -0.5102  0.1418
14854TIP3   OH266052   3.650   0.054   2.061  0.0567  0.0594 -0.0377
14854TIP3    H166053   3.583   0.063   2.129 -0.3457 -2.0018 -0.0897
14854TIP3    H266054   3.731   0.082   2.104 -0.4039  0.0529  0.8717
14855TIP3   OH266055   1.865   1.611   3.874  0.3551  0.6039 -0.2928
14855TIP3    H166056   1.854   1.620   3.779 -0.5844 -0.1327 -0.2721
14855TIP3    H266057   1.920   1.533   3.884 -2.2006 -1.3205 -0.2058
14856TIP3   OH266058   3.794   1.474   2.669 -0.2040  0.4374  0.1344
14856TIP3    H166059   3.860   1.457   2.737 -0.5101 -2.1225 -0.1250
14856TIP3    H266060   3.809   1.406   2.604 -2.7468  0.1452 -0.2111
14857TIP3   OH266061   0.817   6.581   2.923  0.2400  0.2699 -0.0786
14857TIP3    H166062   0.755   6.651   2.946  0.7637  0.9095 -0.5720
14857TIP3    H266063   0.849   6.606   2.837 -0.9073 -1.5264 -1.0868
14858TIP3   OH266064   6.395   3.303   4.035 -0.4554  0.1176  0.9801
14858TIP3    H166065   6.401   3.235   3.968  0.7233  0.3519  0.8348
14858TIP3    H266066   6.348   3.374   3.992  1.2359  0.6976  0.0090
14859TIP3   OH266067   3.771   6.043   5.684  0.6044  0.0294  0.0998
14859TIP3    H166068   3.758   6.019   5.592  2.2778 -1.6597  0.2357
14859TIP3    H266069   3.833   6.116   5.681  0.0929  0.4597 -0.1239
14860TIP3   OH266070   5.110   6.182  15.358 -0.0447  0.0758  0.3720
14860TIP3    H166071   5.194   6.153  15.391  0.2853 -0.9247 -1.2716
14860TIP3    H266072   5.048   6.115  15.387 -0.1845  0.4853  1.0413
14861TIP3   OH266073   6.379   5.467  15.146 -0.3094  0.1981 -0.3703
14861TIP3    H166074   6.331   5.404  15.199 -0.2059  0.2042 -0.2691
14861TIP3    H266075   6.446   5.502  15.205 -0.3916  0.4321 -0.4125
14862TIP3   OH266076   1.159   4.108  14.376  0.1285 -0.2280 -0.5107
14862TIP3    H166077   1.236   4.098  14.431 -0.0478 -1.0514 -0.4088
14862TIP3    H266078   1.188   4.162  14.303  0.8470 -0.7075 -0.5779
14863TIP3   OH266079   0.402   4.534   4.885 -0.2807  0.2569  0.3589
14863TIP3    H166080   0.373   4.583   4.808 -1.1069  0.7548  0.9848
14863TIP3    H266081   0.492   4.565   4.899 -0.7822  1.6269  0.7501
14864TIP3   OH266082   5.200   5.729  12.889 -0.3303  0.6685 -0.4950
14864TIP3    H166083   5.164   5.705  12.974 -0.3798  3.0355  0.2076
14864TIP3    H266084   5.220   5.645  12.847  0.1113 -0.5536  1.9988
14865TIP3   OH266085   3.069   2.975   3.824 -0.4271  0.5282  0.3181
14865TIP3    H166086   3.088   2.884   3.799 -1.0813  0.5046 -0.1276
14865TIP3    H266087   3.152   3.008   3.858 -0.5858 -0.7506  2.1169
14866TIP3   OH266088   2.924   2.513  12.480 -0.7130 -0.0314  0.1198
14866TIP3    H166089   2.869   2.439  12.457  1.3715 -1.7211  0.2749
14866TIP3    H266090   2.910   2.527  12.573 -0.0235 -1.2394  0.4183
14867TIP3   OH266091   1.621   4.591   5.457 -0.3379  0.1321  0.6867
14867TIP3    H166092   1.696   4.609   5.400  1.1129 -0.1958  2.4042
14867TIP3    H266093   1.660   4.561   5.539 -2.2101  2.7771  2.7062
14868TIP3   OH266094   1.613   5.381  10.971  0.0931  0.5725 -0.2134
14868TIP3    H166095   1.688   5.325  10.991  0.5709  1.1103 -0.4877
14868TIP3    H266096   1.588   5.419  11.056  0.7545  1.1586 -0.2705
14869TIP3   OH266097   1.807   2.330   0.783 -0.4952 -0.1803 -0.2531
14869TIP3    H166098   1.821   2.381   0.863 -1.1775 -0.2043 -0.1140
14869TIP3    H266099   1.713   2.337   0.766 -0.1104  1.3666 -2.0816
14870TIP3   OH266100   2.328   2.471   2.233  0.2680  0.1598  0.2696
14870TIP3    H166101   2.411   2.437   2.267 -1.8607 -3.2623  2.6042
14870TIP3    H266102   2.301   2.537   2.297  0.4810  0.2331  0.2857
14871TIP3   OH266103   6.559   4.972  14.220  0.0856 -0.3263 -0.5316
14871TIP3    H166104   6.481   4.964  14.165  0.5252 -1.8022 -0.9770
14871TIP3    H266105   6.526   4.968  14.310 -0.4947  0.7536 -0.6745
14872TIP3   OH266106   6.026   5.315  16.585 -0.6474 -0.2839  0.4550
14872TIP3    H166107   6.018   5.389  16.525  0.2117 -0.4019  0.1824
14872TIP3    H266108   6.030   5.354  16.672  0.1957  0.0254  0.2883
14873TIP3   OH266109   5.318   3.224   2.048 -0.6008 -0.2571 -0.3697
14873TIP3    H166110   5.326   3.159   2.118  1.2725 -0.9140 -1.1179
14873TIP3    H266111   5.375   3.190   1.979 -1.2773  1.1149 -1.6312
14874TIP3   OH266112   3.368   5.271   2.504 -0.3364  0.1078  0.5301
14874TIP3    H166113   3.281   5.234   2.488 -1.3211  2.1093  0.9235
14874TIP3    H266114   3.400   5.226   2.582 -0.9586 -0.7597  0.2910
14875TIP3   OH266115   4.942   5.522  10.940 -0.1118  1.1760 -0.6043
14875TIP3    H166116   4.859   5.518  10.892 -0.6878 -0.4596  0.4472
14875TIP3    H266117   4.974   5.432  10.939  0.1473  1.2085  1.5262
14876TIP3   OH266118   2.179   4.278   0.324 -0.6670 -0.3597 -0.4522
14876TIP3    H166119   2.235   4.258   0.399  0.1638  0.2933 -0.8849
14876TIP3    H266120   2.240   4.299   0.254 -1.4618  0.6015 -0.8735
14877TIP3   OH266121   0.894   0.489   0.172  0.1953 -0.0230  0.0665
14877TIP3    H166122   0.988   0.509   0.171  0.4584 -1.2315 -0.5574
14877TIP3    H266123   0.865   0.518   0.258  1.1067  0.4923  0.2190
14878TIP3   OH266124   4.059   4.927   0.821  0.1241 -0.1838 -0.3881
14878TIP3    H166125   4.125   4.993   0.798  0.0282  0.0927  0.1306
14878TIP3    H266126   4.078   4.853   0.763  0.2150  0.3081 -0.9887
14879TIP3   OH266127   4.041   0.289   0.172 -0.0568 -0.1710  0.2028
14879TIP3    H166128   3.980   0.215   0.172 -0.2821  0.0157  0.5956
14879TIP3    H266129   4.102   0.269   0.101  0.0936 -0.9067  0.5374
14880TIP3   OH266130   4.849   6.396   5.652 -0.0027  0.0197  0.6899
14880TIP3    H166131   4.792   6.338   5.601 -0.0343 -0.7070  1.5262
14880TIP3    H266132   4.906   6.437   5.587  1.5221 -2.6218  0.2330
14881TIP3   OH266133   4.489   4.743   5.107 -0.0946 -0.3538  0.3917
14881TIP3    H166134   4.474   4.679   5.039 -0.4188 -0.3541  0.4659
14881TIP3    H266135   4.489   4.827   5.061 -0.7104 -0.3213  0.4517
14882TIP3   OH266136   6.735   1.466  12.264 -0.2718 -0.7981  0.3599
14882TIP3    H166137   6.740   1.414  12.183  1.6502 -0.7870  0.4240
14882TIP3    H266138   6.679   1.540  12.242  1.3053 -0.0485 -1.4564
14883TIP3   OH266139   3.508   5.330  17.047  0.5075 -0.7854  0.4596
14883TIP3    H166140   3.591   5.284  17.036  0.7743 -0.2099  0.0457
14883TIP3    H266141   3.517   5.375  17.132  0.6368 -0.6853  0.3921
14884TIP3   OH266142   1.778   6.682   5.356 -0.1254  0.0630  0.3459
14884TIP3    H166143   1.700   6.665   5.408 -1.1758  1.9180 -0.5465
14884TIP3    H266144   1.771   6.773   5.329  1.9071  0.0306 -0.5259
14885TIP3   OH266145   0.013   2.527   4.174 -0.6380 -0.0147 -0.2793
14885TIP3    H166146  -0.077   2.519   4.144 -0.4338  0.0140 -0.9196
14885TIP3    H266147   0.064   2.543   4.094 -0.1738  0.7966  0.1680
14886TIP3   OH266148   4.242   5.301   5.272  0.1092 -0.4270 -0.0165
14886TIP3    H166149   4.329   5.300   5.311  0.0807 -0.6522  0.0398
14886TIP3    H266150   4.258   5.290   5.178  0.1391 -0.4987 -0.0030
14887TIP3   OH266151   2.360   3.950   4.524  0.3197  0.2201 -0.6934
14887TIP3    H166152   2.430   4.015   4.526 -0.3361  0.9445 -0.8035
14887TIP3    H266153   2.347   3.932   4.431 -0.6211  1.1927 -0.7750
14888TIP3   OH266154   4.549   4.650   3.306 -0.2967 -0.6127  0.3948
14888TIP3    H166155   4.502   4.595   3.369  0.6731 -1.0263  0.7856
14888TIP3    H266156   4.619   4.690   3.358 -0.4382  0.2801 -0.0900
14889TIP3   OH266157   3.611   2.833  12.389 -0.3459  0.3943 -0.4095
14889TIP3    H166158   3.542   2.896  12.369 -0.6443  0.2084  0.0366
14889TIP3    H266159   3.679   2.852  12.324  0.5411  2.6625  1.0400
14890TIP3   OH266160   1.517   1.275   4.553 -0.1779 -0.0664  0.2236
14890TIP3    H166161   1.538   1.223   4.631  0.9550 -0.9295 -0.6405
14890TIP3    H266162   1.481   1.211   4.491 -2.7525  0.8843  0.6066
14891TIP3   OH266163   3.077   6.816   1.568  0.1324 -0.3148  0.6726
14891TIP3    H166164   3.159   6.783   1.603  0.8479  1.1526  0.4364
14891TIP3    H266165   3.044   6.875   1.636 -0.4176 -0.3931  0.4818
14892TIP3   OH266166   1.481   0.273  11.384  0.3019  0.0533 -0.6732
14892TIP3    H166167   1.459   0.224  11.463  2.2053 -3.9125 -2.3474
14892TIP3    H266168   1.563   0.318  11.405  0.1856 -0.0114 -0.0777
14893TIP3   OH266169   4.884   0.472  14.744 -0.1609 -0.1438  0.1735
14893TIP3    H166170   4.975   0.448  14.725 -0.2676 -0.0354 -0.4687
14893TIP3    H266171   4.849   0.503  14.661 -0.2369  1.6043  0.8066
14894TIP3   OH266172   2.128   3.574   3.942 -0.4738 -0.0104  0.2632
14894TIP3    H166173   2.115   3.488   3.982  0.0769 -1.0912 -1.6991
14894TIP3    H266174   2.222   3.580   3.928 -0.7401 -0.6789 -2.6449
14895TIP3   OH266175   2.685   4.596   2.823 -0.4410  0.0188 -0.5052
14895TIP3    H166176   2.768   4.548   2.822  0.2808  1.0959  1.1234
14895TIP3    H266177   2.708   4.681   2.862 -1.9843  1.0382 -1.6942
14896TIP3   OH266178   0.811   0.517  14.996 -0.8455 -0.0659  0.0894
14896TIP3    H166179   0.794   0.488  14.907 -2.3329 -0.8672  0.5995
14896TIP3    H266180   0.839   0.438  15.043  2.3706  0.7712 -0.1606
14897TIP3   OH266181   6.396   3.873   1.448 -0.1647  0.2668 -0.1331
14897TIP3    H166182   6.388   3.904   1.358 -1.3273 -1.4589 -0.6558
14897TIP3    H266183   6.416   3.780   1.440  2.0029  0.5055  1.4069
14898TIP3   OH266184   0.441   2.295   5.451 -0.1055 -0.2914  0.4166
14898TIP3    H166185   0.535   2.280   5.460  0.0819  0.6496  0.1269
14898TIP3    H266186   0.412   2.319   5.539  0.1511  0.5879  0.2647
14899TIP3   OH266187   5.390   5.555   0.342  0.4848 -0.3593  0.3415
14899TIP3    H166188   5.481   5.580   0.327  0.0815  0.0477 -1.7088
14899TIP3    H266189   5.339   5.628   0.308 -0.6413 -2.1348 -2.0366
14900TIP3   OH266190   4.311   5.314  10.495  0.0691  0.8327  0.1687
14900TIP3    H166191   4.274   5.402  10.483  0.0769  0.7186 -0.7665
14900TIP3    H266192   4.368   5.302  10.419 -0.8543 -0.4433 -0.3444
14901TIP3   OH266193   2.628   5.908   1.088 -0.0215 -0.1845 -0.2408
14901TIP3    H166194   2.603   5.893   1.179  1.9928 -2.7919  0.0072
14901TIP3    H266195   2.547   5.896   1.038 -0.9476  0.2592  1.0918
14902TIP3   OH266196   0.527   1.923   5.044  0.5414 -0.1057 -0.3381
14902TIP3    H166197   0.461   1.986   5.017 -0.1943 -0.8054 -0.2100
14902TIP3    H266198   0.528   1.928   5.140 -0.7854 -1.5081 -0.2143
14903TIP3   OH266199   6.620   2.682  15.917 -0.0194  0.3163 -0.5920
14903TIP3    H166200   6.596   2.760  15.967 -4.2641  1.3072 -3.5920
14903TIP3    H266201   6.631   2.715  15.827 -1.9091 -2.4459 -1.9583
14904TIP3   OH266202   0.913   5.258   4.034 -0.3506 -0.3523  0.5314
14904TIP3    H166203   0.821   5.276   4.053 -0.5102 -1.0915  0.4769
14904TIP3    H266204   0.957   5.342   4.049 -0.9676 -0.0949  0.9583
14905TIP3   OH266205   1.560   0.678  12.880  0.0914  0.5246  0.1647
14905TIP3    H166206   1.557   0.627  12.961 -0.4414 -1.6229 -1.1352
14905TIP3    H266207   1.580   0.614  12.812  2.3341  2.5600 -1.2378
14906TIP3   OH266208   3.701   0.978  13.637  0.4299  0.4557  0.1737
14906TIP3    H166209   3.779   1.027  13.665  1.3283 -1.1335  0.5327
14906TIP3    H266210   3.644   0.980  13.714  0.2656  1.2667  0.0484
14907TIP3   OH266211   5.893   2.473  13.567  0.0123 -0.1484  0.7536
14907TIP3    H166212   5.800   2.488  13.547  0.0613 -1.4996 -0.6753
14907TIP3    H266213   5.938   2.496  13.486  1.0497  1.2257  1.6748
14908TIP3   OH266214   1.226   1.193   3.791 -0.5250 -0.6539  0.6396
14908TIP3    H166215   1.151   1.165   3.739 -1.3678  1.8739  0.3454
14908TIP3    H266216   1.284   1.236   3.729  0.7252 -1.6960  1.0460
14909TIP3   OH266217   2.034   2.599  12.128 -0.1412 -0.7386  0.5072
14909TIP3    H166218   2.015   2.685  12.166 -0.5190 -1.0683  1.0893
14909TIP3    H266219   2.001   2.537  12.193 -2.3740 -1.3629 -1.0999
14910TIP3   OH266220   4.800   2.955   0.634  0.1178  0.1117  0.5136
14910TIP3    H166221   4.776   3.011   0.708  0.4093 -0.8984  1.3936
14910TIP3    H266222   4.863   2.893   0.671  1.2932  0.4042 -0.8833
14911TIP3   OH266223   0.456   2.908  10.503 -0.9975 -0.4028  0.0295
14911TIP3    H166224   0.366   2.940  10.499 -0.5648  1.0889  1.1701
14911TIP3    H266225   0.463   2.866  10.589 -0.5613 -0.2819  0.0595
14912TIP3   OH266226   2.121   4.698  17.085  0.4720  0.1463 -0.5390
14912TIP3    H166227   2.120   4.762  17.014  1.5146  0.2560 -0.4802
14912TIP3    H266228   2.041   4.716  17.135 -0.5081 -0.2338 -1.9276
14913TIP3   OH266229   0.103   0.813   0.305 -0.6426  0.7315  0.4155
14913TIP3    H166230   0.020   0.766   0.302 -1.2055  1.6585  0.9182
14913TIP3    H266231   0.154   0.776   0.233 -1.6461  0.4342 -0.1653
14914TIP3   OH266232   3.903   4.500   4.410  0.8077 -0.4179  0.4096
14914TIP3    H166233   3.934   4.583   4.375 -1.4009  1.1421  1.8874
14914TIP3    H266234   3.948   4.491   4.494 -2.4252  1.9060  2.6123
14915TIP3   OH266235   3.564   5.891   5.671 -0.2539 -0.0695  0.2963
14915TIP3    H166236   3.628   5.954   5.702 -2.1172  1.2620  1.7053
14915TIP3    H266237   3.496   5.944   5.629 -0.7310 -1.3619 -0.6341
14916TIP3   OH266238   5.045   5.349   0.785  0.1683  0.1494 -0.1851
14916TIP3    H166239   5.037   5.295   0.707  0.7632  0.5578 -0.5378
14916TIP3    H266240   5.101   5.422   0.758  3.6731 -1.6194  1.5921
14917TIP3   OH266241   4.222   0.017   1.347 -0.1209  0.0855 -0.3038
14917TIP3    H166242   4.259   0.065   1.272 -0.3933  0.5160 -0.1714
14917TIP3    H266243   4.228  -0.075   1.322  0.9856  0.1492 -0.2988
14918TIP3   OH266244   3.931   5.930  12.428  0.1519  0.3530  0.5034
14918TIP3    H166245   3.895   5.954  12.342  0.4021 -0.5233  0.1485
14918TIP3    H266246   3.903   5.839  12.441  0.1296  0.4757  1.3437
14919TIP3   OH266247   6.400   4.254   1.260 -0.1638  0.4370 -0.3713
14919TIP3    H166248   6.426   4.345   1.246 -1.6555  0.9776  0.2495
14919TIP3    H266249   6.324   4.259   1.318  1.4872 -1.3533  2.1413
14920TIP3   OH266250   3.292   4.532  17.043 -0.2500  0.4443 -0.2515
14920TIP3    H166251   3.251   4.542  16.957  0.9429  0.0804 -0.8913
14920TIP3    H266252   3.273   4.614  17.088 -0.3047  0.9258 -1.1257
14921TIP3   OH266253   1.827   5.365   0.975 -0.2267 -0.4645 -0.2403
14921TIP3    H166254   1.757   5.306   1.004 -0.2568  0.0047  0.6654
14921TIP3    H266255   1.816   5.368   0.880 -1.1798 -0.7322 -0.1587
14922TIP3   OH266256   0.180   3.922   1.914  0.5422 -0.4774  0.0388
14922TIP3    H166257   0.163   3.919   2.008  0.1962 -1.1426 -0.0450
14922TIP3    H266258   0.191   3.831   1.888  1.4524 -0.2500 -0.4217
14923TIP3   OH266259   5.655   2.806   4.799 -0.1314  0.3328  0.0607
14923TIP3    H166260   5.745   2.810   4.767  0.9569  0.7458  2.8343
14923TIP3    H266261   5.651   2.725   4.849 -1.6885 -0.2381 -0.9286
14924TIP3   OH266262   2.550   4.572   4.003  0.3327 -0.0712 -0.1344
14924TIP3    H166263   2.600   4.549   3.925 -0.7825 -0.1031 -0.8597
14924TIP3    H266264   2.557   4.494   4.059  0.3771 -0.4106 -0.6051
14925TIP3   OH266265   3.031   1.653  14.239  0.3471  0.5119 -0.3259
14925TIP3    H166266   3.097   1.715  14.268 -0.1068  1.0784 -0.4696
14925TIP3    H266267   3.064   1.619  14.156  0.7478  0.3255 -0.0898
14926TIP3   OH266268   5.967   5.004  10.559  0.5823  0.0884  0.0899
14926TIP3    H166269   6.054   4.966  10.574  0.2211  0.3752  4.2087
14926TIP3    H266270   5.980   5.098  10.574 -0.4166  0.1205  0.8220
14927TIP3   OH266271   5.427   0.121  14.961  0.3033 -0.6875 -0.0952
14927TIP3    H166272   5.342   0.077  14.969 -1.0688  1.7827 -0.0976
14927TIP3    H266273   5.449   0.148  15.050 -1.4372  2.8695 -0.5367
14928TIP3   OH266274   5.889   0.862   5.210 -0.2800 -0.4212 -0.2804
14928TIP3    H166275   5.965   0.921   5.203 -1.6404  1.6310  0.9532
14928TIP3    H266276   5.886   0.838   5.302 -1.7302  0.4730 -0.0575
14929TIP3   OH266277   2.758   3.753   3.799 -0.5654 -0.5416  0.4726
14929TIP3    H166278   2.714   3.703   3.730 -1.1289  0.1154  0.3509
14929TIP3    H266279   2.792   3.831   3.756 -0.8342 -0.1751  0.9125
14930TIP3   OH266280   1.137   4.371  11.725  0.2402 -0.0667 -0.5280
14930TIP3    H166281   1.063   4.313  11.742 -0.0571  0.4292 -0.0966
14930TIP3    H266282   1.099   4.445  11.677  0.4272  0.2609 -0.1766
14931TIP3   OH266283   3.781   0.892   4.178  0.1621  0.4207  0.3020
14931TIP3    H166284   3.841   0.865   4.247  0.6601  1.5662  0.3331
14931TIP3    H266285   3.720   0.952   4.221 -0.2105  0.2722 -0.0134
14932TIP3   OH266286   4.769   3.707  12.867 -0.3244 -0.4873 -0.0993
14932TIP3    H166287   4.770   3.795  12.829 -2.2508 -1.0322 -1.5094
14932TIP3    H266288   4.862   3.689  12.885  0.3227  1.0983 -1.4937
14933TIP3   OH266289   0.419   2.470  13.133 -0.7588 -0.0103  0.2200
14933TIP3    H166290   0.508   2.443  13.111  0.3437  1.8772  1.9905
14933TIP3    H266291   0.406   2.437  13.222 -1.8749 -0.3148 -0.0388
14934TIP3   OH266292   0.810   0.378  14.495 -0.2357  0.1773  0.3714
14934TIP3    H166293   0.739   0.415  14.443 -0.8829 -0.6320  0.6538
14934TIP3    H266294   0.889   0.393  14.443 -0.3833  2.3342  0.6647
14935TIP3   OH266295   4.224   4.717   1.789  0.3031 -0.5483  0.2928
14935TIP3    H166296   4.151   4.749   1.736  1.4369 -1.5736 -2.0758
14935TIP3    H266297   4.293   4.697   1.724  2.3904 -0.3878  2.3282
14936TIP3   OH266298   0.517   4.958  13.364 -0.5773 -0.2386  0.2619
14936TIP3    H166299   0.566   4.954  13.447  2.6521  1.1779 -1.3880
14936TIP3    H266300   0.459   5.033  13.374 -2.0382 -1.5161  2.0265
14937TIP3   OH266301   6.250   4.465   5.188 -0.2283  0.5662 -0.0922
14937TIP3    H166302   6.287   4.503   5.267  0.2979 -0.6711  0.2809
14937TIP3    H266303   6.279   4.374   5.189  2.0034  1.0828 -2.9934
14938TIP3   OH266304   0.027   6.587   3.684 -0.5007 -0.4951  0.1598
14938TIP3    H166305  -0.055   6.610   3.729 -0.5726 -0.9402  0.2605
14938TIP3    H266306  -0.002   6.557   3.598 -0.2805  1.6612 -0.7286
14939TIP3   OH266307   6.272   5.407  12.030  0.8038 -0.2586  0.5627
14939TIP3    H166308   6.207   5.340  12.011 -0.8407  1.4250 -0.0214
14939TIP3    H266309   6.330   5.407  11.953  0.8272 -0.9889  0.5751
14940TIP3   OH266310   1.269   2.877   0.384  0.2950  0.0878  0.4563
14940TIP3    H166311   1.293   2.917   0.468  1.4426 -2.3438  1.3593
14940TIP3    H266312   1.177   2.852   0.395  0.0448  0.9546  0.4586
14941TIP3   OH266313   1.511   3.298   2.254 -0.4274  0.0749  0.3514
14941TIP3    H166314   1.506   3.393   2.260 -0.5894  0.1265 -0.4898
14941TIP3    H266315   1.510   3.279   2.160  0.9397 -0.6906  0.4671
14942TIP3   OH266316   3.778   6.450  15.103 -0.3997  0.0705  0.2610
14942TIP3    H166317   3.824   6.436  15.020 -0.3500  1.1004  0.1122
14942TIP3    H266318   3.759   6.361  15.134 -1.2967 -0.3472 -1.3383
14943TIP3   OH266319   5.548   5.350   3.461  0.1314  0.0609  0.1068
14943TIP3    H166320   5.481   5.415   3.442  2.6448  3.4293  1.7025
14943TIP3    H266321   5.584   5.326   3.376 -1.4400  0.0185 -0.5732
14944TIP3   OH266322   3.688   1.324  14.660 -0.4960  0.1942 -0.5713
14944TIP3    H166323   3.646   1.367  14.586 -3.0262 -0.1692  0.5365
14944TIP3    H266324   3.699   1.233  14.632  0.0805  0.4106 -1.0662
14945TIP3   OH266325   2.879   6.764   3.635 -0.4756 -0.3091 -0.1735
14945TIP3    H166326   2.783   6.760   3.632 -0.5874  1.5656 -2.2013
14945TIP3    H266327   2.898   6.853   3.663  0.7209 -0.8780  0.9043
14946TIP3   OH266328   5.217   2.972   6.198  0.1837 -0.4900  0.5412
14946TIP3    H166329   5.212   3.035   6.270  1.5346  0.3186 -0.0253
14946TIP3    H266330   5.166   2.897   6.227 -0.2248  0.2775  1.8603
14947TIP3   OH266331   2.241   0.009   1.364 -0.2678  0.7743  0.4425
14947TIP3    H166332   2.336   0.003   1.350 -0.5503 -0.0484 -1.3732
14947TIP3    H266333   2.218   0.096   1.331 -0.2223  0.7856  0.4397
14948TIP3   OH266334   1.631   3.379   4.905 -0.2986 -0.5093 -0.4322
14948TIP3    H166335   1.558   3.336   4.859 -0.7690 -0.1430 -0.0331
14948TIP3    H266336   1.679   3.307   4.945 -1.7871 -0.6233  1.2728
14949TIP3   OH266337   0.891   4.411  17.190 -0.0671  0.5224  0.2597
14949TIP3    H166338   0.865   4.409  17.282 -1.0615  1.6890  0.0390
14949TIP3    H266339   0.839   4.342  17.148  1.0965 -0.6700  0.7051
14950TIP3   OH266340   1.955   6.519   2.797 -0.3176 -0.0807 -0.4688
14950TIP3    H166341   2.008   6.461   2.743 -0.5179 -0.7368  0.0197
14950TIP3    H266342   1.964   6.605   2.757 -0.0890 -0.4689 -1.2665
14951TIP3   OH266343   3.771   0.199  13.813 -0.0302  0.0188 -0.4305
14951TIP3    H166344   3.729   0.211  13.728 -1.0232  0.4471  0.0972
14951TIP3    H266345   3.698   0.188  13.874  0.4515  3.0230  0.8765
14952TIP3   OH266346   0.750   3.063  10.686 -0.1205 -0.0975 -0.3226
14952TIP3    H166347   0.734   3.156  10.701 -3.8570 -0.3325 -1.7634
14952TIP3    H266348   0.784   3.058  10.597 -1.6638 -0.1753 -0.9261
14953TIP3   OH266349   0.510   0.203  11.652 -0.5008  0.7115 -0.7205
14953TIP3    H166350   0.461   0.263  11.708 -0.6082 -0.1308  0.0886
14953TIP3    H266351   0.511   0.120  11.699 -2.5007 -0.6708 -2.9398
14954TIP3   OH266352   3.651   0.653  11.766 -0.0586  0.8441  0.1764
14954TIP3    H166353   3.717   0.712  11.803 -0.1863 -0.0105  1.8595
14954TIP3    H266354   3.697   0.570  11.754 -0.5642  0.5230  0.4335
14955TIP3   OH266355   5.481   0.530   4.883 -0.0840  0.0879  0.2455
14955TIP3    H166356   5.472   0.502   4.792  0.8830 -0.0232  0.1751
14955TIP3    H266357   5.504   0.451   4.931  0.6251  0.3662  0.3805
14956TIP3   OH266358   5.972   2.575  13.836 -0.1694 -0.2549  0.1423
14956TIP3    H166359   6.060   2.603  13.811 -0.1180 -0.4581  0.0896
14956TIP3    H266360   5.922   2.575  13.754  0.0965 -1.2755 -0.0385
14957TIP3   OH266361   5.639   6.227   3.861  0.0741 -0.3159  0.0055
14957TIP3    H166362   5.590   6.155   3.821 -1.1712 -0.7638  2.1471
14957TIP3    H266363   5.584   6.255   3.935  2.7873 -0.4492  2.2334
14958TIP3   OH266364   2.252   1.176  17.184 -0.3273  0.9177 -0.2101
14958TIP3    H166365   2.323   1.239  17.168  1.3117 -0.5685  0.8819
14958TIP3    H266366   2.216   1.202  17.269  2.6297 -1.4627  1.9915
14959TIP3   OH266367   0.722   5.108   0.867  0.3809 -0.3050 -0.2395
14959TIP3    H166368   0.813   5.082   0.853  0.1759 -1.0179 -0.2852
14959TIP3    H266369   0.680   5.095   0.782  0.4006  0.7868 -0.4418
14960TIP3   OH266370   0.320   0.869  10.775 -0.3665  0.0371 -0.1606
14960TIP3    H166371   0.261   0.944  10.779 -1.2070 -0.5993 -0.4358
14960TIP3    H266372   0.390   0.890  10.837 -0.5428  1.0809 -0.2967
14961TIP3   OH266373   2.847   2.560   3.783  0.3397 -0.5809 -0.2970
14961TIP3    H166374   2.864   2.560   3.689  0.6345 -0.4862 -0.2464
14961TIP3    H266375   2.929   2.593   3.822 -0.6802  2.0202 -0.1534
14962TIP3   OH266376   5.201   6.548  10.679  0.1983 -0.2158 -0.0511
14962TIP3    H166377   5.212   6.498  10.598 -0.6431 -1.2139  0.4269
14962TIP3    H266378   5.231   6.490  10.748  0.3858  0.4232  0.4132
14963TIP3   OH266379   6.141   1.595   6.025  0.3308  0.3898 -0.0237
14963TIP3    H166380   6.157   1.533   5.954 -1.5163  0.5689 -0.6558
14963TIP3    H266381   6.174   1.550   6.103  1.2649 -0.3353 -0.8085
14964TIP3   OH266382   4.314   5.060   1.065  0.4524  0.2817  0.2440
14964TIP3    H166383   4.248   5.100   1.008  0.2029 -1.4603 -0.7557
14964TIP3    H266384   4.275   4.977   1.091  1.7408 -0.2075  0.6697
14965TIP3   OH266385   5.474   5.925  12.148 -0.3320  0.5427  0.3831
14965TIP3    H166386   5.463   5.998  12.088  0.1060  0.9801  0.8208
14965TIP3    H266387   5.435   5.850  12.103  1.2386  0.5398 -1.0595
14966TIP3   OH266388   2.449   5.833  15.740 -0.1341 -0.5017 -0.1691
14966TIP3    H166389   2.365   5.805  15.777 -0.2259  0.8419  0.7044
14966TIP3    H266390   2.513   5.818  15.810 -0.0554  0.6527  0.0266
14967TIP3   OH266391   0.301   2.842  12.653  0.0403 -0.4851  0.1280
14967TIP3    H166392   0.329   2.807  12.737  2.2439 -0.5495 -0.5622
14967TIP3    H266393   0.267   2.929  12.673 -0.4928 -0.9270  1.2060
14968TIP3   OH266394   1.856   6.043   1.416  0.0909 -0.0646  0.5899
14968TIP3    H166395   1.930   6.010   1.468  0.3540 -1.0090 -0.3356
14968TIP3    H266396   1.832   5.969   1.360 -1.7938  0.1114  1.0902
14969TIP3   OH266397   0.839   6.236   5.959 -0.0653 -0.1419  0.2839
14969TIP3    H166398   0.850   6.202   6.048 -2.9048  1.4458  1.3602
14969TIP3    H266399   0.856   6.161   5.902  0.4828 -1.5510  2.2285
14970TIP3   OH266400   3.256   0.269   3.298 -0.3796 -0.2639 -0.0705
14970TIP3    H166401   3.194   0.198   3.318 -0.9039  0.2184  0.0282
14970TIP3    H266402   3.229   0.299   3.211 -2.0887  1.7932  1.0626
14971TIP3   OH266403   3.761   3.669  15.063 -0.3303  0.0036 -0.5288
14971TIP3    H166404   3.716   3.590  15.093 -1.4991  0.9906  0.4099
14971TIP3    H266405   3.849   3.662  15.102 -0.3342 -0.9489 -0.6708
14972TIP3   OH266406   5.028   2.265  13.226  0.0176  0.4449  0.2767
14972TIP3    H166407   5.070   2.288  13.309  1.0773  1.0923 -0.4101
14972TIP3    H266408   5.100   2.259  13.164 -0.5084 -2.0523 -0.2056
14973TIP3   OH266409   0.150   3.518  15.575  0.4329 -0.0521  0.2473
14973TIP3    H166410   0.092   3.568  15.633  0.1651  0.2162 -0.2402
14973TIP3    H266411   0.090   3.475  15.514  0.7557  0.3844 -0.3856
14974TIP3   OH266412   0.173   5.148  11.089 -0.5956 -0.3523 -0.5245
14974TIP3    H166413   0.109   5.196  11.037 -0.2760  1.3387  0.5817
14974TIP3    H266414   0.254   5.197  11.080  0.0066 -1.2564 -0.1793
14975TIP3   OH266415   0.073   1.955  16.403 -0.2042  0.1852  0.6038
14975TIP3    H166416   0.164   1.948  16.371 -0.3852  1.2037 -0.1856
14975TIP3    H266417   0.027   1.884  16.359 -0.3201  1.2182 -1.0523
14976TIP3   OH266418   3.892   1.232   0.157 -0.1200 -0.3120  0.1925
14976TIP3    H166419   3.982   1.212   0.132 -0.3840 -2.1263  0.5244
14976TIP3    H266420   3.843   1.152   0.138 -1.3179  0.0039  1.6552
14977TIP3   OH266421   5.066   6.412   1.950 -0.4101  0.3354  0.0244
14977TIP3    H166422   5.074   6.335   2.005 -0.0064  0.4198  0.0825
14977TIP3    H266423   4.973   6.436   1.956 -0.6359 -0.4081 -0.3554
14978TIP3   OH266424   5.488   3.815  15.334 -0.3562  0.3778 -0.1801
14978TIP3    H166425   5.472   3.908  15.320  1.0082  0.6786  0.1478
14978TIP3    H266426   5.487   3.777  15.246 -1.7754  0.5280 -0.2574
14979TIP3   OH266427   5.084   4.487   2.254  0.8695  0.2044  0.4908
14979TIP3    H166428   5.003   4.500   2.303 -0.6375  1.3268 -2.1011
14979TIP3    H266429   5.152   4.518   2.314 -0.9155  2.2760  1.6371
14980TIP3   OH266430   2.152   3.374   2.757 -0.4444  0.3773  0.5028
14980TIP3    H166431   2.216   3.377   2.685 -0.9710 -5.0224 -0.6756
14980TIP3    H266432   2.204   3.388   2.836  1.1528  1.3002 -0.6389
14981TIP3   OH266433   5.209   4.741  12.479 -0.2641  0.3783 -0.1912
14981TIP3    H166434   5.267   4.744  12.402 -0.1541  2.0637 -0.0801
14981TIP3    H266435   5.140   4.804  12.459  0.5240  1.9221  1.6586
14982TIP3   OH266436   2.421   5.542   2.795 -0.0739 -1.0345 -0.6048
14982TIP3    H166437   2.402   5.603   2.866  0.6168 -0.5429 -0.8238
14982TIP3    H266438   2.517   5.544   2.787  0.0161 -2.5125 -0.2999
14983TIP3   OH266439   1.380   2.826   4.680 -0.0910 -0.1966 -0.6283
14983TIP3    H166440   1.391   2.843   4.586  2.7160 -1.7895 -0.6746
14983TIP3    H266441   1.455   2.869   4.721  0.1423 -1.6900  0.5772
14984TIP3   OH266442   3.191   2.533   3.923  0.2805 -0.5063 -0.0533
14984TIP3    H166443   3.210   2.446   3.888  3.6835 -1.0588  2.6200
14984TIP3    H266444   3.118   2.520   3.983  0.2504 -1.3480 -0.2582
14985TIP3   OH266445   1.681   2.855   4.103  0.3422 -0.4475 -0.3242
14985TIP3    H166446   1.664   2.949   4.104 -2.3460 -0.8581 -0.2602
14985TIP3    H266447   1.667   2.829   4.012 -0.1696 -0.9593 -0.1050
14986TIP3   OH266448   0.421   3.281  12.987  0.2211 -0.3409 -0.2068
14986TIP3    H166449   0.396   3.327  13.066  1.9437  0.5228 -0.1263
14986TIP3    H266450   0.471   3.205  13.018  3.8722  1.7672 -0.3892
14987TIP3   OH266451   2.899   0.979   5.439 -0.4956  0.1408 -0.1083
14987TIP3    H166452   2.918   1.009   5.350 -0.6188 -0.7343 -0.4422
14987TIP3    H266453   2.816   1.022   5.462 -1.8297 -1.5608 -1.4158
14988TIP3   OH266454   2.722   3.957  14.231  0.0033 -0.1493  0.5468
14988TIP3    H166455   2.631   3.974  14.257 -0.2784 -0.5613 -0.1402
14988TIP3    H266456   2.726   3.981  14.139  0.6219 -0.0374  0.5961
14989TIP3   OH266457   4.124   5.017  15.740  0.1428  0.6443 -0.1941
14989TIP3    H166458   4.118   4.945  15.677  0.5328 -0.2880  0.7914
14989TIP3    H266459   4.038   5.020  15.781  1.4072 -2.7099  3.3184
14990TIP3   OH266460   3.533   2.076   4.696 -0.0960  0.0211 -0.3931
14990TIP3    H166461   3.492   2.158   4.669  1.4693  0.9261 -0.1577
14990TIP3    H266462   3.482   2.047   4.772  1.1816  2.5202  1.5883
14991TIP3   OH266463   3.972   0.690   5.678 -0.1552 -0.4412 -0.0546
14991TIP3    H166464   3.919   0.710   5.601  2.4840  3.3558 -1.2181
14991TIP3    H266465   4.058   0.667   5.643  0.5013 -0.9586  1.7723
14992TIP3   OH266466   0.947   4.501   1.041 -0.7358 -0.2336 -0.2488
14992TIP3    H166467   0.940   4.587   1.001 -0.0594 -0.3724 -0.6887
14992TIP3    H266468   0.892   4.444   0.986  1.0351 -0.6522 -1.7054
14993TIP3   OH266469   6.640   3.348  16.319 -0.3568  0.5303 -0.0761
14993TIP3    H166470   6.716   3.400  16.295 -0.2966  1.2740  1.5555
14993TIP3    H266471   6.664   3.258  16.298  0.2205  0.9531 -1.3168
14994TIP3   OH266472   0.698   5.981   5.203  0.0611 -0.0899 -0.0289
14994TIP3    H166473   0.699   6.025   5.288  1.7793 -1.1525  0.5476
14994TIP3    H266474   0.776   6.013   5.158 -1.1215  0.9055 -1.4989
14995TIP3   OH266475   0.017   5.182   5.651  0.3328 -0.2531  0.6706
14995TIP3    H166476   0.092   5.137   5.612 -0.3971 -0.4948 -0.4758
14995TIP3    H266477   0.026   5.164   5.745  0.8509 -1.6042  0.3929
14996TIP3   OH266478   0.082   1.365   4.235  0.2244 -0.4249 -0.5647
14996TIP3    H166479   0.106   1.276   4.260 -1.6274 -0.1672  2.6986
14996TIP3    H266480   0.036   1.355   4.152  0.6315 -2.4091 -0.5917
14997TIP3   OH266481   6.201   4.790  14.758 -0.1683  0.2928  0.1656
14997TIP3    H166482   6.169   4.777  14.848  0.1977 -0.4571  0.1917
14997TIP3    H266483   6.124   4.777  14.703 -1.3702  4.4532  0.5061
14998TIP3   OH266484   2.993   4.109  12.790  0.6738  0.1111  0.4778
14998TIP3    H166485   2.916   4.113  12.733  2.6230 -0.3631 -2.4406
14998TIP3    H266486   3.017   4.201  12.804  0.1932  0.2344  0.4965
14999TIP3   OH266487   4.719   5.355   2.630 -0.6065 -0.0696  0.7037
14999TIP3    H166488   4.813   5.352   2.616 -0.4420  1.8854  1.1355
14999TIP3    H266489   4.693   5.263   2.636  0.7922 -0.7661 -2.2382
15000TIP3   OH266490   6.523   3.521   4.762  0.2811  0.3640  0.1535
15000TIP3    H166491   6.448   3.565   4.801  1.0936  0.1618  2.0617
15000TIP3    H266492   6.508   3.428   4.779  0.2041  0.1801 -0.8730
15001TIP3   OH266493   5.090   3.759  13.991  0.0109  0.3030 -0.1062
15001TIP3    H166494   5.124   3.715  13.914 -0.0572  0.0764 -0.0060
15001TIP3    H266495   4.995   3.747  13.987  0.1346 -1.4819  1.0775
15002TIP3   OH266496   5.313   3.616  10.731  0.2381  0.6246 -0.5704
15002TIP3    H166497   5.359   3.621  10.647  1.1405  1.9212 -0.0306
15002TIP3    H266498   5.326   3.702  10.770  0.4438 -0.1845  1.2176
15003TIP3   OH266499   5.217   2.534   0.564  0.4212  0.4819 -0.0940
15003TIP3    H166500   5.265   2.590   0.624  0.5009 -0.5930  0.8761
15003TIP3    H266501   5.246   2.561   0.477  2.1594  0.4211  0.4310
15004TIP3   OH266502   5.428   0.974   0.606 -0.5181 -0.0858  0.0319
15004TIP3    H166503   5.362   1.031   0.646 -0.3002  1.5241 -1.7480
15004TIP3    H266504   5.382   0.933   0.532 -0.3307 -1.3133  0.5801
15005TIP3   OH266505   5.479   3.486   6.019 -0.6275 -0.3567  0.3431
15005TIP3    H166506   5.398   3.456   6.062  0.5049 -3.1290  0.7895
15005TIP3    H266507   5.549   3.449   6.073  0.9023 -0.5222 -1.6590
15006TIP3   OH266508   0.105   5.082  15.528 -0.4689  0.2950 -0.0364
15006TIP3    H166509   0.070   5.102  15.442 -0.2415  1.0104  0.0351
15006TIP3    H266510   0.169   5.151  15.546 -1.1918  0.7059  1.1004
15007TIP3   OH266511   2.236   4.076  16.163  0.2555  0.2081 -0.5229
15007TIP3    H166512   2.196   3.992  16.186  1.9982 -0.5988 -0.2466
15007TIP3    H266513   2.299   4.055  16.094  2.6394  0.7589  1.3482
15008TIP3   OH266514   4.822   4.963   2.895  0.7348  0.6029  0.5428
15008TIP3    H166515   4.855   5.016   2.968  1.6945  0.4150  0.2568
15008TIP3    H266516   4.876   4.883   2.897 -0.6945 -0.3821  0.9736
15009TIP3   OH266517   0.646   1.044  17.211 -0.2989 -0.3488 -0.3639
15009TIP3    H166518   0.609   0.966  17.252 -1.2740 -1.1139 -2.5373
15009TIP3    H266519   0.603   1.049  17.126  0.7129  1.8360 -0.8187
15010TIP3   OH266520   6.817   3.636   6.105  0.6879 -0.5048  0.0759
15010TIP3    H166521   6.840   3.726   6.129 -0.3045 -0.1479 -0.2488
15010TIP3    H266522   6.828   3.632   6.011 -1.1879 -0.0894 -0.2150
15011TIP3   OH266523   2.736   6.305   2.847  0.6048  0.3999  0.5457
15011TIP3    H166524   2.710   6.298   2.939  0.6484 -2.5311  0.4185
15011TIP3    H266525   2.653   6.300   2.798  0.6524  1.0519  0.3906
15012TIP3   OH266526   1.370   0.367   2.595 -0.8763  0.5910 -0.1284
15012TIP3    H166527   1.382   0.357   2.501  0.9340  0.7518  0.0600
15012TIP3    H266528   1.343   0.458   2.606  2.1085  1.5944 -0.2900
15013TIP3   OH266529   2.774   6.646  14.508  0.4627  0.5845  0.4788
15013TIP3    H166530   2.781   6.679  14.598  0.9036  1.7128  0.0512
15013TIP3    H266531   2.830   6.705  14.457  0.8595 -0.5260 -0.4159
15014TIP3   OH266532   2.599   4.932   1.186 -0.0858  0.7456  0.1986
15014TIP3    H166533   2.645   4.893   1.112  1.8047  1.0093  1.1482
15014TIP3    H266534   2.583   5.023   1.160 -0.5989  0.4959 -0.3665
15015TIP3   OH266535   4.879   5.148  12.783 -0.2802 -0.1543  0.6997
15015TIP3    H166536   4.853   5.056  12.785 -0.1166 -0.1974  0.9871
15015TIP3    H266537   4.824   5.190  12.849  0.2853 -0.2261  1.2339
15016TIP3   OH266538   0.455   5.904   5.538  0.1709 -0.4814  0.3752
15016TIP3    H166539   0.486   5.822   5.576  2.1334  0.2918  0.5979
15016TIP3    H266540   0.530   5.964   5.546 -1.2955  1.4454  0.5267
15017TIP3   OH266541   0.029   6.117   4.441 -0.6588 -0.4204  0.1486
15017TIP3    H166542   0.107   6.063   4.456  0.9431  1.2750 -1.6616
15017TIP3    H266543   0.019   6.119   4.346 -1.6373  1.1490  0.2554
15018TIP3   OH266544   6.611   5.880   6.021 -0.4357  0.3664 -0.0961
15018TIP3    H166545   6.524   5.903   6.053 -0.4942  0.7314 -0.5067
15018TIP3    H266546   6.671   5.922   6.082 -0.5229  2.8088 -1.5855
15019TIP3   OH266547   4.152   0.712  14.338 -0.4699  0.5345  0.4727
15019TIP3    H166548   4.192   0.656  14.271 -1.5123 -0.6027  0.7536
15019TIP3    H266549   4.171   0.801  14.310  1.1512  0.0647 -0.0596
15020TIP3   OH266550   1.255   1.507   3.740  0.1335 -0.0131  0.3009
15020TIP3    H166551   1.262   1.602   3.726 -2.0087  0.3880  1.5663
15020TIP3    H266552   1.335   1.472   3.702  0.5539  2.2026 -1.0484
15021TIP3   OH266553   4.154   5.303   3.293 -0.1004 -0.5618 -0.1038
15021TIP3    H166554   4.135   5.210   3.303  0.0243 -0.5927 -0.1481
15021TIP3    H266555   4.117   5.326   3.207 -0.1753 -0.5588 -0.0705
15022TIP3   OH266556   4.239   5.511   1.333  0.0384 -0.1563 -0.6011
15022TIP3    H166557   4.156   5.463   1.344 -0.9587  1.2859 -1.5212
15022TIP3    H266558   4.291   5.456   1.275 -0.6325 -0.6409 -0.7576
15023TIP3   OH266559   3.444   3.757   5.859  0.0135 -0.0576 -0.2420
15023TIP3    H166560   3.449   3.769   5.954  0.1091  0.5928 -0.3249
15023TIP3    H266561   3.522   3.800   5.825 -0.4385  0.4219 -0.6799
15024TIP3   OH266562   3.293   1.338   4.656  0.1093  0.5395 -0.4601
15024TIP3    H166563   3.227   1.354   4.723 -0.2463  0.6580 -0.8383
15024TIP3    H266564   3.324   1.426   4.632 -1.1557  0.6381 -1.8463
15025TIP3   OH266565   2.565   0.398   0.987  0.1187 -0.0189  0.0803
15025TIP3    H166566   2.574   0.439   0.902  0.9422  3.8149  1.8275
15025TIP3    H266567   2.486   0.437   1.025 -0.2287 -1.6235  1.1153
15026TIP3   OH266568   4.042   1.688  12.981  0.4663  0.2073 -0.3868
15026TIP3    H166569   3.949   1.680  13.001  0.5265  0.2195 -0.0941
15026TIP3    H266570   4.079   1.735  13.056  0.9202 -0.8812  0.0833
15027TIP3   OH266571   4.742   5.271  16.570  0.0234  0.0021  0.0606
15027TIP3    H166572   4.670   5.333  16.565  0.4471  0.3888 -2.7650
15027TIP3    H266573   4.702   5.186  16.549  0.2885  0.1874 -1.3142
15028TIP3   OH266574   6.290   5.872  13.198 -0.0481 -0.0308 -0.5033
15028TIP3    H166575   6.275   5.955  13.152 -1.9895 -0.5717 -0.9256
15028TIP3    H266576   6.355   5.826  13.144  0.3121  0.8046 -0.7916
15029TIP3   OH266577   5.926   0.690  11.615  0.1133  0.6293 -0.3804
15029TIP3    H166578   5.977   0.729  11.544 -0.7129  1.1414 -0.7045
15029TIP3    H266579   5.992   0.657  11.676  0.8575 -0.6980 -1.8334
15030TIP3   OH266580   4.403   1.777   6.738 -0.3017 -0.2069  0.1184
15030TIP3    H166581   4.370   1.855   6.782 -0.3753 -0.9747  1.4685
15030TIP3    H266582   4.343   1.707   6.765  0.0005 -0.8166 -0.7483
15031TIP3   OH266583   0.269   3.863  15.124  0.1292  0.3641  0.2506
15031TIP3    H166584   0.293   3.772  15.143 -0.8198  0.2581  1.0371
15031TIP3    H266585   0.346   3.914  15.147  0.9449 -0.3062 -0.9254
15032TIP3   OH266586   2.094   2.399   3.020  0.1824 -0.2256 -0.0051
15032TIP3    H166587   2.065   2.488   3.000  1.0212 -0.3399 -2.0008
15032TIP3    H266588   2.013   2.348   3.021 -0.2133  0.3836  0.0929
15033TIP3   OH266589   1.291   2.926  17.072  0.0116  0.0424 -0.2381
15033TIP3    H166590   1.264   2.999  17.017  0.8595 -0.2400 -1.0586
15033TIP3    H266591   1.226   2.858  17.056 -0.5841  0.4878  0.2626
15034TIP3   OH266592   5.427   0.806   1.695 -0.1174 -0.6158 -0.1338
15034TIP3    H166593   5.472   0.880   1.736  2.3553 -2.6222  1.0369
15034TIP3    H266594   5.418   0.742   1.765 -0.2867 -2.2422 -1.5809
15035TIP3   OH266595   6.574   5.457  12.697 -0.4956  0.0798 -0.0327
15035TIP3    H166596   6.511   5.522  12.666 -0.0239  0.8413  0.5885
15035TIP3    H266597   6.612   5.420  12.617 -0.9851  0.3376 -0.3930
15036TIP3   OH266598   1.017   6.178   1.788  0.1123  0.5129 -0.2013
15036TIP3    H166599   0.990   6.249   1.845 -0.9726  0.1341 -0.2288
15036TIP3    H266600   1.050   6.222   1.709 -3.5068  1.0792 -1.6158
15037TIP3   OH266601   4.548   3.152  15.444  0.4189  0.1702  0.0746
15037TIP3    H166602   4.509   3.166  15.530 -1.0877 -0.7252 -0.4296
15037TIP3    H266603   4.608   3.079  15.456 -2.3897 -2.3717 -0.2978
15038TIP3   OH266604   2.669   1.405   1.042 -0.5163  0.7304 -0.3527
15038TIP3    H166605   2.644   1.491   1.074 -1.3426  0.7199 -0.9205
15038TIP3    H266606   2.606   1.386   0.972 -0.4039 -0.3648 -0.1843
15039TIP3   OH266607   6.110   5.136  14.134  0.5134 -0.6019 -0.6857
15039TIP3    H166608   6.155   5.220  14.137  2.3728 -1.5623  0.5256
15039TIP3    H266609   6.047   5.145  14.063  0.1702  2.0166 -0.1545
15040TIP3   OH266610   6.470   3.416  15.466 -0.0713  0.0750 -0.2796
15040TIP3    H166611   6.452   3.470  15.390  1.2701  0.5580 -0.2746
15040TIP3    H266612   6.421   3.335  15.451 -2.2218  1.3243 -0.1998
15041TIP3   OH266613   0.233   6.380  13.991 -0.1024  0.1988 -1.0481
15041TIP3    H166614   0.187   6.462  14.011  0.1349  0.0469  0.2479
15041TIP3    H266615   0.326   6.403  14.000  0.0651  0.2328 -2.5684
15042TIP3   OH266616   0.937   1.252   1.837 -0.1154  0.2023  0.2633
15042TIP3    H166617   0.887   1.280   1.760  0.8492  0.9481 -0.1202
15042TIP3    H266618   0.907   1.163   1.855 -1.2890  0.4946 -0.1828
15043TIP3   OH266619   1.904   6.033  16.507 -0.2363 -0.1872  0.4592
15043TIP3    H166620   1.922   6.106  16.566  0.1926 -0.9995  1.3617
15043TIP3    H266621   1.973   5.970  16.525  1.8983  0.7844 -3.1572
15044TIP3   OH266622   6.200   1.569  15.016 -0.2323  0.5040  0.0920
15044TIP3    H166623   6.271   1.603  15.070 -0.1347 -0.8348  0.8332
15044TIP3    H266624   6.240   1.500  14.964 -0.3159  1.7846 -1.7800
15045TIP3   OH266625   1.597   2.403   1.978  0.3026 -0.3885  0.5632
15045TIP3    H166626   1.614   2.380   2.070 -0.9224  0.2210  0.9610
15045TIP3    H266627   1.620   2.495   1.971 -1.0031 -0.0324  0.6578
15046TIP3   OH266628   2.118   1.463  15.807 -0.5138 -0.4275 -0.5142
15046TIP3    H166629   2.180   1.475  15.878 -1.2122 -2.3337  0.4680
15046TIP3    H266630   2.121   1.370  15.787 -2.4857 -0.4446 -0.9510
15047TIP3   OH266631   1.431   4.671   0.095 -0.2564 -0.0909 -0.6223
15047TIP3    H166632   1.525   4.671   0.081 -0.1077  1.8357 -0.0334
15047TIP3    H266633   1.411   4.586   0.133  1.2972 -0.3869 -0.4419
15048TIP3   OH266634   5.274   6.067  10.988  0.4897 -0.1933  0.5360
15048TIP3    H166635   5.182   6.048  11.008  0.3256 -0.1881 -0.1938
15048TIP3    H266636   5.290   6.025  10.904  0.8923  0.6101  0.2015
15049TIP3   OH266637   3.883   4.051  15.633  0.7277 -0.2054 -0.5821
15049TIP3    H166638   3.808   3.993  15.637  1.6888 -1.4613 -0.2744
15049TIP3    H266639   3.945   4.016  15.698  0.7991  1.9657  0.6516
15050TIP3   OH266640   4.640   5.934   1.961 -0.6462 -0.6530 -0.2573
15050TIP3    H166641   4.551   5.966   1.943 -0.7779 -0.3586  0.8270
15050TIP3    H266642   4.697   5.998   1.920 -0.9335  0.2208  0.6494
15051TIP3   OH266643   2.041   3.937  17.097  0.0273 -0.1900  0.1247
15051TIP3    H166644   2.047   3.976  17.185  0.0722 -0.4310  0.2283
15051TIP3    H266645   2.096   3.859  17.102 -4.2574 -3.5491  1.6427
15052TIP3   OH266646   1.597   2.643   1.756 -0.2647  0.4165  0.0843
15052TIP3    H166647   1.677   2.692   1.777  0.3942 -0.4325 -0.3677
15052TIP3    H266648   1.628   2.566   1.707 -1.2449 -0.5577  0.9297
15053TIP3   OH266649   4.389   5.828   5.739  0.4255 -0.0914  0.2240
15053TIP3    H166650   4.451   5.897   5.763 -1.3279  1.9583 -0.8322
15053TIP3    H266651   4.413   5.805   5.650  1.6019 -1.6065  0.8883
15054TIP3   OH266652   2.271   4.797   0.332  0.2357 -0.1781  0.8065
15054TIP3    H166653   2.187   4.822   0.370  0.2038 -0.7788  1.1473
15054TIP3    H266654   2.270   4.701   0.332  1.0860 -0.2009  1.2133
15055TIP3   OH266655   4.243   5.234  12.851 -0.3240  0.2733  1.1268
15055TIP3    H166656   4.265   5.323  12.823  2.0105 -0.1327  1.5237
15055TIP3    H266657   4.248   5.237  12.947 -0.5346 -0.2155  1.1562
15056TIP3   OH266658   2.464   1.170  13.207 -0.2399  0.2337 -0.8538
15056TIP3    H166659   2.499   1.181  13.119 -0.7798 -0.3306 -1.1473
15056TIP3    H266660   2.541   1.175  13.264 -0.0964  2.8876 -1.1196
15057TIP3   OH266661   2.269   1.999   1.610  0.9194 -0.5185  0.4147
15057TIP3    H166662   2.317   1.953   1.541  2.4924  2.3398 -0.5840
15057TIP3    H266663   2.192   2.035   1.566  0.0853 -1.5329  1.0095
15058TIP3   OH266664   3.723   2.741  14.637  0.1439  0.2695 -0.0994
15058TIP3    H166665   3.778   2.807  14.679  0.5788  1.9883 -3.0932
15058TIP3    H266666   3.785   2.679  14.598 -0.2409 -1.1169  1.3980
15059TIP3   OH266667   2.137   3.930  13.751  0.1825  0.2036 -0.8805
15059TIP3    H166668   2.106   4.012  13.714  0.8047  0.8568  0.0169
15059TIP3    H266669   2.223   3.950  13.786  0.8565 -1.1372 -1.6926
15060TIP3   OH266670   3.896   1.097   3.483 -0.2408 -0.1685  0.1946
15060TIP3    H166671   3.817   1.124   3.529 -0.5385 -0.0801 -0.3682
15060TIP3    H266672   3.968   1.125   3.541 -0.6207 -0.5195  0.8475
15061TIP3   OH266673   5.418   6.790   1.558 -0.1079 -0.1839  0.1132
15061TIP3    H166674   5.395   6.712   1.507  2.0281 -1.8810  1.5165
15061TIP3    H266675   5.510   6.806   1.536  0.6414 -0.4864  2.6990
15062TIP3   OH266676   0.524   3.463   1.687  0.6358  0.2890 -0.5867
15062TIP3    H166677   0.565   3.443   1.603  0.3737 -0.2074 -0.6006
15062TIP3    H266678   0.591   3.510   1.736  1.0321 -0.0485 -0.8070
15063TIP3   OH266679   0.166   0.146  16.329 -0.1027 -0.3310  0.0491
15063TIP3    H166680   0.093   0.194  16.290 -0.3294  0.6580  1.5813
15063TIP3    H266681   0.156   0.161  16.423  1.7852 -0.6187  0.3268
15064TIP3   OH266682   4.989   2.948   2.136 -0.0778 -0.1100  0.6045
15064TIP3    H166683   5.043   2.984   2.066  0.8009  0.9408  1.7838
15064TIP3    H266684   5.051   2.916   2.201 -0.7840 -4.1916 -0.4568
15065TIP3   OH266685   1.194   4.156   1.900  0.1423  0.4832 -0.7301
15065TIP3    H166686   1.184   4.236   1.951  0.6341 -1.0038  1.8984
15065TIP3    H266687   1.287   4.135   1.908 -0.2237 -1.0391 -0.1882
15066TIP3   OH266688   1.412   6.803  13.553  0.4602  0.3647 -0.0538
15066TIP3    H166689   1.327   6.844  13.570 -0.2946 -1.0254 -0.3016
15066TIP3    H266690   1.406   6.717  13.596  2.0882  0.5877  0.6913
15067TIP3   OH266691   3.039   6.719  11.919  0.2125 -0.9412  0.3143
15067TIP3    H166692   3.098   6.777  11.871 -0.2215 -1.5358 -0.9780
15067TIP3    H266693   3.005   6.773  11.991  0.3571  0.1800 -0.4392
15068TIP3   OH266694   4.502   1.069   0.542  0.0223  0.1246 -0.0194
15068TIP3    H166695   4.442   0.999   0.518  2.0809 -1.7038 -0.1201
15068TIP3    H266696   4.487   1.138   0.478 -2.6576  0.2104  0.5958
15069TIP3   OH266697   6.227   1.775  13.489 -0.4002 -0.4732 -0.8675
15069TIP3    H166698   6.261   1.843  13.548  2.0562 -0.4707 -2.1684
15069TIP3    H266699   6.148   1.813  13.451 -1.9597 -0.3710  2.1200
15070TIP3   OH266700   3.431   4.817  14.363 -0.0750  0.3326  0.3609
15070TIP3    H166701   3.457   4.848  14.276  0.8219  0.7758  0.7743
15070TIP3    H266702   3.501   4.847  14.421  0.1680 -1.3845  0.9902
15071TIP3   OH266703   3.373   0.853   6.201 -0.2333 -0.3375 -0.3703
15071TIP3    H166704   3.404   0.770   6.237  1.4824  0.2661 -0.3660
15071TIP3    H266705   3.387   0.916   6.272  2.2535  0.6731 -1.6127
15072TIP3   OH266706   2.352   4.384  15.570  0.5052  0.1654  0.1764
15072TIP3    H166707   2.369   4.327  15.495 -0.3154  0.2405 -0.0778
15072TIP3    H266708   2.406   4.462  15.554  0.0696  0.3344 -0.5298
15073TIP3   OH266709   4.957   3.810  14.683 -0.0292  0.1012 -0.2051
15073TIP3    H166710   4.964   3.873  14.755 -0.1163 -0.3791  0.2343
15073TIP3    H266711   5.015   3.738  14.710  0.0124 -0.0356 -0.6638
15074TIP3   OH266712   2.896   6.037   4.765 -0.4158 -0.2929 -0.0839
15074TIP3    H166713   2.921   6.091   4.690  0.2568  0.1732  0.4636
15074TIP3    H266714   2.905   5.947   4.734 -0.8453 -0.1030 -0.7814
15075TIP3   OH266715   3.311   5.103  14.241  0.9783  0.1061 -0.0636
15075TIP3    H166716   3.345   5.177  14.190  0.1993  0.5176  0.0045
15075TIP3    H266717   3.351   5.026  14.200  1.4362  0.5249 -0.4268
15076TIP3   OH266718   2.313   0.631  12.746  0.4775 -0.2559  0.0856
15076TIP3    H166719   2.268   0.693  12.689  0.9922 -0.0166 -0.0646
15076TIP3    H266720   2.270   0.547  12.728  0.9300 -0.2728 -0.9981
15077TIP3   OH266721   6.350   6.244  10.713 -0.1045  0.0617  0.1072
15077TIP3    H166722   6.366   6.193  10.792 -0.5475 -0.2288  0.0128
15077TIP3    H266723   6.396   6.327  10.728  1.0382 -0.5471  0.0534
15078TIP3   OH266724   0.781   2.058   4.958  0.1420  0.5620  0.8539
15078TIP3    H166725   0.692   2.027   4.944 -0.2722  2.0864 -0.3011
15078TIP3    H266726   0.770   2.147   4.992  1.2149  0.7359  0.7902
15079TIP3   OH266727   0.551   1.328   0.680  0.0493  0.4188 -0.2144
15079TIP3    H166728   0.637   1.322   0.723 -0.5431  1.6375  1.2074
15079TIP3    H266729   0.491   1.284   0.740 -0.1733 -1.5503 -1.7888
15080TIP3   OH266730   0.430   6.646  15.355 -0.0551 -0.0660  0.0245
15080TIP3    H166731   0.480   6.687  15.285 -0.0951  0.4189  0.2798
15080TIP3    H266732   0.469   6.679  15.435 -1.8441  1.6693  0.2474
15081TIP3   OH266733   4.760   6.477   3.472 -0.3663 -0.8484 -0.0854
15081TIP3    H166734   4.836   6.529   3.498  0.5152 -0.5769 -2.8709
15081TIP3    H266735   4.712   6.533   3.412 -2.5869 -1.2043  1.2315
15082TIP3   OH266736   1.547   3.168  11.785 -0.0531 -0.6503  0.3484
15082TIP3    H166737   1.533   3.259  11.813 -0.1751  0.4479 -2.8340
15082TIP3    H266738   1.629   3.170  11.735 -0.6722 -1.9734 -0.8081
15083TIP3   OH266739   1.647   3.328   4.556  0.1926  0.0513  0.2956
15083TIP3    H166740   1.694   3.277   4.622  0.4834 -1.1898 -0.8338
15083TIP3    H266741   1.660   3.419   4.582 -0.0575 -0.4041  2.1855
15084TIP3   OH266742   4.281   5.186  15.083  0.4935 -0.3294  0.3715
15084TIP3    H166743   4.241   5.100  15.066  0.2220 -0.0610 -0.4027
15084TIP3    H266744   4.227   5.224  15.152 -1.2789  0.4312 -1.3118
15085TIP3   OH266745   2.173   5.223  16.287  0.0536  0.1187 -0.3128
15085TIP3    H166746   2.230   5.188  16.218 -0.7262  0.7130 -1.2959
15085TIP3    H266747   2.133   5.145  16.326 -1.1823 -0.1690 -2.0441
15086TIP3   OH266748   2.663   5.767  15.881  0.6140 -0.0353  0.2792
15086TIP3    H166749   2.660   5.683  15.835  0.1142 -0.1002  0.4278
15086TIP3    H266750   2.757   5.788  15.885  0.5867  0.8078 -2.2300
15087TIP3   OH266751   4.553   2.977  17.269  0.2587  0.4565 -0.3087
15087TIP3    H166752   4.618   2.921  17.226 -2.1852 -2.2519 -0.7663
15087TIP3    H266753   4.507   3.021  17.197 -0.2855  0.1131 -0.1778
15088TIP3   OH266754   5.727   3.059  13.726 -0.2052  0.0648 -0.2468
15088TIP3    H166755   5.803   3.051  13.784 -0.2686  1.0792 -0.0161
15088TIP3    H266756   5.747   3.134  13.670 -1.2781  0.7002  0.1910
15089TIP3   OH266757   5.097   0.055  17.262  1.1303 -0.5857  0.2732
15089TIP3    H166758   5.024   0.002  17.230  1.0953  0.1191 -0.8939
15089TIP3    H266759   5.163  -0.008  17.290 -0.6410 -1.3068  3.2516
15090TIP3   OH266760   4.747   1.634  16.911  0.1039 -0.1204  0.2512
15090TIP3    H166761   4.696   1.667  16.836  0.6387  1.7549  0.6596
15090TIP3    H266762   4.725   1.694  16.982  1.1323 -0.6859  1.0626
15091TIP3   OH266763   3.886   1.573   2.242 -0.0166 -0.2090  0.2668
15091TIP3    H166764   3.836   1.619   2.309 -0.8026 -0.7914  0.0977
15091TIP3    H266765   3.929   1.642   2.191 -1.4521  0.3586 -0.2096
15092TIP3   OH266766   4.945   3.235   2.187  0.9618 -0.9586 -0.2515
15092TIP3    H166767   4.850   3.236   2.194  0.6677  1.2568 -3.0332
15092TIP3    H266768   4.966   3.147   2.155  0.1099 -2.1054  2.1592
15093TIP3   OH266769   6.045   0.176  16.535 -0.2808  0.0882 -0.1126
15093TIP3    H166770   6.104   0.219  16.474 -0.4031 -0.4560 -0.6271
15093TIP3    H266771   6.045   0.084  16.507  0.3829 -0.3575  1.2635
15094TIP3   OH266772   0.118   5.273   0.140 -0.4595  1.0994  0.3277
15094TIP3    H166773   0.202   5.290   0.097 -0.2838 -3.2614 -1.6241
15094TIP3    H266774   0.054   5.320   0.086  0.3439  0.7381 -0.9982
15095TIP3   OH266775   3.806   6.535  12.762  0.3722  0.2909 -0.3925
15095TIP3    H166776   3.810   6.477  12.838  0.4174 -0.2661 -0.8106
15095TIP3    H266777   3.739   6.495  12.706  3.2155 -1.7928 -2.6479
15096TIP3   OH266778   0.328   1.992  14.631 -0.2975  0.0390 -0.3660
15096TIP3    H166779   0.246   1.949  14.608 -0.2633 -0.1791 -0.0732
15096TIP3    H266780   0.372   2.005  14.547  0.6431 -2.3702 -0.3217
15097TIP3   OH266781   3.087   5.520   2.405 -0.0461 -0.0963  0.0077
15097TIP3    H166782   3.011   5.572   2.380 -0.5063 -1.3025 -1.2231
15097TIP3    H266783   3.054   5.430   2.414  0.9088 -0.3705  1.1465
15098TIP3   OH266784   3.133   6.443   3.188 -1.0286  0.2944 -0.0141
15098TIP3    H166785   3.060   6.496   3.155  0.0123  1.5359 -0.4265
15098TIP3    H266786   3.162   6.489   3.266 -1.0169 -0.4917  0.4532
15099TIP3   OH266787   3.640   2.340   3.157  0.2782 -0.1434 -0.5418
15099TIP3    H166788   3.721   2.376   3.122  1.7476 -0.9125  1.8676
15099TIP3    H266789   3.606   2.409   3.214  0.2639 -0.5244 -0.0815
15100TIP3   OH266790   5.329   4.437  16.366 -1.0454 -0.6570  0.2480
15100TIP3    H166791   5.279   4.513  16.394 -1.3991 -0.8643  0.1833
15100TIP3    H266792   5.286   4.408  16.285 -0.4215 -0.4396 -0.1698
15101TIP3   OH266793   3.278   4.337  13.422  0.4068 -0.4152  0.4265
15101TIP3    H166794   3.304   4.250  13.454  1.4952 -0.5483 -0.7302
15101TIP3    H266795   3.344   4.358  13.356 -1.5597 -0.0342 -1.5077
15102TIP3   OH266796   2.338   2.983  14.399 -0.0648 -0.4822  0.5112
15102TIP3    H166797   2.250   2.946  14.407 -0.0219 -0.5111  0.8657
15102TIP3    H266798   2.368   2.994  14.489  0.1057 -0.0129  0.4021
15103TIP3   OH266799   2.670   5.923  13.294 -0.0277  0.4066  0.3172
15103TIP3    H166800   2.715   5.991  13.344  1.9863  0.2596 -1.1606
15103TIP3    H266801   2.689   5.842  13.341  1.6200  0.3043 -0.4627
15104TIP3   OH266802   5.199   0.459   2.653  0.0230 -0.2101 -0.0980
15104TIP3    H166803   5.250   0.445   2.573 -0.5564 -1.5415 -0.2676
15104TIP3    H266804   5.140   0.383   2.657  1.1605 -1.0447  2.4667
15105TIP3   OH266805   4.776   5.493   1.213 -0.7291 -0.0858 -0.0975
15105TIP3    H166806   4.836   5.567   1.212 -1.1863  0.2890 -0.8539
15105TIP3    H266807   4.832   5.416   1.202 -0.4279  0.3023 -1.4283
15106TIP3   OH266808   4.716   4.343   1.763  0.0316  0.3177 -0.4587
15106TIP3    H166809   4.628   4.382   1.760 -1.5408 -2.9058 -1.6542
15106TIP3    H266810   4.704   4.263   1.815  1.6568 -1.4314 -2.5977
15107TIP3   OH266811   4.597   2.266  15.555 -0.5238  0.1464  0.1589
15107TIP3    H166812   4.647   2.246  15.476 -2.6069 -1.8980 -0.7496
15107TIP3    H266813   4.536   2.335  15.528 -0.8068 -0.1138  0.1142
15108TIP3   OH266814   0.785   3.670  11.352 -0.2800  0.0569  0.1038
15108TIP3    H166815   0.804   3.763  11.359 -1.1751  0.1068  2.9984
15108TIP3    H266816   0.826   3.644  11.269  0.9651  2.7536 -0.2414
15109TIP3   OH266817   3.638   0.933   5.519 -0.5800  0.1266 -0.1751
15109TIP3    H166818   3.581   0.862   5.547  1.6766 -1.5472  0.4111
15109TIP3    H266819   3.654   0.983   5.599  1.1844 -1.2389  0.3863
15110TIP3   OH266820   1.949   1.701  13.137 -0.2437  0.0536  0.0597
15110TIP3    H166821   2.000   1.690  13.217  0.4404  0.5780 -0.3025
15110TIP3    H266822   2.001   1.658  13.068 -0.3522  0.4726 -0.2856
15111TIP3   OH266823   1.998   0.394  10.485  0.1870  0.3485 -0.5210
15111TIP3    H166824   2.073   0.418  10.429  0.0581  0.6534 -0.5620
15111TIP3    H266825   2.034   0.393  10.574  0.6565 -1.1756 -0.6928
15112TIP3   OH266826   2.055   0.629  15.428  0.6827  0.1374 -0.3363
15112TIP3    H166827   2.069   0.687  15.502 -1.7513 -0.1808  0.4486
15112TIP3    H266828   2.009   0.683  15.364 -1.2595 -0.7462  0.2473
15113TIP3   OH266829   2.535   5.922  14.505  0.3138 -0.2115 -0.5691
15113TIP3    H166830   2.621   5.956  14.530  0.3073  0.3694 -1.3124
15113TIP3    H266831   2.549   5.829  14.487  0.5952 -0.3249  0.1852
15114TIP3   OH266832   3.727   4.155   0.986  0.1263  0.0518 -0.4573
15114TIP3    H166833   3.719   4.170   1.080 -1.9955 -0.6555 -0.4701
15114TIP3    H266834   3.670   4.221   0.946  0.0176 -0.4595 -1.1620
15115TIP3   OH266835   2.941   1.871   3.423 -0.0743  0.1958  0.5331
15115TIP3    H166836   2.876   1.854   3.491 -1.3739  0.0269 -0.7042
15115TIP3    H266837   2.890   1.902   3.348  1.2184 -0.4194 -0.6540
15116TIP3   OH266838   2.971   1.632  12.826 -0.0691  0.1938  0.8194
15116TIP3    H166839   3.058   1.609  12.860 -0.1408 -0.1483  0.7753
15116TIP3    H266840   2.984   1.716  12.783  0.1477  0.3581  1.1932
15117TIP3   OH266841   4.393   5.004  14.893 -0.2255  0.2537  0.4034
15117TIP3    H166842   4.357   5.091  14.914 -1.4733 -0.6053  2.0222
15117TIP3    H266843   4.372   4.991  14.801 -3.5191  0.1380  1.0577
15118TIP3   OH266844   0.800   2.518  16.861  0.1624 -0.6580 -0.2668
15118TIP3    H166845   0.759   2.604  16.857  0.2836 -0.6430 -1.7470
15118TIP3    H266846   0.729   2.459  16.885 -0.3304 -0.3704 -0.9683
15119TIP3   OH266847   1.800   6.439  15.716  0.0719  0.1863 -0.9949
15119TIP3    H166848   1.750   6.387  15.780 -0.0575  0.4688 -0.8648
15119TIP3    H266849   1.841   6.374  15.659 -2.1167 -0.0511 -2.3975
15120TIP3   OH266850   5.064   2.105   0.597  0.4043  0.8937  0.3834
15120TIP3    H166851   5.123   2.168   0.638 -0.7880  0.7294  2.4598
15120TIP3    H266852   4.989   2.099   0.656 -0.5107 -0.8644 -0.8529
15121TIP3   OH266853   4.007   5.944  13.785  0.2453  0.7510 -0.5535
15121TIP3    H166854   4.075   5.878  13.793 -3.2743 -3.0305  2.5203
15121TIP3    H266855   4.024   6.005  13.857 -0.6090 -1.4874  1.7172
15122TIP3   OH266856   1.312   2.212   0.555  0.2483  0.6633 -0.3817
15122TIP3    H166857   1.338   2.121   0.541 -0.5901 -0.3569  3.4028
15122TIP3    H266858   1.390   2.263   0.533  0.5457 -0.8185 -3.2067
15123TIP3   OH266859   0.735   0.659  14.120 -0.2014  0.5954  0.3995
15123TIP3    H166860   0.751   0.744  14.079  1.1611  0.0655 -0.2432
15123TIP3    H266861   0.750   0.595  14.050 -0.7643 -0.1972  0.9823
15124TIP3   OH266862   6.198   1.350   5.556 -0.0948  0.6695  0.1695
15124TIP3    H166863   6.282   1.348   5.509  0.7093  0.1366  1.5659
15124TIP3    H266864   6.183   1.260   5.583 -1.4395  0.6492 -0.5471
15125TIP3   OH266865   4.159   6.808  16.362 -0.5697 -0.0268 -0.5814
15125TIP3    H166866   4.071   6.771  16.364 -0.2259 -0.9816 -1.7237
15125TIP3    H266867   4.163   6.865  16.438 -1.7175 -1.0186  0.2601
15126TIP3   OH266868   3.496   0.448   4.412  0.2479  0.4119  0.2709
15126TIP3    H166869   3.564   0.500   4.368 -0.4327  1.9532  0.9567
15126TIP3    H266870   3.455   0.399   4.341  1.8808 -0.3575 -0.1937
15127TIP3   OH266871   5.457   2.180  11.627 -0.0468 -0.3678 -0.0674
15127TIP3    H166872   5.453   2.139  11.540  1.5244 -0.2239 -0.2302
15127TIP3    H266873   5.550   2.182  11.649 -0.1405  2.0755  0.4239
15128TIP3   OH266874   4.768   1.845   5.927 -0.5331 -0.1173 -0.0792
15128TIP3    H166875   4.862   1.830   5.915 -0.0276  1.4635  1.4191
15128TIP3    H266876   4.762   1.937   5.955 -2.6367  0.1283 -1.1622
15129TIP3   OH266877   4.086   3.535   2.002 -0.0718 -0.1569 -0.0419
15129TIP3    H166878   4.156   3.515   1.940  0.5493  2.9474 -0.5238
15129TIP3    H266879   4.006   3.530   1.951 -0.0972 -1.9802  0.0887
15130TIP3   OH266880   6.676   3.426   1.574 -0.3167 -0.2259 -0.1924
15130TIP3    H166881   6.688   3.425   1.669  1.3703  1.2068 -0.3455
15130TIP3    H266882   6.621   3.502   1.557  0.1147  0.0307 -0.4356
15131TIP3   OH266883   3.143   4.535  16.810  0.1009 -0.3676  0.0947
15131TIP3    H166884   3.057   4.571  16.831  0.5691 -0.2147  1.8266
15131TIP3    H266885   3.124   4.456  16.758 -1.0925 -0.4927  0.7021
15132TIP3   OH266886   2.501   3.996  16.824  0.2234  0.0122  0.3862
15132TIP3    H166887   2.488   3.979  16.730  0.7145  0.3958  0.2440
15132TIP3    H266888   2.462   4.082  16.839 -1.4785 -0.8110  0.9236
15133TIP3   OH266889   2.924   2.078  11.502 -0.3447  0.3430  0.2789
15133TIP3    H166890   2.840   2.121  11.484 -0.8780 -0.7605  0.0194
15133TIP3    H266891   2.986   2.122  11.445 -0.8346  0.8805  0.1458
15134TIP3   OH266892   5.574   4.942  12.508  0.1095  0.3101 -0.0549
15134TIP3    H166893   5.509   4.926  12.576  0.7191  0.0013  0.4675
15134TIP3    H266894   5.657   4.914  12.546  0.6204  1.0810 -0.5586
15135TIP3   OH266895   1.656   0.524  12.253 -0.2160  0.3885 -0.2853
15135TIP3    H166896   1.595   0.544  12.181  0.9096  3.9212 -0.4273
15135TIP3    H266897   1.604   0.470  12.313 -2.2162  0.0167 -2.1994
15136TIP3   OH266898   4.878   2.618   0.183  0.1391 -0.6228  0.1866
15136TIP3    H166899   4.804   2.575   0.227 -1.4994  0.2739 -1.5449
15136TIP3    H266900   4.839   2.656   0.104  2.0673  1.6962  0.2754
15137TIP3   OH266901   4.761   2.947   5.169  0.7422  0.3289 -0.1511
15137TIP3    H166902   4.764   3.043   5.176 -0.5506  0.5546 -2.0456
15137TIP3    H266903   4.745   2.930   5.076 -0.8664 -1.6765  0.4186
15138TIP3   OH266904   6.135   2.677  11.389 -0.1947 -0.1738  0.7088
15138TIP3    H166905   6.172   2.759  11.422 -1.3410  1.1166 -1.0326
15138TIP3    H266906   6.204   2.640  11.333  0.3567 -0.4953  1.5681
15139TIP3   OH266907   4.798   2.134  13.267  0.0798 -0.1363  0.2720
15139TIP3    H166908   4.788   2.190  13.344 -0.5417  1.3617 -0.8513
15139TIP3    H266909   4.882   2.160  13.229  0.1058 -0.4503  0.1140
15140TIP3   OH266910   2.258   3.396   4.529 -0.5061  0.0177 -0.0342
15140TIP3    H166911   2.295   3.458   4.593 -1.8535  1.0432 -0.2043
15140TIP3    H266912   2.281   3.433   4.444 -2.6653  1.2367 -0.1671
15141TIP3   OH266913   2.950   3.305   3.004 -0.1993 -0.3124 -0.3191
15141TIP3    H166914   2.962   3.295   2.909  1.0003  0.7097 -0.3031
15141TIP3    H266915   2.944   3.400   3.017  0.1911 -0.4170  0.6904
15142TIP3   OH266916   5.619   0.764  12.903 -0.0777  0.4508  0.0312
15142TIP3    H166917   5.619   0.677  12.942 -0.1120  0.6164  0.4005
15142TIP3    H266918   5.676   0.816  12.960 -2.4015  1.4528  1.5567
15143TIP3   OH266919   6.261   5.131   3.534  0.4614 -0.1786  0.2907
15143TIP3    H166920   6.207   5.113   3.611  0.1688 -1.9208 -0.2919
15143TIP3    H266921   6.334   5.070   3.540 -0.6010 -1.7883 -1.7947
15144TIP3   OH266922   4.274   3.406   1.561 -0.7494 -0.1753  0.1934
15144TIP3    H166923   4.345   3.352   1.528  0.0492 -1.0034  2.9961
15144TIP3    H266924   4.260   3.472   1.493 -0.0997 -2.3946 -2.2402
15145TIP3   OH266925   3.892   5.079  11.759 -0.5864 -0.1658 -1.0097
15145TIP3    H166926   3.881   5.132  11.681  0.9338  2.2125  0.2795
15145TIP3    H266927   3.823   5.108  11.818  1.1948  1.7065  0.3022
15146TIP3   OH266928   2.386   1.629  16.569 -0.0086  0.2595  0.3530
15146TIP3    H166929   2.371   1.543  16.607 -0.5294 -0.3039 -1.0985
15146TIP3    H266930   2.408   1.612  16.478  1.9306  1.5417  0.5231
15147TIP3   OH266931   3.216   5.322   0.552 -0.1192 -0.6139 -0.4410
15147TIP3    H166932   3.170   5.396   0.592 -0.8143 -0.9139 -0.6786
15147TIP3    H266933   3.281   5.362   0.494  0.0277 -0.1871  0.0086
15148TIP3   OH266934   6.538   1.651  14.437 -0.3753  0.1957 -0.2369
15148TIP3    H166935   6.594   1.716  14.396 -0.9443  0.4804 -0.5759
15148TIP3    H266936   6.453   1.661  14.393  0.3514 -3.0510 -2.7524
15149TIP3   OH266937   5.745   0.823   3.533  0.3090  0.1494 -0.0311
15149TIP3    H166938   5.732   0.745   3.587 -0.0885 -0.3258 -0.7958
15149TIP3    H266939   5.835   0.850   3.551  0.4570 -0.4956  0.2340
15150TIP3   OH266940   0.328   5.876   3.573  0.0764  0.4392  0.7394
15150TIP3    H166941   0.337   5.822   3.494  0.6122  0.3991  0.8295
15150TIP3    H266942   0.410   5.923   3.580  0.1033  0.3067  1.3780
15151TIP3   OH266943   0.466   0.827  12.591  0.1854  0.5540 -0.1345
15151TIP3    H166944   0.466   0.792  12.502 -1.0345  1.7595 -0.6469
15151TIP3    H266945   0.491   0.918  12.581 -1.2732  1.0612  0.5728
15152TIP3   OH266946   2.311   5.394   5.903  0.0193 -0.0686  0.0992
15152TIP3    H166947   2.259   5.316   5.922  0.7612 -0.8787 -1.0338
15152TIP3    H266948   2.353   5.416   5.986 -0.5457 -0.5990  0.5343
15153TIP3   OH266949   1.900   2.555  16.906 -0.0833  0.9794  0.0835
15153TIP3    H166950   1.861   2.517  16.827  2.0254 -1.9876  0.2929
15153TIP3    H266951   1.828   2.557  16.969 -1.0953  0.5666 -1.0142
15154TIP3   OH266952   4.204   0.266  10.694  0.4265  0.5984  0.1947
15154TIP3    H166953   4.284   0.254  10.643  0.6395  1.9291  0.1903
15154TIP3    H266954   4.172   0.353  10.668 -0.8361  0.2273  0.4459
15155TIP3   OH266955   1.579   6.513   0.536  0.3012  0.5067 -0.5046
15155TIP3    H166956   1.569   6.509   0.440  0.1414 -1.1536 -0.4542
15155TIP3    H266957   1.493   6.536   0.568 -0.0000 -0.2634 -0.7221
15156TIP3   OH266958   5.997   2.201  16.946  0.2190  0.7175  0.0643
15156TIP3    H166959   6.090   2.186  16.959  0.2733  0.6895 -0.3578
15156TIP3    H266960   5.992   2.277  16.889  0.0489 -0.7210 -1.9425
15157TIP3   OH266961   3.562   5.404  16.469  0.1168 -0.1256  0.3881
15157TIP3    H166962   3.577   5.382  16.377 -0.5001 -0.3872  0.3448
15157TIP3    H266963   3.620   5.346  16.517  2.1005  1.5142  0.1078
15158TIP3   OH266964   1.729   2.377  14.176  0.0038  0.0853  0.3791
15158TIP3    H166965   1.704   2.315  14.245 -0.1388  0.3758  0.5890
15158TIP3    H266966   1.818   2.404  14.200  0.4563 -0.7828 -0.2483
15159TIP3   OH266967   2.713   6.486  17.178  0.5940 -0.1430  0.2100
15159TIP3    H166968   2.637   6.430  17.193  0.3765  0.1213  0.1038
15159TIP3    H266969   2.773   6.465  17.249 -0.7390  1.6477  1.9548
15160TIP3   OH266970   1.525   0.838   4.543 -0.2287  0.1840  0.7076
15160TIP3    H166971   1.476   0.915   4.515  0.8569  1.2276  1.5507
15160TIP3    H266972   1.614   0.854   4.514  0.4694  0.2901  2.7233
15161TIP3   OH266973   3.647   3.337   2.421  0.6343 -0.4221 -0.0658
15161TIP3    H166974   3.571   3.325   2.365  1.7240  0.6978 -1.8527
15161TIP3    H266975   3.611   3.342   2.510 -1.6467  2.2706 -1.0013
15162TIP3   OH266976   1.858   5.146  13.724  0.2032  0.9195 -0.2154
15162TIP3    H166977   1.833   5.217  13.666 -0.8122 -0.4111 -1.4653
15162TIP3    H266978   1.930   5.102  13.679  0.4405  0.7990  0.2727
15163TIP3   OH266979   0.535   0.557   4.474 -0.0445 -0.0266  0.2945
15163TIP3    H166980   0.530   0.619   4.547  0.9323  0.1943  0.1938
15163TIP3    H266981   0.613   0.504   4.494  1.1179  0.9884 -1.3084
15164TIP3   OH266982   4.711   4.242  13.622 -0.1270  0.0487 -0.0722
15164TIP3    H166983   4.638   4.194  13.663 -1.1751  1.5804 -0.0666
15164TIP3    H266984   4.788   4.191  13.645 -1.0271 -0.8198  1.2146
15165TIP3   OH266985   1.915   5.157  12.621  0.0297  0.0442 -0.4641
15165TIP3    H166986   1.863   5.233  12.646 -1.3828 -1.1433  0.4550
15165TIP3    H266987   1.981   5.149  12.690  0.5016  0.7272 -0.8390
15166TIP3   OH266988   5.658   1.684   3.479  0.5871  0.0659 -0.0250
15166TIP3    H166989   5.599   1.677   3.554 -0.7787 -2.1975 -1.1944
15166TIP3    H266990   5.610   1.737   3.415  0.8810  0.2945 -0.0567
15167TIP3   OH266991   3.039   3.236  11.368 -0.2643  0.4274  1.0598
15167TIP3    H166992   3.042   3.332  11.359  0.6335  0.3507  0.3851
15167TIP3    H266993   3.053   3.204  11.279  2.0866 -0.3381  1.6461
15168TIP3   OH266994   4.338   4.236  15.168  0.1157  0.0290 -0.2659
15168TIP3    H166995   4.294   4.202  15.246 -0.5451  0.7701 -0.2996
15168TIP3    H266996   4.276   4.299  15.132  0.1444 -0.7565 -1.7458
15169TIP3   OH266997   5.422   3.619   0.011  0.2579  0.0947  0.3735
15169TIP3    H166998   5.469   3.694  -0.025  0.9676 -0.1710  0.7212
15169TIP3    H266999   5.413   3.638   0.104  0.4974 -0.2728  0.4748
15170TIP3   OH267000   1.834   5.111  14.274  0.5712  0.4860 -0.0352
15170TIP3    H167001   1.765   5.111  14.207 -1.3870 -1.0009  1.8498
15170TIP3    H267002   1.810   5.182  14.333  0.9129  0.2595  0.3834
15171TIP3   OH267003   4.650   4.529   1.188  0.4879 -0.4530 -0.5619
15171TIP3    H167004   4.607   4.539   1.103  0.6326  0.4321 -0.5427
15171TIP3    H267005   4.731   4.580   1.181  0.1638  0.2185  0.3330
15172TIP3   OH267006   5.627   4.659  16.233  0.0434  0.4777 -0.0913
15172TIP3    H167007   5.531   4.666  16.241 -0.0271  2.4161 -1.8947
15172TIP3    H267008   5.656   4.635  16.321 -2.1025 -0.5316  0.4230
15173TIP3   OH267009   4.867   4.568   5.506 -0.3619 -0.6368  0.0645
15173TIP3    H167010   4.843   4.568   5.413 -1.3523  0.1417  0.3005
15173TIP3    H267011   4.944   4.624   5.510 -1.5164  1.0362 -0.0371
15174TIP3   OH267012   4.280   6.551   0.552  0.2169 -0.4307  0.4233
15174TIP3    H167013   4.227   6.623   0.517 -0.2801 -1.1251 -0.3019
15174TIP3    H267014   4.265   6.554   0.647 -1.0811 -0.5685  0.2393
15175TIP3   OH267015   5.966   4.706   4.071 -0.2441 -0.2703  0.3488
15175TIP3    H167016   5.892   4.677   4.125 -0.3340  0.5381  0.6742
15175TIP3    H267017   6.029   4.742   4.134  0.8998 -1.8730  0.1867
15176TIP3   OH267018   2.138   5.834  14.879  0.5202 -0.4092 -0.0815
15176TIP3    H167019   2.219   5.812  14.833  0.0011 -0.5748 -0.9505
15176TIP3    H267020   2.083   5.875  14.812 -0.3055 -0.7481  0.3694
15177TIP3   OH267021   4.545   3.095  14.498 -0.6909 -0.9607  0.3127
15177TIP3    H167022   4.526   3.188  14.485  0.0027 -0.4845  2.4300
15177TIP3    H267023   4.576   3.066  14.412  0.8968  1.2434  0.0327
15178TIP3   OH267024   4.407   4.481   4.389  0.3709 -0.5484  0.3293
15178TIP3    H167025   4.486   4.527   4.360 -0.5379  0.1650 -1.1632
15178TIP3    H267026   4.432   4.389   4.392  1.3430 -0.2974  0.2178
15179TIP3   OH267027   0.152   0.586   0.650 -0.2810 -0.1745 -0.0428
15179TIP3    H167028   0.235   0.541   0.663 -0.7743 -0.8009  1.1649
15179TIP3    H267029   0.086   0.518   0.663 -1.0150  0.6818  0.8362
15180TIP3   OH267030   2.161   1.826  11.475  0.5310 -0.0582 -0.4266
15180TIP3    H167031   2.203   1.780  11.403 -1.0833 -1.8588 -0.2882
15180TIP3    H267032   2.204   1.793  11.554  1.3901  0.9368 -0.4458
15181TIP3   OH267033   2.405   1.651   0.269  0.7331  0.5773  0.0103
15181TIP3    H167034   2.471   1.588   0.240 -0.2454 -0.2645 -0.4244
15181TIP3    H267035   2.375   1.693   0.188  0.3122  0.5457  0.1513
15182TIP3   OH267036   5.673   1.219  14.692  0.5698 -0.0557 -0.3175
15182TIP3    H167037   5.680   1.136  14.739  1.4630 -0.1108 -0.5330
15182TIP3    H267038   5.686   1.195  14.600  3.1094  0.5835 -0.1952
15183TIP3   OH267039   4.322   3.094  11.921 -0.1471 -0.2442  0.1236
15183TIP3    H167040   4.409   3.119  11.954 -0.6540  0.6747  0.8056
15183TIP3    H267041   4.334   3.004  11.890  0.8943 -0.3775  0.8339
15184TIP3   OH267042   3.745   1.271   3.284  0.5951  0.2106  0.0921
15184TIP3    H167043   3.817   1.312   3.235  1.3634 -1.3333 -0.1639
15184TIP3    H267044   3.772   1.276   3.375  1.2832 -0.7539 -0.0375
15185TIP3   OH267045   0.731   4.908   1.071  1.1177 -0.3389 -0.4045
15185TIP3    H167046   0.766   4.919   1.160 -0.9182  0.1640  0.3963
15185TIP3    H267047   0.706   4.996   1.044  0.5234 -0.6662 -0.9490
15186TIP3   OH267048   6.298   1.178  11.908  0.8302  0.0780  0.6472
15186TIP3    H167049   6.287   1.273  11.917  0.1221  0.1427 -0.6561
15186TIP3    H267050   6.363   1.168  11.839  0.1037 -0.3778  0.0188
15187TIP3   OH267051   0.261   2.862   3.214 -0.4015  0.0969 -0.3698
15187TIP3    H167052   0.217   2.941   3.184 -2.1466 -0.2143  1.2428
15187TIP3    H267053   0.354   2.887   3.219 -1.0736  2.5500  1.5621
15188TIP3   OH267054   4.679   4.103   0.948  0.6231  0.3026  0.0212
15188TIP3    H167055   4.668   4.062   0.862  0.6915  0.7323 -0.1943
15188TIP3    H267056   4.770   4.084   0.972  0.3614 -0.5663  0.3998
15189TIP3   OH267057   0.587   3.525   2.332  0.3590  0.1185 -0.2144
15189TIP3    H167058   0.557   3.539   2.421  0.9529  0.3528 -0.0462
15189TIP3    H267059   0.643   3.600   2.313 -0.7996  0.7507 -1.2565
15190TIP3   OH267060   5.931   2.973  13.292  0.4209 -0.2707 -0.0770
15190TIP3    H167061   5.924   3.062  13.259  0.8841 -1.1114 -2.6356
15190TIP3    H267062   5.854   2.928  13.256  2.2778 -1.8623 -2.2971
15191TIP3   OH267063   2.755   0.587  15.017 -0.5781 -0.4685  0.2772
15191TIP3    H167064   2.758   0.565  15.110 -0.4460 -1.1728  0.1143
15191TIP3    H267065   2.742   0.682  15.014  0.1449 -0.3472  1.0133
15192TIP3   OH267066   5.895   4.388  17.115 -0.0317 -0.2897 -0.1752
15192TIP3    H167067   5.970   4.343  17.077 -0.4755 -2.4200  1.3155
15192TIP3    H267068   5.873   4.338  17.193 -2.5626  0.6882 -0.1466
15193TIP3   OH267069   3.090   0.366  13.775 -0.5404 -0.0415 -0.7195
15193TIP3    H167070   3.024   0.425  13.738 -0.8324 -1.2377 -2.2113
15193TIP3    H267071   3.052   0.337  13.858 -0.8162  1.0733 -0.4312
15194TIP3   OH267072   5.570   2.103   3.578  0.0629 -0.4366 -0.2233
15194TIP3    H167073   5.582   2.056   3.661  2.6470 -0.8720 -0.7758
15194TIP3    H267074   5.589   2.194   3.600 -0.9773 -0.2467 -0.0203
15195TIP3   OH267075   1.331   3.353   3.451 -0.4458 -0.3791 -0.7731
15195TIP3    H167076   1.410   3.322   3.495  0.1762 -0.5801 -1.9851
15195TIP3    H267077   1.352   3.442   3.424 -0.8479 -0.2304 -0.5951
15196TIP3   OH267078   4.458   5.616   4.477  0.0493 -0.6178  0.1098
15196TIP3    H167079   4.397   5.635   4.406 -0.5764  1.5585  1.1679
15196TIP3    H267080   4.542   5.651   4.447 -0.0662 -0.2956  0.1586
15197TIP3   OH267081   0.773   4.617  12.658 -0.1521 -0.4463  0.2133
15197TIP3    H167082   0.841   4.681  12.677  1.5734 -1.5642 -1.8115
15197TIP3    H267083   0.714   4.661  12.598  0.1689 -0.2604  0.0324
15198TIP3   OH267084   5.377   3.026  13.598  0.8216 -0.6189  0.1375
15198TIP3    H167085   5.419   2.979  13.526  0.2640 -4.7948  2.2182
15198TIP3    H267086   5.440   3.022  13.670 -0.7560 -1.8515  1.5556
15199TIP3   OH267087   2.566   4.110   4.479  0.0253  0.0586  0.3607
15199TIP3    H167088   2.601   4.190   4.517  0.4399 -0.9783  2.2837
15199TIP3    H267089   2.586   4.118   4.385  0.5240  1.9401  0.5825
15200TIP3   OH267090   1.156   6.389  17.247 -0.6409 -0.6571 -0.7593
15200TIP3    H167091   1.195   6.469  17.282 -1.0547 -0.2291 -1.2666
15200TIP3    H267092   1.172   6.323  17.314  0.5472 -0.3829 -0.7569
15201TIP3   OH267093   4.125   0.554   4.479  0.0604  0.3167 -0.0982
15201TIP3    H167094   4.193   0.608   4.519  1.9600  0.0306 -2.6934
15201TIP3    H267095   4.171   0.473   4.453 -1.8829 -1.0191  0.3902
15202TIP3   OH267096   3.655   2.432  14.818  0.1795  0.6735 -1.0455
15202TIP3    H167097   3.681   2.454  14.907  0.2175 -1.1580 -0.5670
15202TIP3    H267098   3.562   2.456  14.813 -0.1295 -0.2911 -0.1205
15203TIP3   OH267099   3.485   2.609  10.653  0.0610  0.5890  0.2757
15203TIP3    H167100   3.547   2.548  10.693 -0.6872 -1.4185 -1.4832
15203TIP3    H267101   3.441   2.558  10.586  0.2986  3.4054 -2.2087
15204TIP3   OH267102   6.566   5.615  14.247 -0.1603  0.0595 -0.1342
15204TIP3    H167103   6.542   5.586  14.159 -0.4508 -0.1813  0.0233
15204TIP3    H267104   6.659   5.593  14.255  0.0123  0.6033 -0.5904
15205TIP3   OH267105   6.664   1.984   4.798 -0.2357 -0.2666  0.1116
15205TIP3    H167106   6.582   2.006   4.844 -0.3809 -1.0880  0.2675
15205TIP3    H267107   6.638   1.976   4.706 -0.3746 -0.7014  0.1845
15206TIP3   OH267108   4.556   1.668  11.271 -0.5669 -0.5449 -0.1143
15206TIP3    H167109   4.487   1.603  11.260 -0.8856 -0.0237 -1.2913
15206TIP3    H267110   4.537   1.735  11.206  0.4117  0.1696  0.3080
15207TIP3   OH267111   5.155   3.778  13.646  0.1919 -0.4204  0.0112
15207TIP3    H167112   5.221   3.846  13.663 -1.0462  0.3569  1.9118
15207TIP3    H267113   5.148   3.776  13.550  1.0143  1.3905 -0.1293
15208TIP3   OH267114   3.156   0.119  14.939  0.0471 -0.6914 -0.2820
15208TIP3    H167115   3.119   0.207  14.950  0.4978 -0.5071 -0.1839
15208TIP3    H267116   3.162   0.084  15.028 -0.3415 -0.9097 -0.3421
15209TIP3   OH267117   0.347   1.095   2.464 -0.3714 -0.2682  0.1559
15209TIP3    H167118   0.309   1.048   2.390  1.3096 -2.2550  0.4556
15209TIP3    H267119   0.395   1.029   2.512 -0.4650  1.2021  2.4241
15210TIP3   OH267120   1.028   0.199  15.926  0.5494  0.8592 -0.4106
15210TIP3    H167121   1.003   0.292  15.923 -1.5809  0.6184  3.5335
15210TIP3    H267122   0.975   0.158  15.857 -0.5301  2.2117 -0.4393
15211TIP3   OH267123   3.404   1.622  14.073  0.1672 -0.1067  0.7622
15211TIP3    H167124   3.425   1.547  14.130  0.8335 -0.5527 -0.0543
15211TIP3    H267125   3.442   1.697  14.118 -0.9618 -0.1553  1.8586
15212TIP3   OH267126   1.417   3.994   0.143 -0.0384  0.4341 -0.1042
15212TIP3    H167127   1.395   3.947   0.062  2.3449 -0.4241 -0.3424
15212TIP3    H267128   1.383   3.938   0.213  0.9733 -0.6449 -0.4493
15213TIP3   OH267129   0.559   5.599   3.377 -0.0476  0.0315 -0.2981
15213TIP3    H167130   0.605   5.635   3.453 -0.3016 -0.8084  0.2657
15213TIP3    H267131   0.627   5.554   3.327  0.5190  2.2476 -1.6550
15214TIP3   OH267132   1.702   6.436  13.985 -0.0158  0.4566  0.1834
15214TIP3    H167133   1.629   6.376  14.000  0.6877 -0.7123 -0.8977
15214TIP3    H267134   1.722   6.427  13.892  1.1320  1.2014  0.3370
15215TIP3   OH267135   5.269   5.229  11.182  0.2311 -0.3700 -0.1434
15215TIP3    H167136   5.223   5.174  11.118  0.6974  0.5087 -1.2786
15215TIP3    H267137   5.362   5.222  11.157  0.4443 -0.1597  0.5636
15216TIP3   OH267138   3.213   4.222  11.878 -0.4873  0.5246 -0.1464
15216TIP3    H167139   3.126   4.216  11.840 -0.6405 -0.4056  0.3094
15216TIP3    H267140   3.273   4.210  11.805 -0.7170 -5.3612  0.1294
15217TIP3   OH267141   0.033   5.311   0.600  0.7028 -0.0231  0.8946
15217TIP3    H167142   0.024   5.243   0.666 -2.4858  1.0704  1.8038
15217TIP3    H267143   0.022   5.266   0.517  2.0756 -1.0343  1.2302
15218TIP3   OH267144   1.097   4.850  14.269  0.1310 -0.2383 -0.2010
15218TIP3    H167145   1.013   4.868  14.227  0.2077 -0.5293 -0.4806
15218TIP3    H267146   1.160   4.902  14.220  0.2447 -0.6993 -0.5593
15219TIP3   OH267147   1.566   5.343   2.940 -0.1731  0.3478 -0.1221
15219TIP3    H167148   1.472   5.337   2.925 -0.1817  0.2758 -0.0405
15219TIP3    H267149   1.603   5.269   2.893 -0.3691 -0.9536  1.6725
15220TIP3   OH267150   1.123   0.521   4.336  0.0149 -0.0602 -0.4347
15220TIP3    H167151   1.156   0.599   4.291  0.7510 -0.8547 -1.3284
15220TIP3    H267152   1.031   0.540   4.354 -0.2348  0.4200 -2.0545
15221TIP3   OH267153   4.569   1.593   3.311  0.0042  0.6447  0.1171
15221TIP3    H167154   4.502   1.578   3.244 -0.4483  0.1204  0.6725
15221TIP3    H267155   4.643   1.540   3.284  0.2839  1.3719 -0.6023
15222TIP3   OH267156   5.756   1.552   5.071 -0.4732  0.5296 -0.6790
15222TIP3    H167157   5.686   1.608   5.037 -0.3569  0.7575 -0.5431
15222TIP3    H267158   5.776   1.493   4.998 -3.2489 -1.9847  0.3544
15223TIP3   OH267159   2.135   1.823  16.526  0.3613  0.1694 -0.9519
15223TIP3    H167160   2.134   1.914  16.555  3.1048 -0.0114 -0.0707
15223TIP3    H267161   2.182   1.825  16.442 -0.6365 -0.3215 -1.5476
15224TIP3   OH267162   2.170   1.418   1.569  0.1639 -0.4128  0.5753
15224TIP3    H167163   2.127   1.334   1.582 -0.7619 -0.1094 -0.4220
15224TIP3    H267164   2.125   1.458   1.495  0.7056  0.8906  0.9060
15225TIP3   OH267165   2.313   2.161  11.286 -0.1094  0.0659 -0.0990
15225TIP3    H167166   2.220   2.180  11.277 -0.2675 -1.3709 -1.9369
15225TIP3    H267167   2.325   2.078  11.241  2.0108  0.0150  0.4647
15226TIP3   OH267168   6.782   1.927   0.357  0.2451  0.2506  0.1770
15226TIP3    H167169   6.847   1.856   0.360 -0.2667 -0.3572 -1.8436
15226TIP3    H267170   6.703   1.888   0.394 -0.4122 -0.7371 -2.0976
15227TIP3   OH267171   5.201   3.996   1.800 -0.0481 -0.2725  0.5199
15227TIP3    H167172   5.153   3.992   1.883 -0.7700 -3.0353  0.0465
15227TIP3    H267173   5.287   3.957   1.820  0.0749 -0.1971  0.1468
15228TIP3   OH267174   1.817   4.148   2.682 -0.4135  0.6902  0.1585
15228TIP3    H167175   1.800   4.090   2.756  0.7638  0.0296 -0.0617
15228TIP3    H267176   1.903   4.122   2.651 -0.2233  2.0046 -0.4837
15229TIP3   OH267177   3.216   5.190   3.401  0.0427  0.1605  0.2201
15229TIP3    H167178   3.149   5.237   3.352 -0.4635 -0.2771  0.4774
15229TIP3    H267179   3.188   5.098   3.397  0.7765 -0.0646  0.0904
15230TIP3   OH267180   5.195   3.848  14.465  0.2868  0.3309  0.1386
15230TIP3    H167181   5.108   3.855  14.504  1.1539  0.7719  2.1349
15230TIP3    H267182   5.239   3.781  14.516  1.4271  0.7667 -0.2362
15231TIP3   OH267183   3.229   3.299   1.012  0.1458  0.1194 -0.1537
15231TIP3    H167184   3.256   3.207   1.005 -3.2977 -0.9376 -1.5112
15231TIP3    H267185   3.272   3.331   1.091 -0.0510 -3.2375  1.4709
15232TIP3   OH267186   4.869   4.049  16.053  0.1805 -0.1597  1.1635
15232TIP3    H167187   4.889   4.142  16.041  0.3771 -0.2077  1.1217
15232TIP3    H267188   4.937   4.003  16.004 -0.4356 -0.3146  0.4411
15233TIP3   OH267189   6.770   4.504  13.353 -0.0301  1.2129  0.2653
15233TIP3    H167190   6.740   4.593  13.333 -0.1205  0.5438 -3.1397
15233TIP3    H267191   6.694   4.462  13.394 -0.5324  2.2436  0.4315
15234TIP3   OH267192   0.629   2.231  15.528 -0.1821 -0.4858 -0.4897
15234TIP3    H167193   0.709   2.260  15.573 -0.0656  1.3821 -1.7621
15234TIP3    H267194   0.659   2.162  15.470  0.6147  0.4119 -1.1901
15235TIP3   OH267195   0.554   6.133   3.501 -0.2608 -0.7033 -0.0240
15235TIP3    H167196   0.591   6.109   3.586 -0.0335 -0.3657 -0.0234
15235TIP3    H267197   0.475   6.182   3.522  0.2472  0.1234  0.0213
15236TIP3   OH267198   4.399   6.707  13.649  0.1587 -0.3525 -0.4999
15236TIP3    H167199   4.448   6.777  13.605 -0.4374 -1.1777 -2.5794
15236TIP3    H267200   4.307   6.730  13.634 -0.1812  0.7154  2.6124
15237TIP3   OH267201   5.153   0.671  10.663  0.3034 -0.1873 -0.0745
15237TIP3    H167202   5.156   0.760  10.698  0.6304 -0.3562  0.3373
15237TIP3    H267203   5.222   0.669  10.597 -0.2525  0.1038 -0.6832
15238TIP3   OH267204   6.186   5.781  12.430 -0.7521 -0.1094  0.0671
15238TIP3    H167205   6.116   5.832  12.388 -0.3355  0.5780  0.1830
15238TIP3    H267206   6.267   5.826  12.405 -0.1327 -2.0685 -1.7623
15239TIP3   OH267207   1.226   2.225  12.034  0.1031  0.1043 -0.1115
15239TIP3    H167208   1.186   2.308  12.008  1.3313  0.6404 -0.3472
15239TIP3    H267209   1.160   2.183  12.089 -2.4957 -0.8898 -3.6034
15240TIP3   OH267210   2.392   5.623   2.223  0.1084  0.4673 -0.1123
15240TIP3    H167211   2.467   5.684   2.222 -0.2625  0.9317 -0.7070
15240TIP3    H267212   2.414   5.557   2.157 -0.8063  1.6357 -1.6571
15241TIP3   OH267213   0.014   3.054   0.903  0.1129  0.5028 -0.0472
15241TIP3    H167214  -0.052   3.122   0.888 -0.9049 -0.5047 -0.2982
15241TIP3    H267215  -0.035   2.972   0.896  1.6395 -0.3399 -1.5812
15242TIP3   OH267216   5.977   1.480  14.260 -0.4142  0.3835 -0.5173
15242TIP3    H167217   6.020   1.564  14.246  1.5724 -0.5859 -0.6330
15242TIP3    H267218   6.021   1.421  14.198  0.4680 -1.4259  1.6833
15243TIP3   OH267219   0.483   0.985  10.959 -0.1884  0.5415 -0.1509
15243TIP3    H167220   0.576   1.001  10.972 -0.4057  2.2035 -0.4571
15243TIP3    H267221   0.451   1.062  10.912 -1.8503  0.3347  0.5428
15244TIP3   OH267222   5.068   6.679  12.085 -0.2793 -0.1534 -0.3766
15244TIP3    H167223   5.137   6.614  12.072  0.6851  0.7885 -0.1249
15244TIP3    H267224   5.033   6.695  11.997 -0.3802 -0.8265 -0.4708
15245TIP3   OH267225   1.926   0.094  16.770 -0.3222  0.3305  0.5890
15245TIP3    H167226   2.009   0.135  16.793 -0.4393  1.2625 -0.5461
15245TIP3    H267227   1.887   0.154  16.707 -1.8484 -0.1090  1.0763
15246TIP3   OH267228   5.725   3.197  11.951 -0.2298  0.0258  0.3096
15246TIP3    H167229   5.791   3.265  11.966 -0.8635  0.2077  2.7283
15246TIP3    H267230   5.775   3.122  11.919  0.6776  1.1223 -0.9807
15247TIP3   OH267231   2.900   1.717   1.092 -0.5010  0.2688  0.2051
15247TIP3    H167232   2.840   1.675   1.153 -0.3766  1.1395  0.9473
15247TIP3    H267233   2.872   1.686   1.006 -1.1459 -0.3975  0.6413
15248TIP3   OH267234   1.361   6.587   1.832 -0.6077 -0.0139 -0.2089
15248TIP3    H167235   1.368   6.492   1.836  2.2437  0.0526 -1.2184
15248TIP3    H267236   1.292   6.603   1.768 -0.5206 -1.4256 -0.6912
15249TIP3   OH267237   0.939   4.762   4.068  0.1241  0.7107 -0.1682
15249TIP3    H167238   0.986   4.698   4.014  0.2567 -0.0152  0.7931
15249TIP3    H267239   0.996   4.839   4.067  0.6534  0.3282 -0.1806
15250TIP3   OH267240   0.559   0.486  12.325 -0.5750  0.1113 -0.4469
15250TIP3    H167241   0.611   0.451  12.397  1.3151  0.7351 -1.4511
15250TIP3    H267242   0.506   0.555  12.366  0.9716  0.9442  0.2780
15251TIP3   OH267243   5.368   4.898   0.280 -0.1321 -0.5619 -0.3286
15251TIP3    H167244   5.389   4.953   0.204  0.0078 -1.1596 -0.7344
15251TIP3    H267245   5.300   4.839   0.247  0.8384 -1.6755 -0.3750
15252TIP3   OH267246   3.333   5.050  11.754 -0.4649  0.2627  0.2649
15252TIP3    H167247   3.345   4.960  11.726 -2.3686  0.3346 -0.9354
15252TIP3    H267248   3.296   5.043  11.842 -1.9246 -0.2166 -0.3488
15253TIP3   OH267249   2.779   1.211   5.564 -0.4503  0.0212  0.3576
15253TIP3    H167250   2.854   1.226   5.621  1.3114 -0.8387 -1.5883
15253TIP3    H267251   2.745   1.299   5.547  0.1587  0.4438  1.2199
15254TIP3   OH267252   5.638   6.393  12.592 -0.2982 -0.2971  0.1648
15254TIP3    H167253   5.654   6.407  12.499 -0.3707  1.1530  0.3556
15254TIP3    H267254   5.555   6.346  12.595 -1.8191  2.1915 -0.4424
15255TIP3   OH267255   4.028   0.848   3.553  0.2671  0.3726  0.6367
15255TIP3    H167256   4.103   0.803   3.515  1.2574  1.5690  1.1232
15255TIP3    H267257   4.043   0.941   3.534 -1.5457  0.5668 -0.0394
15256TIP3   OH267258   5.550   6.560  15.528 -0.0947 -0.5643 -0.1629
15256TIP3    H167259   5.496   6.602  15.595 -0.1534 -1.7198  0.5419
15256TIP3    H267260   5.634   6.606  15.533 -0.9933  1.2881 -1.3158
15257TIP3   OH267261   5.585   4.122   1.740  0.2837  0.2509  0.2968
15257TIP3    H167262   5.665   4.109   1.790  0.7815 -1.0287 -0.7482
15257TIP3    H267263   5.577   4.217   1.730  0.1785  0.5549  2.6969
15258TIP3   OH267264   5.639   2.545  14.853 -0.1198  0.0554  0.0818
15258TIP3    H167265   5.613   2.549  14.761 -0.6440  1.9759  0.2504
15258TIP3    H267266   5.594   2.620  14.893  1.1902  0.0710  1.6105
15259TIP3   OH267267   6.199   4.268  16.604 -0.3792  0.2539  0.0369
15259TIP3    H167268   6.137   4.298  16.537  0.3769  0.9376 -0.3811
15259TIP3    H267269   6.235   4.349  16.641 -0.2127 -0.1300  0.7232
15260TIP3   OH267270   0.245   2.969  15.011  0.6017  0.0783 -0.1980
15260TIP3    H167271   0.322   3.013  14.975  1.1471 -0.2815  0.4851
15260TIP3    H267272   0.193   3.038  15.050  1.0453  0.2230  0.1483
15261TIP3   OH267273   0.176   2.409   2.945  0.4479 -0.0505 -0.0412
15261TIP3    H167274   0.220   2.494   2.946 -0.9690  0.7136  0.5771
15261TIP3    H267275   0.185   2.376   3.034  2.0617 -1.1557 -0.5819
15262TIP3   OH267276   3.807   2.285   1.254 -0.5045 -0.2696  0.0495
15262TIP3    H167277   3.895   2.281   1.292 -0.7815  1.6024  0.9948
15262TIP3    H267278   3.748   2.283   1.328 -1.3707 -2.4930 -0.6230
15263TIP3   OH267279   5.230   1.293  15.124 -0.0239  0.4281 -0.1973
15263TIP3    H167280   5.285   1.322  15.197  0.3494 -0.1768 -0.2293
15263TIP3    H267281   5.179   1.221  15.161 -0.6587  0.8602 -0.2240
15264TIP3   OH267282   5.671   6.679  13.176  0.0182 -0.7868 -0.5388
15264TIP3    H167283   5.733   6.741  13.214 -0.5314 -0.6171  0.0803
15264TIP3    H267284   5.586   6.721  13.185 -0.4531 -1.9227  0.5341
15265TIP3   OH267285   4.905   0.663   3.069  0.1784 -0.2558 -0.1183
15265TIP3    H167286   4.892   0.631   3.158  0.0506  1.0308  0.3605
15265TIP3    H267287   4.947   0.591   3.022  0.2946 -0.9303  1.0015
15266TIP3   OH267288   2.334   5.278  10.932  0.1726  0.0887 -0.4143
15266TIP3    H167289   2.268   5.227  10.980 -0.4753  0.5433 -0.7906
15266TIP3    H267290   2.296   5.366  10.928  0.1915  0.0436 -1.8102
15267TIP3   OH267291   4.422   2.277  14.871  0.0367  0.0149  0.4594
15267TIP3    H167292   4.369   2.330  14.812  2.0824 -0.3670 -1.9265
15267TIP3    H267293   4.433   2.331  14.949 -2.6235  0.6422  0.4988
15268TIP3   OH267294   4.078   3.004   1.917 -0.3705 -0.1877  0.1744
15268TIP3    H167295   4.010   2.993   1.984 -0.3674  0.7427  0.3407
15268TIP3    H267296   4.102   3.097   1.922  1.6488 -0.6947  0.8279
15269TIP3   OH267297   6.274   2.532   3.115  0.1675 -0.3821 -0.2642
15269TIP3    H167298   6.200   2.594   3.113  1.4892  1.2619 -0.2704
15269TIP3    H267299   6.284   2.504   3.024  0.1611  0.1396 -0.4263
15270TIP3   OH267300   0.537   2.113   0.991 -0.1001  0.3319 -0.5909
15270TIP3    H167301   0.557   2.025   0.960 -0.4311  0.3757 -0.9456
15270TIP3    H267302   0.480   2.150   0.923 -1.3213  0.2257  0.3274
15271TIP3   OH267303   4.801   2.481  16.287 -0.3375 -0.1175  0.3257
15271TIP3    H167304   4.893   2.500  16.303 -0.4260  0.2420  0.4242
15271TIP3    H267305   4.756   2.564  16.304 -0.6384 -0.1996 -0.0461
15272TIP3   OH267306   1.131   5.653  13.329  0.2074 -0.2322 -0.6865
15272TIP3    H167307   1.055   5.662  13.272  0.0933 -0.9709 -0.6568
15272TIP3    H267308   1.099   5.674  13.417  0.3311  0.6788 -0.8477
15273TIP3   OH267309   1.523   2.300   4.104 -0.0568  0.0167  0.3933
15273TIP3    H167310   1.506   2.317   4.197  1.6428 -0.9227  0.9223
15273TIP3    H267311   1.493   2.210   4.090  1.1429 -0.4133  0.4677
15274TIP3   OH267312   1.741   2.330   5.741 -0.0298  0.3881 -0.0584
15274TIP3    H167313   1.783   2.278   5.809 -0.4560 -0.6171 -0.5359
15274TIP3    H267314   1.685   2.268   5.695  1.1852  0.7148 -2.1407
15275TIP3   OH267315   0.259   5.262   5.912 -0.5502 -0.2563 -0.6476
15275TIP3    H167316   0.339   5.217   5.940 -0.7754 -1.1954 -1.4635
15275TIP3    H267317   0.232   5.313   5.988 -1.0535 -2.5872  0.8488
15276TIP3   OH267318   2.173   2.132   4.139  0.0558 -0.4152 -0.1051
15276TIP3    H167319   2.246   2.150   4.080  0.8120  0.3264  1.0097
15276TIP3    H267320   2.196   2.050   4.182  0.2080 -0.2188  0.1933
15277TIP3   OH267321   6.075   0.542  16.631  0.0035 -0.3129 -0.5348
15277TIP3    H167322   6.148   0.572  16.577  1.4077 -2.1930  0.1948
15277TIP3    H267323   6.115   0.478  16.691 -1.6114  1.1043  2.2249
15278TIP3   OH267324   4.632   4.691   5.341 -0.6103 -0.4543 -0.3005
15278TIP3    H167325   4.583   4.708   5.262  0.9172 -0.7240 -1.3518
15278TIP3    H267326   4.638   4.596   5.346 -0.0191 -0.4222 -0.3127
15279TIP3   OH267327   0.667   4.664   4.010 -0.2988 -0.2467 -0.3840
15279TIP3    H167328   0.711   4.734   3.962 -0.6324  0.9584  1.0159
15279TIP3    H267329   0.735   4.628   4.068  0.2395 -2.0279 -2.0130
15280TIP3   OH267330   1.550   5.835  15.862 -0.4160  0.9704 -0.0843
15280TIP3    H167331   1.594   5.877  15.936  2.9963 -0.7241 -0.9377
15280TIP3    H267332   1.560   5.741  15.880 -1.8820  0.5257 -1.4306
15281TIP3   OH267333   4.093   3.545   3.887  0.1292  0.3388  0.1870
15281TIP3    H167334   4.165   3.605   3.904  0.5525 -0.2645  0.5702
15281TIP3    H267335   4.046   3.584   3.814 -0.7669  2.1476  1.6533
15282TIP3   OH267336   1.427   1.415  10.306 -0.3062  0.1731 -0.0151
15282TIP3    H167337   1.496   1.451  10.362  0.9346  0.6747 -1.7440
15282TIP3    H267338   1.366   1.487  10.292  0.1084  0.4637 -0.3628
15283TIP3   OH267339   0.742   3.739   2.265  0.5672 -0.1207  0.0136
15283TIP3    H167340   0.739   3.806   2.196  1.2832 -0.6590 -0.5503
15283TIP3    H267341   0.810   3.769   2.324 -0.4425  0.6458  0.8329
15284TIP3   OH267342   2.963   6.808   2.561 -0.0569  0.1236  0.0615
15284TIP3    H167343   2.902   6.855   2.618  0.5820  1.9164 -0.6884
15284TIP3    H267344   2.918   6.804   2.477  0.7084  1.2078 -0.4204
15285TIP3   OH267345   6.629   3.220   0.845  0.5340 -0.7816 -0.0201
15285TIP3    H167346   6.587   3.246   0.927  0.4895 -0.5743 -0.1074
15285TIP3    H267347   6.645   3.303   0.799 -2.1647 -1.0107 -1.5710
15286TIP3   OH267348   4.476   1.645  16.099  0.2865 -0.0837 -0.0907
15286TIP3    H167349   4.460   1.729  16.141  1.0889 -0.0696  0.2031
15286TIP3    H267350   4.466   1.581  16.170  2.0930 -0.0235  0.2662
15287TIP3   OH267351   0.934   3.363  13.554 -0.0040 -0.8488  0.0276
15287TIP3    H167352   0.924   3.291  13.492 -2.2441 -1.4426  0.9930
15287TIP3    H267353   0.891   3.437  13.512  0.6900 -0.5542 -0.1770
15288TIP3   OH267354   3.993   4.108   3.886 -0.3533 -0.7881  0.2744
15288TIP3    H167355   3.961   4.198   3.880 -0.7660 -0.9785 -0.5192
15288TIP3    H267356   4.021   4.087   3.797 -2.3421 -2.2023 -0.0883
15289TIP3   OH267357   5.926   4.920   2.026 -0.2620  0.3105 -0.3986
15289TIP3    H167358   5.911   4.993   2.086  0.5074  0.5979 -0.5372
15289TIP3    H267359   5.928   4.843   2.082  0.3079  0.5600 -0.0574
15290TIP3   OH267360   2.379   5.505   3.755 -0.1937 -0.1560 -0.0137
15290TIP3    H167361   2.413   5.481   3.841 -1.7523 -0.1429  0.6415
15290TIP3    H267362   2.450   5.555   3.714  0.8327 -0.7673  0.9730
15291TIP3   OH267363   3.599   3.334  13.997  0.1382 -0.4858 -0.2080
15291TIP3    H167364   3.545   3.383  14.058  1.1237 -0.3947  0.6074
15291TIP3    H267365   3.648   3.400  13.948 -0.7635 -0.5473 -1.2475
15292TIP3   OH267366   1.692   0.440  14.029 -0.5531  0.2387  0.1060
15292TIP3    H167367   1.688   0.454  13.935 -0.2196 -0.4910 -0.0306
15292TIP3    H267368   1.740   0.515  14.063 -2.3705  1.5208 -0.0411
15293TIP3   OH267369   2.098   0.108   2.494 -0.4078 -0.1621 -0.3787
15293TIP3    H167370   2.053   0.115   2.410  0.3448  1.2140 -0.7006
15293TIP3    H267371   2.189   0.133   2.475 -0.7047  2.5443  1.1962
15294TIP3   OH267372   0.937   5.926   5.430  0.4975  0.3243 -0.0619
15294TIP3    H167373   0.993   5.999   5.403  0.3547  0.9621  1.3077
15294TIP3    H267374   0.943   5.864   5.357  1.5301  1.1839 -0.7482
15295TIP3   OH267375   0.132   2.468  13.283  0.6274  0.4840 -0.0405
15295TIP3    H167376   0.107   2.390  13.333 -0.5076 -0.2308 -1.6631
15295TIP3    H267377   0.052   2.519  13.276  0.7256  0.5031 -1.2311
15296TIP3   OH267378   0.660   2.772  11.888 -0.4720 -0.0904 -0.6924
15296TIP3    H167379   0.697   2.838  11.946 -1.0349  0.6239 -1.1299
15296TIP3    H267380   0.620   2.707  11.946  0.5950 -0.3674 -0.2430
15297TIP3   OH267381   3.653   1.513   2.912 -0.1557  0.5178 -0.4541
15297TIP3    H167382   3.675   1.596   2.953 -1.9432  0.7687  0.0392
15297TIP3    H267383   3.710   1.509   2.835 -0.4210  2.4509 -0.7850
15298TIP3   OH267384   3.681   5.259  11.332 -0.1586  0.5667 -0.2644
15298TIP3    H167385   3.759   5.231  11.284 -0.9382  0.5510 -1.5647
15298TIP3    H267386   3.672   5.352  11.311  1.7376  1.6394  3.0755
15299TIP3   OH267387   0.305   4.003  16.534  0.0996 -0.1301 -0.5664
15299TIP3    H167388   0.312   3.907  16.533 -1.5333 -0.3346  1.3969
15299TIP3    H267389   0.221   4.021  16.492 -0.2792  0.3017  0.3370
15300TIP3   OH267390   3.999   4.596   0.605 -0.1985 -0.8991  0.2544
15300TIP3    H167391   4.062   4.668   0.596  0.1952 -1.2923 -0.1542
15300TIP3    H267392   4.045   4.519   0.572 -0.5891 -1.3592  0.7637
15301TIP3   OH267393   4.081   1.695   1.450 -0.1407 -0.0632 -0.1617
15301TIP3    H167394   4.011   1.662   1.506  0.5683 -0.3472  0.5714
15301TIP3    H267395   4.054   1.670   1.361  0.0350 -2.0376  0.2926
15302TIP3   OH267396   1.561   0.245   4.412  0.0311  0.7251 -0.4869
15302TIP3    H167397   1.482   0.265   4.361 -0.3060 -0.6315 -0.5405
15302TIP3    H267398   1.609   0.327   4.415 -1.6565  1.7468  0.0415
15303TIP3   OH267399   5.331   0.943   5.391 -0.4165 -0.0647 -0.0352
15303TIP3    H167400   5.418   0.956   5.353  0.1600 -1.5160  0.7232
15303TIP3    H267401   5.298   0.864   5.348  0.2338 -1.7261  2.3253
15304TIP3   OH267402   4.768   2.715   1.615 -0.3249 -0.2080 -0.0729
15304TIP3    H167403   4.766   2.620   1.623  1.0945 -0.4110 -1.6186
15304TIP3    H267404   4.809   2.745   1.696 -3.5676 -0.5930  1.8970
15305TIP3   OH267405   0.428   0.826  16.558 -0.4247  0.1441 -0.2693
15305TIP3    H167406   0.405   0.750  16.613  0.6959  0.4771  0.7111
15305TIP3    H267407   0.421   0.901  16.617  1.4716  0.4357 -0.3772
15306TIP3   OH267408   1.279   0.495   5.119 -0.7020 -0.2008  0.1377
15306TIP3    H167409   1.283   0.402   5.095  0.0078 -1.2642  3.7013
15306TIP3    H267410   1.251   0.494   5.211 -0.0251  3.0933  0.4871
15307TIP3   OH267411   5.879   4.877  16.882 -0.1125  0.4395  0.2616
15307TIP3    H167412   5.911   4.809  16.941 -0.6636  0.9144  1.1344
15307TIP3    H267413   5.783   4.867  16.885 -0.1297  0.2127 -0.8704
15308TIP3   OH267414   4.377   0.146   0.862  0.0787 -0.5195 -0.3394
15308TIP3    H167415   4.328   0.143   0.944 -1.4123 -4.8280 -1.1597
15308TIP3    H267416   4.310   0.143   0.794  1.3705  0.6898 -1.7526
15309TIP3   OH267417   6.155   5.011  16.453  0.4187  0.0902 -0.2669
15309TIP3    H167418   6.097   5.061  16.510  0.0319  0.4840 -0.9834
15309TIP3    H267419   6.233   5.065  16.443  1.9069 -1.3740  2.4313
15310TIP3   OH267420   6.081   6.510   1.473  0.1848 -0.1042  0.3532
15310TIP3    H167421   6.056   6.557   1.553 -0.1514 -0.1337  0.2674
15310TIP3    H267422   6.052   6.567   1.402  0.7871  0.0805  0.2494
15311TIP3   OH267423   5.266   5.203   1.842 -0.2150  0.7363  0.2934
15311TIP3    H167424   5.308   5.181   1.926  0.6122  0.3722 -0.2006
15311TIP3    H267425   5.315   5.152   1.777 -0.5294  1.3976 -0.4754
15312TIP3   OH267426   3.744   4.496   3.368 -0.1762 -0.0710 -0.0747
15312TIP3    H167427   3.769   4.524   3.280  0.8271  2.7908  1.0196
15312TIP3    H267428   3.691   4.568   3.402  1.2725 -0.0952  2.4226
15313TIP3   OH267429   4.286   0.425  11.715  0.3333  0.3433  0.3702
15313TIP3    H167430   4.367   0.386  11.748  1.4790  1.3138 -1.2092
15313TIP3    H267431   4.267   0.377  11.635 -1.4211 -0.7505  1.3622
15314TIP3   OH267432   5.999   5.562   5.669 -0.3427 -0.6047  0.2127
15314TIP3    H167433   5.991   5.656   5.653 -0.1039 -0.7749 -1.0073
15314TIP3    H267434   6.047   5.556   5.751  4.1724  0.4097 -2.0294
15315TIP3   OH267435   5.267   2.344   2.923  0.6780  0.3884  0.1493
15315TIP3    H167436   5.230   2.426   2.955 -0.1838 -0.3038  1.0240
15315TIP3    H267437   5.252   2.345   2.829 -0.5771  0.6395  0.3369
15316TIP3   OH267438   6.255   1.859   3.313  0.0355 -0.4707 -0.2097
15316TIP3    H167439   6.243   1.935   3.256  0.6233  0.5045  0.9221
15316TIP3    H267440   6.268   1.896   3.400  1.9216 -1.7769  0.1285
15317TIP3   OH267441   5.326   1.839  11.810  0.8619 -0.6472 -0.2790
15317TIP3    H167442   5.262   1.887  11.758 -1.4728 -1.9013  1.2645
15317TIP3    H267443   5.342   1.758  11.762 -0.9509 -1.6038  0.6424
15318TIP3   OH267444   1.077   0.045  14.835  0.1188 -0.3049 -0.0976
15318TIP3    H167445   1.051   0.034  14.743  0.9039  0.4635 -0.4363
15318TIP3    H267446   1.030  -0.023  14.882  0.8532 -1.7060 -1.2879
15319TIP3   OH267447   5.280   1.419  14.606  0.6862  0.3773  0.2838
15319TIP3    H167448   5.286   1.501  14.654  0.8880 -0.5669  1.9709
15319TIP3    H267449   5.294   1.351  14.673 -1.7615 -1.1243 -0.5811
15320TIP3   OH267450   1.312   4.445   4.802 -0.6665 -0.8692  0.1676
15320TIP3    H167451   1.235   4.388   4.804 -1.1497 -0.4641 -2.8926
15320TIP3    H267452   1.278   4.531   4.831 -0.8586 -1.1495  0.8086
15321TIP3   OH267453   6.466   5.145  11.596  0.7021 -0.6738 -0.3653
15321TIP3    H167454   6.411   5.107  11.527  0.2587 -0.9664  0.1425
15321TIP3    H267455   6.556   5.134  11.563  0.4419  0.4048 -1.4970
15322TIP3   OH267456   3.875   1.189   3.885 -0.8856  0.1291  0.1216
15322TIP3    H167457   3.916   1.176   3.970 -1.3692 -1.4312  0.1451
15322TIP3    H267458   3.804   1.251   3.902 -1.7922 -1.1198  1.1611
15323TIP3   OH267459   5.188   2.148   3.597 -0.4595  0.2618  0.1106
15323TIP3    H167460   5.231   2.228   3.565 -0.2067  0.0261 -0.1429
15323TIP3    H267461   5.229   2.131   3.682 -2.2003  1.7526  1.3262
15324TIP3   OH267462   6.470   5.873   4.621  0.1417  0.0633 -0.0253
15324TIP3    H167463   6.467   5.873   4.525 -0.9032  0.9413 -0.0049
15324TIP3    H267464   6.387   5.912   4.648  1.0159  1.1566  1.2159
15325TIP3   OH267465   2.147   3.047   6.520 -0.0604 -0.6081 -0.0488
15325TIP3    H167466   2.101   3.000   6.590 -0.8331  0.5124  0.2308
15325TIP3    H267467   2.192   3.119   6.565 -0.4029  0.0039 -0.6612
15326TIP3   OH267468   0.646   5.346   4.027  0.1346 -0.6448 -0.3731
15326TIP3    H167469   0.680   5.406   3.960  2.4464 -1.6626 -0.2210
15326TIP3    H267470   0.556   5.329   4.001 -0.1993  1.9047 -1.0965
15327TIP3   OH267471   0.743   4.282  11.857 -0.4459  0.1724 -0.0027
15327TIP3    H167472   0.721   4.238  11.939  2.9168 -1.0985  0.3543
15327TIP3    H267473   0.738   4.375  11.878 -0.0325 -0.1255  1.5549
15328TIP3   OH267474   5.027   4.555   4.344  0.8582  0.4105  0.3594
15328TIP3    H167475   5.004   4.630   4.289 -0.8021 -0.5362 -0.3076
15328TIP3    H267476   4.980   4.569   4.426  1.0662  0.4043  0.4831
15329TIP3   OH267477   6.659   3.051   5.008  0.2673  0.1891  0.0438
15329TIP3    H167478   6.688   2.962   4.988  2.7786  0.8309  0.4705
15329TIP3    H267479   6.646   3.052   5.103 -2.4938 -0.3869 -0.2514
15330TIP3   OH267480   2.338   1.864  13.373  0.2966 -0.0478 -0.0732
15330TIP3    H167481   2.339   1.951  13.332  0.4546 -0.3587 -0.7334
15330TIP3    H267482   2.426   1.854  13.410  0.8626 -0.6293 -1.5123
15331TIP3   OH267483   3.106   2.648   1.619  0.4975  0.2050  0.2408
15331TIP3    H167484   3.111   2.703   1.542  1.0557 -0.0254  0.1012
15331TIP3    H267485   3.013   2.636   1.635  0.3751 -0.0629 -0.6228
15332TIP3   OH267486   6.226   4.580   6.216 -0.2751 -0.7416  0.4543
15332TIP3    H167487   6.242   4.499   6.264 -0.2614 -1.0867 -0.1250
15332TIP3    H267488   6.305   4.593   6.163  0.7749  0.9241  2.2940
15333TIP3   OH267489   6.794   6.630   5.331 -0.4341 -0.2502 -0.4650
15333TIP3    H167490   6.732   6.687   5.376 -0.4001  0.9003 -1.8150
15333TIP3    H267491   6.741   6.582   5.268 -0.1378 -0.1759 -0.7710
15334TIP3   OH267492   4.404   6.597  11.101  0.2585 -0.3564 -0.0402
15334TIP3    H167493   4.495   6.579  11.076  0.1784  0.2454 -0.7830
15334TIP3    H267494   4.353   6.582  11.021 -0.0923  0.8860 -0.0674
15335TIP3   OH267495   1.362   4.876  16.357  0.0746  0.6803 -0.7074
15335TIP3    H167496   1.295   4.944  16.364 -2.0526 -1.4765  1.0764
15335TIP3    H267497   1.318   4.801  16.319  1.2301 -1.0479  1.1587
15336TIP3   OH267498   3.613   4.028   2.377  0.0076  0.2703  0.7379
15336TIP3    H167499   3.696   4.008   2.421 -0.6915 -1.0415  1.5088
15336TIP3    H267500   3.557   3.953   2.395 -0.0448 -0.8671 -3.1988
15337TIP3   OH267501   1.698   5.632  13.324  0.0547  0.1719  0.4396
15337TIP3    H167502   1.784   5.671  13.338 -0.9297  2.0386  1.7666
15337TIP3    H267503   1.655   5.640  13.409 -1.3098 -1.0817 -0.0974
15338TIP3   OH267504   2.376   2.067  11.536  0.2573 -0.0474 -0.4664
15338TIP3    H167505   2.292   2.029  11.565  0.7381 -0.5440  0.3448
15338TIP3    H267506   2.358   2.103  11.450 -0.8057 -0.1142 -0.2874
15339TIP3   OH267507   4.391   5.981   1.854  0.5151  0.1903 -0.0833
15339TIP3    H167508   4.297   5.992   1.839  0.7697  1.0381 -1.2242
15339TIP3    H267509   4.420   5.924   1.783  0.8782  0.0257  0.1948
15340TIP3   OH267510   1.939   2.189  10.943 -0.2745  0.1465  0.1043
15340TIP3    H167511   1.922   2.276  10.907 -0.4679  1.2363  2.6109
15340TIP3    H267512   1.854   2.158  10.974 -0.5916 -1.8773 -2.4827
15341TIP3   OH267513   1.823   4.165  15.760  0.0186 -0.2572 -0.2701
15341TIP3    H167514   1.787   4.235  15.815  0.0575  0.2087 -0.8288
15341TIP3    H267515   1.763   4.159  15.686 -1.0372 -2.1037  0.6800
15342TIP3   OH267516   1.399   0.686   1.444 -0.3652 -0.2950 -0.6708
15342TIP3    H167517   1.307   0.677   1.421 -0.0930  0.7243 -2.3883
15342TIP3    H267518   1.444   0.696   1.359  1.0235  1.4226  0.1880
15343TIP3   OH267519   3.581   5.129   4.307 -0.9678 -0.1257  0.4446
15343TIP3    H167520   3.547   5.125   4.218 -0.0648 -1.1221  0.1381
15343TIP3    H267521   3.594   5.038   4.333  2.3140  0.1419  0.1883
15344TIP3   OH267522   0.125   4.669   2.359  0.0842 -0.1554 -0.2225
15344TIP3    H167523   0.038   4.643   2.330 -0.2605  0.4585  0.2331
15344TIP3    H267524   0.170   4.587   2.379 -0.2947 -0.4882 -0.7187
15345TIP3   OH267525   5.484   4.424   4.263  0.6963  0.0649  0.1135
15345TIP3    H167526   5.435   4.492   4.308  1.5652  0.8206 -0.0607
15345TIP3    H267527   5.489   4.352   4.326 -2.7786 -1.1001 -0.6999
15346TIP3   OH267528   1.641   5.568  15.944 -0.0381 -0.5218  0.2668
15346TIP3    H167529   1.620   5.478  15.921 -0.0180 -0.5672  0.4245
15346TIP3    H267530   1.725   5.562  15.990 -0.9455 -0.6556  2.0055
15347TIP3   OH267531   3.543   4.436  14.728  0.1480  0.3794  0.4571
15347TIP3    H167532   3.557   4.427  14.823  1.1638  0.3687  0.3241
15347TIP3    H267533   3.538   4.530  14.713 -1.8539  0.3470  0.7412
15348TIP3   OH267534   6.056   1.462   4.935  0.4437  0.7484 -0.1023
15348TIP3    H167535   6.075   1.486   5.026  0.3759  1.7583 -0.3465
15348TIP3    H267536   6.133   1.490   4.887 -0.1202  1.5304 -0.5651
15349TIP3   OH267537   2.491   4.867   4.788  0.5493 -0.6718  0.0427
15349TIP3    H167538   2.439   4.842   4.864 -1.0217 -1.0732 -1.1282
15349TIP3    H267539   2.542   4.789   4.767  2.4786  0.0241  1.7902
15350TIP3   OH267540   5.907   6.345  15.595  0.0411 -0.6019 -0.4604
15350TIP3    H167541   5.930   6.332  15.687 -0.7595 -1.3420 -0.3466
15350TIP3    H267542   5.845   6.275  15.576  1.4321 -1.4780 -2.0245
15351TIP3   OH267543   1.540   2.039   1.532 -0.3563  0.2179 -0.6486
15351TIP3    H167544   1.524   2.046   1.437  0.4290 -0.3148 -0.8264
15351TIP3    H267545   1.557   1.946   1.546  1.6646  0.5915 -0.3414
15352TIP3   OH267546   3.072   1.462  14.761 -0.4853 -0.3473 -0.1157
15352TIP3    H167547   3.157   1.420  14.770  0.0026  0.0179 -2.4977
15352TIP3    H267548   3.009   1.391  14.771  0.2244 -1.1658 -1.3025
15353TIP3   OH267549   6.152   2.594   2.081  0.6035  0.1878  0.1268
15353TIP3    H167550   6.152   2.557   1.993 -0.5790  0.8018 -0.1527
15353TIP3    H267551   6.148   2.518   2.139  0.6144 -0.1936 -0.3699
15354TIP3   OH267552   3.305   6.534   0.368  0.1259 -0.0210  0.5639
15354TIP3    H167553   3.293   6.453   0.418 -1.2447 -0.0379  0.2707
15354TIP3    H267554   3.276   6.510   0.279  0.7959  0.4919  0.2053
15355TIP3   OH267555   3.186   3.748   1.497 -0.2751  0.2801  0.7494
15355TIP3    H167556   3.135   3.671   1.522 -0.5617  0.2710  0.1674
15355TIP3    H267557   3.217   3.784   1.580 -4.5886  2.6520  1.6832
15356TIP3   OH267558   1.754   4.770  16.049 -0.5749 -0.3548  0.1596
15356TIP3    H167559   1.685   4.833  16.069 -0.9434 -0.6398 -0.2145
15356TIP3    H267560   1.825   4.822  16.012 -1.5409 -0.3558 -1.7896
15357TIP3   OH267561   5.697   0.764  13.726  0.0892  0.0401 -0.0909
15357TIP3    H167562   5.758   0.826  13.766  1.9164 -1.3730 -0.5672
15357TIP3    H267563   5.705   0.778  13.632 -0.6750  0.1398 -0.1500
15358TIP3   OH267564   6.053   4.692  16.065  0.1163  0.2043  0.0442
15358TIP3    H167565   5.974   4.640  16.076  0.1019 -0.1250 -1.3834
15358TIP3    H267566   6.062   4.702  15.970  1.8475  0.1269  0.1662
15359TIP3   OH267567   6.282   5.104   0.646  0.2645  0.2456 -0.2182
15359TIP3    H167568   6.221   5.168   0.609  0.1767  0.4346  0.2451
15359TIP3    H267569   6.365   5.152   0.654  0.1270  0.3875  0.3845
15360TIP3   OH267570   0.441   0.746   5.760  0.2108 -0.2603 -0.2476
15360TIP3    H167571   0.430   0.841   5.766 -0.1254 -0.2460 -0.9394
15360TIP3    H267572   0.352   0.712   5.773  0.5551 -0.5799  1.5297
15361TIP3   OH267573   0.361   2.028  12.007  0.8589 -0.4932  0.2297
15361TIP3    H167574   0.291   1.964  11.994  0.8972 -0.2651 -1.2939
15361TIP3    H267575   0.425   2.007  11.939  0.2608  1.9199 -1.2037
15362TIP3   OH267576   6.087   1.019  11.881  0.4817  0.0448  0.2851
15362TIP3    H167577   6.143   1.089  11.915  1.0877 -0.9986  1.5792
15362TIP3    H267578   6.086   1.032  11.787  2.0839  0.7310  0.3238
15363TIP3   OH267579   0.911   6.077   5.089 -0.0584 -0.2333 -0.0979
15363TIP3    H167580   0.957   6.008   5.041 -2.1703 -0.8431 -1.3456
15363TIP3    H267581   0.957   6.157   5.065 -0.6721 -0.5980 -2.7317
15364TIP3   OH267582   1.125   0.314  16.272  0.1698 -1.0043  0.1674
15364TIP3    H167583   1.063   0.253  16.313 -0.1561 -2.7322 -2.6046
15364TIP3    H267584   1.131   0.284  16.181  0.6248  2.6684 -1.1954
15365TIP3   OH267585   2.893   2.740   0.643  0.3532 -0.1495 -0.8850
15365TIP3    H167586   2.849   2.667   0.599  0.8398 -0.4655 -0.8498
15365TIP3    H267587   2.980   2.744   0.603  0.9556 -0.7071  0.3181
15366TIP3   OH267588   4.174   2.719  12.669 -0.1730  0.2544  0.2581
15366TIP3    H167589   4.114   2.769  12.613  1.8790  1.8178 -0.6576
15366TIP3    H267590   4.153   2.747  12.758 -3.7738 -2.5801  0.5646
15367TIP3   OH267591   6.444   0.915   3.252  0.3022  0.5269 -0.4672
15367TIP3    H167592   6.412   0.881   3.336 -2.3839  2.2105 -0.6920
15367TIP3    H267593   6.431   0.843   3.191 -0.1579  0.1307  0.0828
15368TIP3   OH267594   2.897   2.405  14.189 -0.3854  0.2471 -0.3208
15368TIP3    H167595   2.948   2.345  14.245  0.1598  0.4664 -0.5792
15368TIP3    H267596   2.895   2.487  14.238 -0.4600  0.2521 -0.3315
15369TIP3   OH267597   0.421   3.028   4.661 -0.5137 -0.1137 -0.1559
15369TIP3    H167598   0.366   2.989   4.729 -1.9371  0.4671 -0.9445
15369TIP3    H267599   0.462   2.952   4.618 -0.6441 -0.5471  0.4637
15370TIP3   OH267600   2.343   3.525  14.527  0.2260  0.2089 -0.3654
15370TIP3    H167601   2.426   3.557  14.563  0.0527  0.6275 -0.3425
15370TIP3    H267602   2.280   3.537  14.598  0.1189 -0.0004 -0.4247
15371TIP3   OH267603   3.833   0.070   0.134  0.4385 -0.0715 -0.0180
15371TIP3    H167604   3.770   0.125   0.087 -0.4459 -1.1932 -0.1903
15371TIP3    H267605   3.788   0.047   0.215  1.8485  1.6188  1.3192
15372TIP3   OH267606   6.100   2.895  14.215 -0.1156  0.2840  0.6555
15372TIP3    H167607   6.170   2.922  14.274 -1.9496  0.6581  2.8369
15372TIP3    H267608   6.025   2.949  14.241 -0.7505  1.4189 -2.9624
15373TIP3   OH267609   5.170   1.297  16.014 -0.0956 -0.3714  0.5168
15373TIP3    H167610   5.224   1.293  15.936 -0.1869  0.3577  0.4076
15373TIP3    H267611   5.187   1.215  16.060 -0.2988 -0.9643 -0.4353
15374TIP3   OH267612   0.498   0.770   4.118  0.7851  0.9784  0.3802
15374TIP3    H167613   0.485   0.713   4.194 -1.3417  0.9254  0.0406
15374TIP3    H267614   0.538   0.713   4.052 -0.1795  0.1677  0.4597
15375TIP3   OH267615   2.031   2.664   2.981  0.1331 -0.2875  0.2218
15375TIP3    H167616   2.101   2.686   3.043  0.5737 -0.2857 -0.2658
15375TIP3    H267617   1.952   2.700   3.020  0.5544  0.5281  0.3409
15376TIP3   OH267618   6.350   0.669   3.710 -0.1158  0.0264  0.1001
15376TIP3    H167619   6.256   0.665   3.698  0.0466  0.1417 -1.3875
15376TIP3    H267620   6.386   0.635   3.628  1.1302 -0.4363  0.8162
15377TIP3   OH267621   3.882   5.937   5.062  0.1685 -0.4440  0.3399
15377TIP3    H167622   3.836   6.021   5.064 -0.2170 -0.6465  2.6304
15377TIP3    H267623   3.839   5.887   4.993 -0.4940  0.7455 -0.1252
15378TIP3   OH267624   6.129   4.861   5.712  0.2111 -0.0586  0.5275
15378TIP3    H167625   6.212   4.853   5.758 -0.1399 -0.8651  1.0366
15378TIP3    H267626   6.112   4.955   5.709  0.8520  0.0727  0.9399
15379TIP3   OH267627   0.009   1.310   3.971 -0.3018 -0.1044  0.2042
15379TIP3    H167628  -0.005   1.232   3.918 -1.0936 -0.4407  0.8698
15379TIP3    H267629  -0.076   1.325   4.014 -0.5397  1.8511 -0.8512
15380TIP3   OH267630   5.326   3.165  13.239  0.2447  0.7691  0.4725
15380TIP3    H167631   5.287   3.101  13.299  2.6545 -0.9194  0.3897
15380TIP3    H267632   5.337   3.118  13.157  2.7160  0.9914  0.6043
15381TIP3   OH267633   3.644   0.078   2.352 -0.5598  0.2019  0.1114
15381TIP3    H167634   3.611   0.168   2.359  0.0646  0.4739 -0.3134
15381TIP3    H267635   3.576   0.024   2.393 -1.4252  0.7662 -0.5339
15382TIP3   OH267636   2.239   4.344   3.027  0.3447  0.2292  0.4399
15382TIP3    H167637   2.208   4.395   3.102  0.8006 -0.0468  0.8206
15382TIP3    H267638   2.164   4.341   2.967 -0.1119  0.2191  1.0067
15383TIP3   OH267639   3.511   3.530  14.736  0.4032 -0.7055 -0.0420
15383TIP3    H167640   3.474   3.513  14.650  0.4175  2.0382 -0.6720
15383TIP3    H267641   3.605   3.511  14.727  0.6562  0.9035 -1.0803
15384TIP3   OH267642   0.818   0.013  10.801 -0.8506 -0.3145  0.8385
15384TIP3    H167643   0.818   0.105  10.826  0.3491 -0.6601  2.3387
15384TIP3    H267644   0.737  -0.022  10.837 -2.3258  0.5037 -1.4662
15385TIP3   OH267645   4.554   5.238   4.028  0.4204  0.3537  0.4770
15385TIP3    H167646   4.644   5.269   4.037  0.5110  0.0565  0.5877
15385TIP3    H267647   4.500   5.315   4.048  0.6176  0.0418  2.2948
15386TIP3   OH267648   5.140   1.320  13.534  0.5028  0.1401 -0.1638
15386TIP3    H167649   5.101   1.407  13.533  0.3602  0.0779 -0.0490
15386TIP3    H267650   5.122   1.286  13.622 -1.1700 -0.7793 -0.8088
15387TIP3   OH267651   4.352   2.594  16.223  0.2660  0.4981 -0.2776
15387TIP3    H167652   4.261   2.596  16.253  0.7838  0.9524  1.3196
15387TIP3    H267653   4.401   2.559  16.297  1.5232  1.2146 -0.7488
15388TIP3   OH267654   4.878   0.462   2.861  0.6318 -0.0728  0.3357
15388TIP3    H167655   4.871   0.470   2.766  1.0416  1.1740  0.3984
15388TIP3    H267656   4.790   0.435   2.888  0.4056 -0.0589 -0.3525
15389TIP3   OH267657   5.845   5.217   6.363  0.7136  0.4116  0.2851
15389TIP3    H167658   5.802   5.147   6.412 -0.1045 -0.0387 -1.0290
15389TIP3    H267659   5.930   5.181   6.339 -0.0737 -0.5553 -1.2175
15390TIP3   OH267660   1.096   0.056   0.525 -0.1245 -0.3911 -0.3304
15390TIP3    H167661   1.151   0.132   0.544 -1.8971  0.4869  1.6282
15390TIP3    H267662   1.018   0.092   0.483 -0.9874 -1.0971  0.6257
15391TIP3   OH267663   4.836   3.743  11.463 -0.2293  0.1735  0.0932
15391TIP3    H167664   4.925   3.779  11.463 -0.4049  0.6643 -0.9726
15391TIP3    H267665   4.847   3.652  11.493  0.5068  0.4729  0.7822
15392TIP3   OH267666   1.456   2.531  17.300 -0.4696  0.8060  0.0305
15392TIP3    H167667   1.390   2.520  17.231  0.4662  1.2509 -0.9782
15392TIP3    H267668   1.526   2.580  17.257  0.1127  1.1412  1.3380
15393TIP3   OH267669   3.874   0.070   4.924 -0.3086  0.2427  0.0265
15393TIP3    H167670   3.779   0.061   4.936 -0.1842  0.3787  1.1851
15393TIP3    H267671   3.908  -0.018   4.940 -0.2047  0.2613 -0.0931
15394TIP3   OH267672   3.700   6.548   0.927  0.6564  0.6885 -0.7277
15394TIP3    H167673   3.662   6.460   0.923  0.0516  0.8912  0.3241
15394TIP3    H267674   3.667   6.585   1.009  0.8613  1.9214 -1.1830
15395TIP3   OH267675   1.933   0.954  13.743 -0.0149  0.3272  0.1207
15395TIP3    H167676   1.989   1.006  13.800 -0.1040 -2.4036  2.9955
15395TIP3    H267677   1.993   0.896  13.696 -0.0747  1.5181 -1.5204
15396TIP3   OH267678   2.862   5.544   4.435 -0.6405  1.0067  0.1874
15396TIP3    H167679   2.848   5.628   4.392 -1.2293 -0.1738 -2.0438
15396TIP3    H267680   2.787   5.534   4.494 -0.9528  1.6942 -0.0854
15397TIP3   OH267681   3.828   5.258  13.359 -0.1708 -0.4873 -0.1266
15397TIP3    H167682   3.843   5.290  13.269 -1.9942 -1.6570 -0.9022
15397TIP3    H267683   3.908   5.210  13.380  1.2634  1.7034 -0.1719
15398TIP3   OH267684   4.841   1.323   4.646 -0.0009  0.3731  0.2425
15398TIP3    H167685   4.776   1.329   4.717  0.3481  0.4850  0.5557
15398TIP3    H267686   4.915   1.276   4.685  0.5403  1.1811  0.2114
15399TIP3   OH267687   5.708   6.485   2.286  0.4970  0.1936 -0.6477
15399TIP3    H167688   5.619   6.501   2.255 -0.0881  1.1594  1.3609
15399TIP3    H267689   5.725   6.393   2.264 -1.3187 -0.2537 -0.3339
15400TIP3   OH267690   6.122   2.914  15.584  0.1641 -1.0226  0.0182
15400TIP3    H167691   6.189   2.981  15.594  1.2745 -2.0090 -0.5615
15400TIP3    H267692   6.050   2.958  15.538  0.8937 -0.2584 -0.4141
15401TIP3   OH267693   6.766   4.442  16.204 -0.0977 -0.0506  0.5568
15401TIP3    H167694   6.727   4.371  16.154 -1.1267  0.5283  0.5151
15401TIP3    H267695   6.860   4.432  16.190 -0.3488  1.3003 -3.2037
15402TIP3   OH267696   5.711   5.787  14.903  0.2083 -0.3604 -0.0535
15402TIP3    H167697   5.769   5.832  14.841  0.2012 -1.2864 -0.7482
15402TIP3    H267698   5.766   5.770  14.979  1.3020 -2.4557 -1.2287
15403TIP3   OH267699   0.159   4.112   3.675  0.5181 -0.4929  0.8066
15403TIP3    H167700   0.092   4.043   3.677  1.2057 -1.1773  2.8167
15403TIP3    H267701   0.110   4.193   3.686 -0.3153 -0.5528 -1.6533
15404TIP3   OH267702   6.525   3.091  14.615  0.2289  0.4424 -0.1948
15404TIP3    H167703   6.511   3.172  14.567  0.4539  0.9431  0.5692
15404TIP3    H267704   6.616   3.067  14.595  0.2694  0.5601 -0.1514
15405TIP3   OH267705   5.115   4.755   5.607  0.0565  0.3517  0.0397
15405TIP3    H167706   5.168   4.690   5.652 -0.1962  1.4334  2.0299
15405TIP3    H267707   5.134   4.837   5.653 -1.8012  1.1361 -0.5075
15406TIP3   OH267708   3.291   3.606  15.475 -0.5876  0.1035  0.2658
15406TIP3    H167709   3.382   3.575  15.475 -0.3364  0.7352  2.0414
15406TIP3    H267710   3.241   3.533  15.509 -0.5658  0.1879  0.4809
15407TIP3   OH267711   0.266   1.132   1.292  0.4086  0.1671  0.1590
15407TIP3    H167712   0.243   1.042   1.271 -1.0965  0.0049  2.1804
15407TIP3    H267713   0.353   1.126   1.330  0.6931 -0.3002 -0.5530
15408TIP3   OH267714   4.884   1.250  11.894 -0.3408 -0.0143  0.0762
15408TIP3    H167715   4.865   1.228  11.802 -2.5299  0.5677  0.3359
15408TIP3    H267716   4.973   1.217  11.908  0.4438  0.7320 -2.5215
15409TIP3   OH267717   5.607   4.961   0.783  0.3236 -0.5525  0.6381
15409TIP3    H167718   5.640   5.049   0.801 -2.8402  0.5989  1.4876
15409TIP3    H267719   5.519   4.975   0.748 -0.8133 -3.3802  1.9982
15410TIP3   OH267720   3.541   4.563   1.698  0.2799  0.3455 -0.7144
15410TIP3    H167721   3.460   4.596   1.659 -0.7688 -0.1320  0.9324
15410TIP3    H267722   3.530   4.579   1.792  1.6859 -0.6039 -0.3622
15411TIP3   OH267723   1.554   6.077   2.357 -0.4124  0.3042  0.0771
15411TIP3    H167724   1.639   6.101   2.395 -1.1799 -1.2028  3.0202
15411TIP3    H267725   1.506   6.160   2.351  0.8522  1.0192 -0.6524
15412TIP3   OH267726   6.327   2.372  16.475  0.2068 -0.7185 -0.5160
15412TIP3    H167727   6.368   2.458  16.481  2.4165 -1.6196 -1.6133
15412TIP3    H267728   6.381   2.316  16.531 -0.1219 -1.7553 -1.2175
15413TIP3   OH267729   3.331   0.536  17.034 -0.0055  0.4838  0.5771
15413TIP3    H167730   3.310   0.627  17.012 -2.1249 -0.4011 -1.5600
15413TIP3    H267731   3.286   0.521  17.118  1.0259  1.5806  1.3600
15414TIP3   OH267732   2.555   2.596  14.992 -0.0109 -0.0488 -0.2348
15414TIP3    H167733   2.628   2.648  14.959  0.4738 -0.1858  0.5958
15414TIP3    H267734   2.552   2.614  15.086 -1.8345  0.9254 -0.4255
15415TIP3   OH267735   5.192   4.143  17.266 -0.3460 -0.3371 -0.3708
15415TIP3    H167736   5.115   4.118  17.215  0.1728 -0.3536 -1.1761
15415TIP3    H267737   5.172   4.231  17.297 -0.0267  0.3747 -2.0275
15416TIP3   OH267738   1.777   0.262   4.805  0.2047  0.2119  0.3857
15416TIP3    H167739   1.753   0.336   4.750 -0.4868 -1.3170 -1.4924
15416TIP3    H267740   1.788   0.189   4.744  3.0201 -0.7888  1.8975
15417TIP3   OH267741   3.503   0.034   0.065 -0.9223 -0.3461  0.4216
15417TIP3    H167742   3.447   0.080   0.128 -3.0435 -1.8143 -0.3057
15417TIP3    H267743   3.499  -0.057   0.092 -1.1185 -0.8692 -1.2626
15418TIP3   OH267744   6.400   2.371   1.816  0.0978  0.0607 -0.1581
15418TIP3    H167745   6.443   2.455   1.805  1.2954 -0.5922 -0.6537
15418TIP3    H267746   6.358   2.354   1.732 -0.3705  0.2759  0.0284
15419TIP3   OH267747   0.565   1.772   3.829 -0.1052  0.7150  0.2286
15419TIP3    H167748   0.619   1.794   3.905  0.7329  2.2387 -0.7561
15419TIP3    H267749   0.577   1.846   3.769 -1.0077 -0.2876 -1.2441
15420TIP3   OH267750   4.840   6.757   1.450 -0.1735 -0.0765  0.5347
15420TIP3    H167751   4.759   6.713   1.477 -0.0821  0.3413  1.5260
15420TIP3    H267752   4.812   6.822   1.385 -1.0854  2.0244  2.8741
15421TIP3   OH267753   6.432   3.850  11.894  0.2990 -0.1329  0.0171
15421TIP3    H167754   6.524   3.872  11.883  0.0376  1.4158  0.6347
15421TIP3    H267755   6.385   3.923  11.854 -0.6170  0.9193  2.7560
15422TIP3   OH267756   3.463   5.440  12.095  0.2277 -0.1296 -0.3647
15422TIP3    H167757   3.422   5.437  12.009 -3.8034 -2.0908  1.3169
15422TIP3    H267758   3.406   5.497  12.147  1.4145 -0.4977  1.4409
15423TIP3   OH267759   6.632   3.008  10.300  0.2816 -0.1714 -0.0568
15423TIP3    H167760   6.653   3.098  10.326 -1.2158  0.5439 -1.1261
15423TIP3    H267761   6.704   2.982  10.243  0.7528  0.3293  0.2947
15424TIP3   OH267762   3.573   3.762  11.763  0.4632 -0.1557 -0.2381
15424TIP3    H167763   3.530   3.817  11.828 -0.2082 -1.5639  0.5661
15424TIP3    H267764   3.658   3.804  11.747  0.4245  0.5048  1.1651
15425TIP3   OH267765   3.650   2.893  10.826  0.2092 -0.2252  0.3876
15425TIP3    H167766   3.560   2.919  10.846  0.5832  0.4588  1.2457
15425TIP3    H267767   3.650   2.875  10.732 -0.3814  1.6473 -0.0027
15426TIP3   OH267768   5.841   3.360   0.929 -0.0303  0.1512  0.2233
15426TIP3    H167769   5.829   3.269   0.903 -2.1235  0.3819  0.1920
15426TIP3    H267770   5.874   3.403   0.850 -0.3897 -0.3190 -0.1897
15427TIP3   OH267771   1.102   5.512  10.952 -0.0423 -0.2723  0.2969
15427TIP3    H167772   1.038   5.449  10.918 -0.5348  0.6160 -0.4461
15427TIP3    H267773   1.155   5.535  10.875  1.1935 -0.9879  0.8941
15428TIP3   OH267774   6.616   6.534  14.245 -0.0469 -0.3776  0.2195
15428TIP3    H167775   6.711   6.549  14.243 -0.0467 -0.3870  0.1402
15428TIP3    H267776   6.606   6.441  14.266 -0.0509 -0.2462  0.7936
15429TIP3   OH267777   1.909   0.745   3.595  0.3196 -0.5899 -0.3749
15429TIP3    H167778   1.893   0.832   3.631 -0.4087 -0.8070 -0.1598
15429TIP3    H267779   1.920   0.760   3.501 -0.9272 -0.3832 -0.5031
15430TIP3   OH267780   2.880   2.800   1.448 -0.0724  0.4032 -0.1972
15430TIP3    H167781   2.892   2.714   1.408 -2.0053 -0.0125  0.0100
15430TIP3    H267782   2.857   2.857   1.374  2.2095  1.0304 -0.4932
15431TIP3   OH267783   3.386   1.172   2.874 -0.6981 -0.3967  0.1697
15431TIP3    H167784   3.370   1.125   2.956 -2.6389  0.1922  0.1674
15431TIP3    H267785   3.316   1.143   2.816  0.8146 -1.0250 -1.4281
15432TIP3   OH267786   2.920   3.220  14.312 -0.3109 -0.3441 -0.0255
15432TIP3    H167787   2.911   3.270  14.231 -1.9072  0.2436  0.4695
15432TIP3    H267788   2.956   3.283  14.375  0.0043 -0.5186 -0.0317
15433TIP3   OH267789   0.294   5.017   6.712  0.2790  0.0870 -0.5398
15433TIP3    H167790   0.217   5.064   6.681 -1.1154 -1.2768  0.6967
15433TIP3    H267791   0.364   5.043   6.652 -0.9082  2.0314 -1.1804
15434TIP3   OH267792   2.153   1.454   2.063  0.0873 -0.4837 -0.1170
15434TIP3    H167793   2.220   1.522   2.055  1.4167 -1.7196 -0.0026
15434TIP3    H267794   2.131   1.432   1.973  1.3950 -1.4862 -0.2349
15435TIP3   OH267795   2.984   1.514   0.390 -0.6468  0.5815 -0.0543
15435TIP3    H167796   2.921   1.458   0.436  0.5789 -1.4823 -0.7685
15435TIP3    H267797   3.056   1.524   0.453 -0.0448 -0.2415 -0.5861
15436TIP3   OH267798   5.355   3.703   0.260  0.2843  0.0913 -0.3446
15436TIP3    H167799   5.342   3.691   0.354 -1.2491  2.7245 -0.0949
15436TIP3    H267800   5.433   3.758   0.253 -0.6470  1.4484 -0.4312
15437TIP3   OH267801   5.118   3.778   3.892  0.1772 -0.1185 -0.5476
15437TIP3    H167802   5.189   3.736   3.844  0.0559 -0.7262 -0.2033
15437TIP3    H267803   5.083   3.709   3.948 -1.3561 -0.1087 -1.4445
15438TIP3   OH267804   4.423   4.535  12.039  0.2493  0.4870  0.1578
15438TIP3    H167805   4.415   4.604  11.973 -2.2335  0.8451  0.7473
15438TIP3    H267806   4.387   4.458  11.996  0.0488  0.3478  0.5781
15439TIP3   OH267807   2.836   0.294   0.718  0.2140 -0.2704 -0.2305
15439TIP3    H167808   2.743   0.277   0.705  0.3920 -1.0594 -0.5259
15439TIP3    H267809   2.874   0.208   0.735  0.8190  0.1014  0.3448
15440TIP3   OH267810   5.933   5.108  13.318 -0.2434  0.3575  0.1988
15440TIP3    H167811   5.930   5.172  13.388 -2.8399  0.8863 -0.2888
15440TIP3    H267812   5.937   5.161  13.238 -1.7775 -0.0558 -0.1811
15441TIP3   OH267813   3.431   3.966  11.940 -0.2380 -0.3718  0.1955
15441TIP3    H167814   3.448   3.999  12.028  1.4979  0.0678 -0.2524
15441TIP3    H267815   3.337   3.976  11.928 -0.1978  1.8756  1.1249
15442TIP3   OH267816   6.575   6.788   5.876 -0.4241  0.5126  0.1591
15442TIP3    H167817   6.487   6.770   5.842 -0.1246 -0.2833 -0.2255
15442TIP3    H267818   6.621   6.827   5.803 -0.9595  2.6286  0.8846
15443TIP3   OH267819   3.236   0.326  11.816  0.4255  0.2645  0.0818
15443TIP3    H167820   3.233   0.392  11.885  0.8961 -0.8818  1.2298
15443TIP3    H267821   3.314   0.274  11.836  1.1733  0.5183 -1.9094
15444TIP3   OH267822   6.565   5.779  15.145 -0.0291 -0.0755  0.1707
15444TIP3    H167823   6.530   5.757  15.058 -1.2152 -1.2692  0.9018
15444TIP3    H267824   6.573   5.874  15.144 -0.5170 -0.0197 -1.0642
15445TIP3   OH267825   3.914   4.706  13.018 -0.0365 -0.1696 -1.0610
15445TIP3    H167826   3.824   4.688  13.046 -0.3525  1.4451 -0.9189
15445TIP3    H267827   3.940   4.783  13.069  0.7646  0.4925 -2.4174
15446TIP3   OH267828   5.037   4.155  12.539 -0.3348 -0.1921 -1.0660
15446TIP3    H167829   4.963   4.137  12.598 -1.1525  1.9509 -1.3716
15446TIP3    H267830   5.003   4.133  12.452 -1.0177  1.7417 -1.3284
15447TIP3   OH267831   1.434   6.205   0.805 -0.2657 -0.2644  0.0736
15447TIP3    H167832   1.413   6.164   0.889  0.4127  1.2922  1.0663
15447TIP3    H267833   1.529   6.213   0.806 -0.1552 -1.1446 -1.3255
15448TIP3   OH267834   2.818   6.558  11.195 -0.4380  0.3140  0.0699
15448TIP3    H167835   2.764   6.593  11.267  0.8013 -1.8581  2.2119
15448TIP3    H267836   2.863   6.635  11.159  0.1682  1.3451  2.7821
15449TIP3   OH267837   5.781   2.762   3.445 -0.0503 -1.2123  0.6549
15449TIP3    H167838   5.798   2.856   3.440  1.1892 -1.2377  3.0330
15449TIP3    H267839   5.694   2.751   3.406 -0.5544  1.0263  1.0353
15450TIP3   OH267840   5.272   2.389   1.447  0.3566 -0.2138  0.8407
15450TIP3    H167841   5.253   2.298   1.470 -0.3306 -0.3085 -0.0779
15450TIP3    H267842   5.295   2.430   1.530  0.6393 -1.2136  1.2742
15451TIP3   OH267843   6.660   5.057  11.151  0.4013  0.2863  0.1696
15451TIP3    H167844   6.709   5.095  11.078  0.1845 -1.1457 -0.7725
15451TIP3    H267845   6.569   5.063  11.124  0.3508 -0.6880  0.0887
15452TIP3   OH267846   6.175   3.020  12.143  0.1837  0.4306  0.7719
15452TIP3    H167847   6.156   3.087  12.208 -0.3949  1.7921 -0.7516
15452TIP3    H267848   6.218   3.066  12.072  1.4888 -1.1614  0.4620
15453TIP3   OH267849   1.840   0.805  16.271  0.2354 -0.0963 -0.4005
15453TIP3    H167850   1.927   0.827  16.238  1.1065 -0.8702  1.2561
15453TIP3    H267851   1.783   0.810  16.194  1.6627  0.7588 -1.4560
15454TIP3   OH267852   2.882   5.783   0.970 -0.3593  0.9131 -0.2079
15454TIP3    H167853   2.803   5.829   0.998 -0.6914 -0.8109  2.0028
15454TIP3    H267854   2.861   5.690   0.983  1.4851  0.3185 -1.1329
15455TIP3   OH267855   3.006   3.339   1.682  0.3169 -0.1916  0.6445
15455TIP3    H167856   2.950   3.265   1.657 -0.2335  0.8861 -1.5447
15455TIP3    H267857   2.945   3.412   1.692  1.2132  0.8963 -1.3386
15456TIP3   OH267858   5.221   2.784  12.339 -0.5631  0.6652 -0.0877
15456TIP3    H167859   5.278   2.709  12.356  1.3324  1.5997 -1.8528
15456TIP3    H267860   5.262   2.857  12.385  0.7038  1.7014 -2.6690
15457TIP3   OH267861   3.463   6.202  14.884  0.4125 -0.5740  0.3279
15457TIP3    H167862   3.407   6.126  14.901 -0.5706 -0.0353 -0.4064
15457TIP3    H267863   3.552   6.167  14.889  0.0550 -1.3867  1.8231
15458TIP3   OH267864   5.416   3.193   0.649 -0.5305 -0.5638 -0.4409
15458TIP3    H167865   5.348   3.165   0.711 -0.9971 -1.0131 -1.1506
15458TIP3    H267866   5.368   3.238   0.580  0.1994  2.4910  0.8560
15459TIP3   OH267867   2.943   5.620  12.069  0.4653  0.1713 -0.1805
15459TIP3    H167868   2.863   5.648  12.023  0.6674  1.6221  0.3143
15459TIP3    H267869   2.947   5.525  12.054 -1.2393  0.1004 -0.3907
15460TIP3   OH267870   5.072   6.165   3.121  0.4379 -0.1191  0.1200
15460TIP3    H167871   5.086   6.227   3.192  0.5749 -0.6692  0.5809
15460TIP3    H267872   4.990   6.194   3.080  0.5561  0.4227  0.2604
15461TIP3   OH267873   5.694   1.669   5.529  0.1459 -0.9570  0.1028
15461TIP3    H167874   5.698   1.669   5.434 -1.4562  2.8259 -0.1410
15461TIP3    H267875   5.626   1.605   5.550 -1.9230  0.5273 -1.6489
15462TIP3   OH267876   4.458   2.902  15.868  0.2605 -0.4671  0.2580
15462TIP3    H167877   4.369   2.868  15.869 -0.4242  1.0721 -1.4488
15462TIP3    H267878   4.451   2.988  15.909  0.7742 -0.0014 -0.5982
15463TIP3   OH267879   2.434   5.818   3.540 -0.3818 -0.6038  0.1642
15463TIP3    H167880   2.432   5.895   3.598 -1.4038  0.1176 -0.7838
15463TIP3    H267881   2.501   5.761   3.578  0.7904  0.9913  0.5936
15464TIP3   OH267882   3.538   1.173   1.627 -0.3438  0.0254 -0.0973
15464TIP3    H167883   3.603   1.120   1.673 -0.0228  1.9570  1.8248
15464TIP3    H267884   3.571   1.177   1.537  1.5635 -0.0344  0.5448
15465TIP3   OH267885   5.331   4.792  16.513 -0.2359  0.0852  0.1562
15465TIP3    H167886   5.259   4.853  16.525 -0.0315  0.6452 -1.3078
15465TIP3    H267887   5.340   4.783  16.418  0.8620 -0.8799  0.3243
15466TIP3   OH267888   6.560   2.025  14.576  0.4682 -0.0487  0.0515
15466TIP3    H167889   6.492   2.038  14.510  0.7803 -2.2363 -0.7939
15466TIP3    H267890   6.629   2.087  14.552 -0.8564  1.6315  0.4543
15467TIP3   OH267891   0.749   3.017   4.438  0.2037 -0.0454  0.1450
15467TIP3    H167892   0.666   2.972   4.453  0.2290  0.4466  2.0812
15467TIP3    H267893   0.743   3.049   4.348 -1.5827 -0.2884  0.1386
15468TIP3   OH267894   1.083   0.181  12.460 -0.6664  0.6015 -0.0349
15468TIP3    H167895   1.046   0.095  12.483  0.2130 -0.0661 -1.0186
15468TIP3    H267896   1.066   0.235  12.537 -1.9047 -0.2310  0.3188
15469TIP3   OH267897   1.546   4.445  11.153 -0.1346 -0.2551 -0.1209
15469TIP3    H167898   1.550   4.504  11.229  1.0513 -1.1529  0.5412
15469TIP3    H267899   1.596   4.490  11.085  0.4627 -0.3308  0.2640
15470TIP3   OH267900   5.159   5.038  11.000 -0.2020 -0.4760  0.0256
15470TIP3    H167901   5.215   5.003  10.930 -1.4467 -2.1926 -0.1961
15470TIP3    H267902   5.078   5.062  10.954 -0.1240  0.7611  0.5223
15471TIP3   OH267903   2.687   6.588  16.782 -0.3240 -0.4196 -0.0324
15471TIP3    H167904   2.761   6.531  16.802  0.4502  0.5527 -0.0079
15471TIP3    H267905   2.656   6.618  16.867  0.8145  1.0479 -0.0718
15472TIP3   OH267906   4.659   0.295   2.951  0.2672  0.0754  0.6150
15472TIP3    H167907   4.608   0.214   2.942  2.0223 -1.2408  2.0375
15472TIP3    H267908   4.593   0.363   2.969 -1.1808 -1.0944 -0.0530
15473TIP3   OH267909   5.775   6.742   4.043 -0.1472  0.0959  0.6808
15473TIP3    H167910   5.702   6.782   3.995 -0.3343 -0.4466  0.4993
15473TIP3    H267911   5.756   6.648   4.040  1.7186 -0.2940 -1.3487
15474TIP3   OH267912   3.837   1.500  15.332  0.7168  0.0591 -0.0458
15474TIP3    H167913   3.815   1.408  15.346  0.4692  0.4954  3.0289
15474TIP3    H267914   3.757   1.548  15.354  0.8569  1.0572 -1.5571
15475TIP3   OH267915   2.405   3.953  16.573 -0.2070  0.2171  0.1891
15475TIP3    H167916   2.369   4.011  16.507 -1.6256  0.0954  0.8233
15475TIP3    H267917   2.330   3.903  16.605  0.5781 -0.2808  1.3263
15476TIP3   OH267918   3.602   2.870   1.861 -0.4590 -0.8222  0.1628
15476TIP3    H167919   3.535   2.888   1.795 -0.3990 -1.6706 -0.1440
15476TIP3    H267920   3.660   2.806   1.819 -0.1534 -1.0221  0.8765
15477TIP3   OH267921   1.515   4.392  14.597 -0.1504 -0.3639  0.2692
15477TIP3    H167922   1.571   4.318  14.576 -0.4036 -0.6716  0.6654
15477TIP3    H267923   1.575   4.463  14.619  0.0949 -1.1683  2.3782
15478TIP3   OH267924   6.592   4.189   3.106  0.0389  0.0191 -0.6291
15478TIP3    H167925   6.561   4.279   3.090  2.9815  1.1205 -0.7674
15478TIP3    H267926   6.546   4.136   3.041 -1.5535  1.4548 -0.7531
15479TIP3   OH267927   2.405   2.636   2.008  0.5683 -0.7480  0.4629
15479TIP3    H167928   2.384   2.728   2.025 -2.3515 -1.0785 -0.6533
15479TIP3    H267929   2.372   2.589   2.084 -0.6354 -1.0842 -0.2414
15480TIP3   OH267930   1.381   4.783   5.793  1.0209  0.2723 -0.0275
15480TIP3    H167931   1.339   4.711   5.841  1.2965 -0.6500 -1.1271
15480TIP3    H267932   1.344   4.778   5.705  0.8808  1.6362 -0.0626
15481TIP3   OH267933   1.997   1.381   6.085  0.2167 -0.7219 -0.5124
15481TIP3    H167934   1.939   1.316   6.045  0.1402 -0.4642 -0.8292
15481TIP3    H267935   2.031   1.338   6.163  0.4953 -1.3020 -0.9392
15482TIP3   OH267936   6.660   5.627  13.652 -0.5596 -0.0344 -0.8352
15482TIP3    H167937   6.735   5.589  13.607  0.1263 -0.0053  0.2479
15482TIP3    H267938   6.616   5.553  13.692  0.8943  0.2366  1.4498
15483TIP3   OH267939   0.355   4.999  15.186  0.3542 -0.4550  0.2599
15483TIP3    H167940   0.386   5.087  15.167 -0.5954 -0.0719  0.4627
15483TIP3    H267941   0.394   4.944  15.118 -0.0962  0.3262 -0.6442
15484TIP3   OH267942   3.779   3.803  13.532 -0.1457 -0.1743 -0.6191
15484TIP3    H167943   3.830   3.792  13.452  2.0234 -0.6850  0.7635
15484TIP3    H267944   3.775   3.898  13.545  1.4005 -0.1342 -0.2237
15485TIP3   OH267945   1.138   3.543  16.021 -0.3607 -0.7344 -0.1827
15485TIP3    H167946   1.092   3.572  15.943 -0.8477 -1.1262 -0.0473
15485TIP3    H267947   1.204   3.481  15.989  0.5706  0.3610 -0.4519
15486TIP3   OH267948   2.188   1.820   2.693  1.1524  0.6186  0.0559
15486TIP3    H167949   2.222   1.801   2.605  0.1130 -1.7631  0.0811
15486TIP3    H267950   2.266   1.835   2.746  1.9946 -0.7574 -0.7149
15487TIP3   OH267951   4.615   0.020   6.118  0.1639 -0.1740 -0.2860
15487TIP3    H167952   4.695   0.002   6.169 -0.7787 -1.8518  0.7200
15487TIP3    H267953   4.561  -0.059   6.131 -1.7716  1.0253 -0.6906
15488TIP3   OH267954   5.608   4.374   1.180  0.5146 -0.3218  0.0594
15488TIP3    H167955   5.536   4.312   1.190 -1.1839  1.5896  0.0583
15488TIP3    H267956   5.618   4.413   1.267 -0.6730  1.7250 -0.6510
15489TIP3   OH267957   4.430   4.458  13.535  0.2621 -0.0092 -0.2382
15489TIP3    H167958   4.422   4.551  13.560  0.3085 -0.4391  1.5634
15489TIP3    H267959   4.524   4.446  13.520  0.5313 -0.1459  1.3534
15490TIP3   OH267960   6.012   6.686   1.661  0.3721  0.4014  0.2342
15490TIP3    H167961   5.945   6.652   1.720 -1.7947  0.6462 -1.8892
15490TIP3    H267962   5.981   6.775   1.639  2.1792  1.0847  0.2875
15491TIP3   OH267963   3.407   6.774  11.251 -0.1883  0.2165 -0.1846
15491TIP3    H167964   3.414   6.736  11.163 -0.8160  0.2660 -0.2634
15491TIP3    H267965   3.386   6.700  11.308  1.2098  0.0113  0.0994
15492TIP3   OH267966   6.559   1.352   3.749 -0.2489  0.5815  0.0038
15492TIP3    H167967   6.520   1.378   3.666 -1.1980 -0.7271  0.0103
15492TIP3    H267968   6.610   1.274   3.728 -2.3407 -1.1633  0.9758
15493TIP3   OH267969   5.621   3.551   2.092  0.1232  0.0353 -0.2611
15493TIP3    H167970   5.631   3.543   1.997  1.0039  1.9752 -0.3625
15493TIP3    H267971   5.535   3.591   2.104  1.3694  2.9534 -0.4653
15494TIP3   OH267972   3.791   6.235  14.798  0.5048 -0.2573 -0.4952
15494TIP3    H167973   3.825   6.238  14.708  0.5111 -1.6273 -0.5555
15494TIP3    H267974   3.868   6.248  14.853  0.5201  0.4615 -0.6821
15495TIP3   OH267975   6.612   4.883   4.656 -0.7318  0.4522  0.0449
15495TIP3    H167976   6.600   4.864   4.749 -1.7658 -1.6784 -0.4568
15495TIP3    H267977   6.529   4.923   4.629 -0.5659  0.7413 -0.0396
15496TIP3   OH267978   6.805   0.478   3.012 -0.0797 -0.7212  0.0348
15496TIP3    H167979   6.841   0.398   2.972 -1.6210 -1.5238  0.1924
15496TIP3    H267980   6.718   0.452   3.043 -0.1999  0.7606  1.0106
15497TIP3   OH267981   0.419   2.055  14.371 -0.3622 -0.1932 -0.3685
15497TIP3    H167982   0.385   1.997  14.303  0.8138 -1.0167 -0.2807
15497TIP3    H267983   0.418   2.143  14.331 -1.1216 -0.4318 -0.8903
15498TIP3   OH267984   2.990   2.676  10.694  0.3113  0.5258  0.3934
15498TIP3    H167985   3.063   2.676  10.756  0.5469  0.6798  0.1174
15498TIP3    H267986   3.007   2.602  10.636  1.7472  2.1515 -1.4053
15499TIP3   OH267987   6.165   3.524  11.551 -0.1271 -0.4799 -0.6151
15499TIP3    H167988   6.232   3.456  11.545 -0.6362 -0.9658 -0.8113
15499TIP3    H267989   6.094   3.484  11.600 -1.4212 -0.9174 -2.6966
15500TIP3   OH267990   2.976   6.194  11.856 -0.0715 -0.2489 -0.3348
15500TIP3    H167991   2.984   6.287  11.875  0.4843 -0.7991  2.7919
15500TIP3    H267992   3.064   6.167  11.830  0.3960 -0.3021  1.2156
15501TIP3   OH267993   0.755   0.067   3.472 -0.3272 -0.7814  0.3380
15501TIP3    H167994   0.810  -0.012   3.463  0.6144 -0.2932  1.5044
15501TIP3    H267995   0.794   0.115   3.546  1.2241  2.4459 -2.3148
15502TIP3   OH267996   5.210   0.760   0.561 -0.3900  0.5613  0.3177
15502TIP3    H167997   5.178   0.673   0.535  0.6416 -0.2564  1.6917
15502TIP3    H267998   5.208   0.759   0.656  0.8869  1.5619  0.3777
15503TIP3   OH267999   1.304   5.362   2.321 -0.1109  0.0917 -0.0697
15503TIP3    H168000   1.361   5.316   2.383 -1.6762 -1.2247  0.4620
15503TIP3    H268001   1.330   5.328   2.235  0.2010 -0.1543  0.1151
15504TIP3   OH268002   5.644   0.726   1.250 -0.2921 -0.1383 -0.5120
15504TIP3    H168003   5.617   0.799   1.306 -1.8873 -0.0482 -1.3422
15504TIP3    H268004   5.628   0.757   1.161  0.3991 -0.9798 -0.9436
15505TIP3   OH268005   4.837   3.975   1.489 -0.0924 -0.2907 -0.9402
15505TIP3    H168006   4.892   3.952   1.564 -0.1770  1.0056 -0.4588
15505TIP3    H268007   4.809   4.065   1.507 -3.5173 -1.2949 -0.4569
15506TIP3   OH268008   2.396   2.406   4.074 -0.0938  0.0087  0.4220
15506TIP3    H168009   2.420   2.368   4.159  1.7289  1.6647  0.7213
15506TIP3    H268010   2.478   2.404   4.023 -0.6088  1.0318 -0.4887
15507TIP3   OH268011   1.475   0.725  13.768  0.3947 -0.4119 -0.1487
15507TIP3    H168012   1.484   0.782  13.845  1.9387 -2.1729  1.0705
15507TIP3    H268013   1.401   0.761  13.720 -0.5297  0.8655  2.0700
15508TIP3   OH268014   3.346   1.260   2.325  0.1848 -0.0817  0.2790
15508TIP3    H168015   3.404   1.314   2.379  1.1347  0.5422 -1.2986
15508TIP3    H268016   3.288   1.323   2.282 -0.1099 -0.5141  0.0400
15509TIP3   OH268017   2.359   5.774  16.675 -0.0184  0.0054 -0.1496
15509TIP3    H168018   2.439   5.728  16.650  1.2397  1.6979  0.4863
15509TIP3    H268019   2.342   5.745  16.765 -0.9531 -1.3955 -0.7519
15510TIP3   OH268020   4.164   3.637   2.999 -0.4863  0.8832  0.1661
15510TIP3    H168021   4.114   3.638   2.917 -1.7089 -0.3115  0.8544
15510TIP3    H268022   4.254   3.653   2.972 -0.9322  0.9717 -1.3702
15511TIP3   OH268023   6.424   0.095   3.048  0.2065 -0.0756 -0.3929
15511TIP3    H168024   6.455   0.119   3.135  0.2868 -0.6514 -0.2581
15511TIP3    H268025   6.377   0.013   3.061 -0.3476  0.1703 -0.7920
15512TIP3   OH268026   1.546   3.920   6.342 -0.2829 -0.3457 -0.6661
15512TIP3    H168027   1.537   3.952   6.432 -0.7022  1.2617 -1.2353
15512TIP3    H268028   1.481   3.850   6.334 -1.2970  0.5097 -0.1421
15513TIP3   OH268029   3.828   3.589   0.834  0.0204 -0.2745 -0.2821
15513TIP3    H168030   3.887   3.658   0.864  1.8423 -0.9412 -2.1060
15513TIP3    H268031   3.854   3.512   0.884 -0.2908 -0.2241 -0.0452
15514TIP3   OH268032   1.514   5.420   3.444  0.5013 -0.4374  0.2124
15514TIP3    H168033   1.542   5.492   3.501 -5.1211  3.9889 -1.6825
15514TIP3    H268034   1.455   5.368   3.498  2.0453 -1.8741  0.6312
15515TIP3   OH268035   1.731   5.059   4.336  0.2727  0.3164  0.3648
15515TIP3    H168036   1.734   4.972   4.295  3.7267 -0.2042  1.3924
15515TIP3    H268037   1.661   5.052   4.401 -0.6449 -1.1095 -0.7092
15516TIP3   OH268038   2.203   3.450   3.267  0.0230 -0.1954 -0.9510
15516TIP3    H168039   2.156   3.468   3.186 -0.6520 -0.6467 -0.6682
15516TIP3    H268040   2.198   3.355   3.277  0.2232 -0.1551 -0.4541
15517TIP3   OH268041   0.417   5.212   3.934 -0.0349  0.0650  0.0291
15517TIP3    H168042   0.353   5.276   3.904 -0.9398 -1.3005 -1.1342
15517TIP3    H268043   0.462   5.184   3.853  0.3044 -0.7872  0.5007
15518TIP3   OH268044   0.520   3.744  11.082  0.1584 -0.2108  0.1449
15518TIP3    H168045   0.443   3.778  11.037  0.5617  0.3740 -0.1146
15518TIP3    H268046   0.592   3.757  11.020  0.8431  1.1688  1.1708
15519TIP3   OH268047   4.754   0.844  16.604 -0.5772  0.4062 -0.1071
15519TIP3    H168048   4.722   0.903  16.672 -0.3199  1.3031 -0.7534
15519TIP3    H268049   4.849   0.853  16.608 -0.5677  0.5508 -0.6667
15520TIP3   OH268050   1.762   0.295   2.638 -0.8042 -0.3000  0.1544
15520TIP3    H168051   1.685   0.277   2.691 -1.4101  0.5435 -0.4079
15520TIP3    H268052   1.733   0.283   2.548 -0.8942  1.9466 -0.1930
15521TIP3   OH268053   4.346   0.064   1.992  0.1916 -0.0687  0.3836
15521TIP3    H168054   4.285   0.026   1.929  0.2100  1.2661 -0.4968
15521TIP3    H268055   4.292   0.087   2.068 -0.2173  0.1404  0.0355
15522TIP3   OH268056   6.465   6.750  14.859  0.3958  0.8596  0.2509
15522TIP3    H168057   6.441   6.783  14.945 -0.0146  0.4596  0.2918
15522TIP3    H268058   6.561   6.751  14.858  0.3940  1.4966  0.4648
15523TIP3   OH268059   2.583   1.943  15.275  0.0687 -0.8742  0.7291
15523TIP3    H168060   2.641   1.938  15.200 -2.1882  1.3018 -1.3795
15523TIP3    H268061   2.502   1.901  15.246 -0.8832  0.0685  1.8690
15524TIP3   OH268062   6.474   2.475   0.704 -0.1762 -0.4539  0.7352
15524TIP3    H168063   6.436   2.387   0.712 -1.0624 -0.1098  0.3703
15524TIP3    H268064   6.560   2.460   0.665 -1.0015 -1.0320 -0.9730
15525TIP3   OH268065   5.700   2.639   1.136 -0.2760 -0.3771  0.3251
15525TIP3    H168066   5.673   2.571   1.074  0.7000 -0.3246 -0.1820
15525TIP3    H268067   5.634   2.637   1.205  0.1512 -2.3966  0.7367
15526TIP3   OH268068   2.258   0.721   2.150  0.3079 -0.0041 -0.1469
15526TIP3    H168069   2.199   0.647   2.136 -0.1744  0.5813 -1.3367
15526TIP3    H268070   2.221   0.766   2.226  0.4043 -0.7672  0.3699
15527TIP3   OH268071   1.067   2.284  12.838  0.2960 -0.6613 -0.2683
15527TIP3    H168072   1.092   2.343  12.767  1.2930  0.2796  0.8169
15527TIP3    H268073   1.135   2.216  12.839  1.0151  0.0502  0.5838
15528TIP3   OH268074   1.508   1.059  11.599  0.6635  0.2644  0.2320
15528TIP3    H168075   1.592   1.039  11.557  0.3291  0.5438 -0.5992
15528TIP3    H268076   1.452   0.985  11.577  0.3335  0.6538 -0.2640
15529TIP3   OH268077   6.792   0.622   4.548  0.1125 -0.0028  0.0321
15529TIP3    H168078   6.807   0.681   4.474  1.0090  1.4264  1.2975
15529TIP3    H268079   6.697   0.626   4.564  0.0212  0.2593 -0.5619
15530TIP3   OH268080   4.855   5.466  16.208  0.4450 -0.2666  0.0599
15530TIP3    H168081   4.882   5.379  16.239  2.6251  0.1476 -0.5181
15530TIP3    H268082   4.928   5.524  16.231  0.6700  0.7148 -2.7243
15531TIP3   OH268083   3.399   0.296  14.460  0.8383 -0.2836  1.1201
15531TIP3    H168084   3.393   0.332  14.548 -1.0333  1.2650  0.4172
15531TIP3    H268085   3.328   0.232  14.454 -0.2690  0.9735  0.1914
15532TIP3   OH268086   1.455   3.566   2.273 -0.7219 -0.6159  0.1244
15532TIP3    H168087   1.359   3.568   2.264 -0.5777 -0.2423 -1.6384
15532TIP3    H268088   1.487   3.616   2.198  0.8071  1.3223  1.9695
15533TIP3   OH268089   0.836   1.457  14.159  0.0828  0.1763  0.2746
15533TIP3    H168090   0.790   1.536  14.187  1.1000  0.0185  2.6315
15533TIP3    H268091   0.928   1.472  14.183  0.7040 -0.8508 -1.2537
15534TIP3   OH268092   1.293   1.423  16.032  0.5465  0.1861 -0.2222
15534TIP3    H168093   1.311   1.376  16.113  2.6453 -2.2883 -1.9703
15534TIP3    H268094   1.200   1.406  16.015  0.7161 -1.5071  0.3610
15535TIP3   OH268095   3.880   6.729  16.798  0.3554 -0.1425 -0.0436
15535TIP3    H168096   3.794   6.760  16.826  0.5527  1.3263 -0.9458
15535TIP3    H268097   3.918   6.689  16.877 -1.2235 -1.0592  0.2992
15536TIP3   OH268098   4.774   3.470  15.474  0.2160 -0.1979  0.3759
15536TIP3    H168099   4.852   3.461  15.528 -0.0533  0.3224  0.8611
15536TIP3    H268100   4.803   3.448  15.386  1.2175  1.2027  0.3175
15537TIP3   OH268101   5.035   6.045   3.556  0.0540  0.5147  0.0025
15537TIP3    H168102   5.035   6.141   3.557  0.0554  0.5157  0.8076
15537TIP3    H268103   4.988   6.022   3.476  0.9905  1.1796 -0.7570
15538TIP3   OH268104   0.848   2.203  13.359 -0.5140 -0.0604 -0.2247
15538TIP3    H168105   0.927   2.254  13.376 -0.1902 -0.4048 -0.6605
15538TIP3    H268106   0.879   2.113  13.351 -1.1025 -0.3547  0.7068
15539TIP3   OH268107   1.096   6.601   3.479 -0.7104  0.4521  0.3685
15539TIP3    H168108   1.125   6.637   3.563 -1.5200 -1.0005  1.3170
15539TIP3    H268109   1.054   6.674   3.435  0.6511  1.5119  0.7582
15540TIP3   OH268110   0.593   2.392  16.962  0.0731  0.3263  0.1756
15540TIP3    H168111   0.527   2.449  16.924 -0.4418  0.6653  1.5347
15540TIP3    H268112   0.545   2.312  16.986  0.3738  0.1458  0.1878
15541TIP3   OH268113   1.663   4.743   5.887 -0.8031  0.0434 -0.4162
15541TIP3    H168114   1.574   4.747   5.852 -1.1928 -0.8449  0.4326
15541TIP3    H268115   1.667   4.814   5.951 -1.1692 -0.4102  0.1186
15542TIP3   OH268116   1.071   5.805   2.745  0.8747  0.6644  0.2098
15542TIP3    H168117   1.105   5.756   2.820  0.2981 -0.2928 -0.1348
15542TIP3    H268118   1.149   5.841   2.703  1.6258 -2.1295 -1.0160
15543TIP3   OH268119   4.398   2.919  14.984 -0.2985 -0.0653 -0.4149
15543TIP3    H168120   4.411   2.824  14.976 -1.3820 -0.2211 -0.4189
15543TIP3    H268121   4.448   2.942  15.063  1.1295 -0.3804 -1.1763
15544TIP3   OH268122   0.016   0.390  12.175  0.8327  0.1037 -0.6083
15544TIP3    H168123  -0.063   0.367  12.125 -0.4847 -0.9754  1.7619
15544TIP3    H268124   0.082   0.328  12.146  0.5154  0.3776 -1.9500
15545TIP3   OH268125   4.650   1.481  13.841  0.6167 -0.1749 -0.6392
15545TIP3    H168126   4.592   1.545  13.799  0.4261  0.4339  0.5013
15545TIP3    H268127   4.670   1.520  13.926  1.8693 -0.8644 -0.6019
15546TIP3   OH268128   1.472   3.838   4.582 -0.5541  0.1465  0.3083
15546TIP3    H168129   1.401   3.796   4.534  0.2183  1.3259 -2.0257
15546TIP3    H268130   1.549   3.826   4.526 -0.2290  4.2482 -0.4045
15547TIP3   OH268131   3.042   1.880  11.153 -0.3505 -0.0606  0.2401
15547TIP3    H168132   2.961   1.858  11.199 -0.8747 -1.4226 -1.2381
15547TIP3    H268133   3.013   1.931  11.077 -0.0121 -1.6605 -1.0238
15548TIP3   OH268134   5.883   2.254  15.198 -0.0361 -0.5941 -0.2051
15548TIP3    H168135   5.957   2.194  15.211 -0.1917 -0.7315  0.0348
15548TIP3    H268136   5.815   2.200  15.159 -0.2444 -0.6177  0.1879
15549TIP3   OH268137   2.022   5.968   0.285 -0.4183 -0.1869  0.4786
15549TIP3    H168138   2.050   5.896   0.228  1.7042  0.2480  0.9000
15549TIP3    H268139   2.067   5.952   0.368  0.1507  1.6406  0.5627
15550TIP3   OH268140   2.004   3.628   2.088 -0.4669 -0.3695  0.6657
15550TIP3    H168141   1.922   3.579   2.082 -0.7609  0.0596  1.0457
15550TIP3    H268142   2.063   3.570   2.136 -1.2258  0.1454  2.2949
15551TIP3   OH268143   0.008   6.169  16.031 -0.0221 -0.5407 -0.8430
15551TIP3    H168144   0.035   6.114  16.105 -0.1897 -1.4215 -1.4300
15551TIP3    H268145   0.016   6.259  16.064  1.8359 -0.8359 -0.3944
15552TIP3   OH268146   3.162   5.631  13.758 -0.0750  0.0584 -0.0756
15552TIP3    H168147   3.137   5.654  13.669  0.9570 -0.8972 -0.6288
15552TIP3    H268148   3.209   5.548  13.750  0.0721 -0.0297  1.3539
15553TIP3   OH268149   2.617   0.183  12.116  0.1248  0.0689  0.3201
15553TIP3    H168150   2.639   0.098  12.155 -0.7970  0.0352  0.8147
15553TIP3    H268151   2.651   0.178  12.026  0.9942 -0.4146  0.6704
15554TIP3   OH268152   4.030   6.686   4.545  0.5676  0.2935 -0.1034
15554TIP3    H168153   4.042   6.781   4.551  0.5449  0.3707 -1.0855
15554TIP3    H268154   3.957   6.675   4.484 -0.1265 -0.3361  0.8241
15555TIP3   OH268155   1.257   4.547   0.545 -0.1747 -0.0626 -0.1467
15555TIP3    H168156   1.274   4.510   0.632  0.3898 -0.4917 -0.4282
15555TIP3    H268157   1.229   4.471   0.492 -0.4211  0.1772 -0.3654
15556TIP3   OH268158   1.988   0.025  15.858 -0.2070  0.0114 -0.1706
15556TIP3    H168159   2.075   0.033  15.897 -0.6982 -1.9562  1.5037
15556TIP3    H268160   1.942   0.105  15.883  0.5881  0.3030  0.3722
15557TIP3   OH268161   5.763   5.709  12.771 -0.6310 -0.0538  0.2722
15557TIP3    H168162   5.689   5.649  12.761 -1.1638  0.9652 -3.2198
15557TIP3    H268163   5.724   5.789  12.805 -1.3260  0.6405 -2.0100
15558TIP3   OH268164   5.238   1.003  11.173 -0.1487 -0.5296  0.0986
15558TIP3    H168165   5.240   1.059  11.096 -1.6196 -0.6642 -0.0613
15558TIP3    H268166   5.274   1.057  11.244  1.0586 -0.3541 -0.6151
15559TIP3   OH268167   3.046   0.529   0.738  0.0125 -0.2555  0.0996
15559TIP3    H168168   3.051   0.463   0.807 -1.6924 -0.5153  0.0383
15559TIP3    H268169   3.006   0.484   0.664 -0.8417  0.7108 -0.0669
15560TIP3   OH268170   1.626   4.815   2.616  0.4825 -0.6308 -0.5245
15560TIP3    H168171   1.718   4.794   2.631 -0.0623 -1.6419  1.8403
15560TIP3    H268172   1.579   4.770   2.686 -1.4165  3.3292  1.0509
15561TIP3   OH268173   0.257   0.340   2.180 -0.1075 -0.3195  0.5081
15561TIP3    H168174   0.310   0.313   2.106 -0.3213 -0.6532  0.4715
15561TIP3    H268175   0.169   0.351   2.143  0.1488  1.3683  0.3214
15562TIP3   OH268176   0.601   6.534   0.930 -0.0687 -0.2110 -0.1727
15562TIP3    H168177   0.531   6.489   0.884 -0.1846 -0.7877  0.5435
15562TIP3    H268178   0.674   6.534   0.868 -1.6775  3.6262 -2.4213
15563TIP3   OH268179   5.577   3.508  16.284 -0.6837 -0.0772  0.5622
15563TIP3    H168180   5.548   3.486  16.373  1.6975 -2.2807  0.9203
15563TIP3    H268181   5.561   3.428  16.234 -0.5298  0.6059 -0.5902
15564TIP3   OH268182   2.469   3.117  12.584 -0.0454 -0.1443  0.4032
15564TIP3    H168183   2.452   3.122  12.490 -1.4152 -1.7803  0.5096
15564TIP3    H268184   2.397   3.167  12.624 -0.1739 -0.5066  0.6268
15565TIP3   OH268185   2.286   3.430   3.645 -0.1171 -0.3598  0.3294
15565TIP3    H168186   2.270   3.520   3.617  0.5541 -0.5832 -0.8241
15565TIP3    H268187   2.199   3.389   3.645 -0.2040 -0.2168 -1.0176
15566TIP3   OH268188   0.833   5.181  11.161 -0.1923  0.0200  0.8429
15566TIP3    H168189   0.899   5.185  11.091 -0.6219  0.1267  0.4354
15566TIP3    H268190   0.751   5.206  11.117 -0.6837 -1.0642  1.1261
15567TIP3   OH268191   3.169   5.160  16.888  0.5006 -0.1118 -0.2690
15567TIP3    H168192   3.084   5.181  16.849  0.4265  0.5535  0.2316
15567TIP3    H268193   3.223   5.236  16.870  1.0707 -0.6331 -0.7912
15568TIP3   OH268194   6.060   3.822  16.692  0.4580  0.4124 -0.2192
15568TIP3    H168195   6.063   3.734  16.655 -0.8487  0.1867  0.1646
15568TIP3    H268196   5.969   3.849  16.683  1.0337  2.1640 -1.2850
15569TIP3   OH268197   4.273   2.418   3.349  0.7072  0.1010  0.2452
15569TIP3    H168198   4.304   2.507   3.371 -2.2914  0.9767  1.3987
15569TIP3    H268199   4.242   2.383   3.432 -0.7336 -0.9296 -0.6901
15570TIP3   OH268200   2.579   5.745  14.093  0.2939  0.3551  0.0629
15570TIP3    H168201   2.657   5.691  14.075  0.2662  0.3041  0.0955
15570TIP3    H268202   2.505   5.685  14.079  0.1795  0.7996 -1.4694
15571TIP3   OH268203   1.428   2.846   5.110  0.6188  0.0296 -0.6208
15571TIP3    H168204   1.341   2.881   5.094  1.2611  1.0422 -2.2030
15571TIP3    H268205   1.476   2.863   5.028  1.5830 -2.7868 -0.7528
15572TIP3   OH268206   0.221   0.883  13.100  0.6077 -0.2263 -0.4499
15572TIP3    H168207   0.143   0.840  13.134  1.9420  0.5590  4.2875
15572TIP3    H268208   0.286   0.812  13.094  0.8401 -0.0830  0.3398
15573TIP3   OH268209   1.239   0.937   2.620 -0.1583 -0.0930  0.2199
15573TIP3    H168210   1.315   0.882   2.641 -0.6271 -0.2329  1.6327
15573TIP3    H268211   1.238   0.940   2.524  1.7820  0.1353  0.1666
15574TIP3   OH268212   0.302   5.798   4.952  0.1684  0.1198  0.1140
15574TIP3    H168213   0.356   5.877   4.947 -0.3289  0.4006 -0.9531
15574TIP3    H268214   0.266   5.800   5.041  1.8851 -0.0759  0.8580
15575TIP3   OH268215   4.450   4.249   1.264  0.0154  0.2004  0.3770
15575TIP3    H168216   4.481   4.335   1.238 -1.1972 -0.1158 -2.4884
15575TIP3    H268217   4.358   4.262   1.287  0.3918  0.0063  2.0770
15576TIP3   OH268218   3.376   2.560   4.141  0.4631 -1.0282 -0.0328
15576TIP3    H168219   3.363   2.609   4.222  1.9136  1.4828 -1.1966
15576TIP3    H268220   3.309   2.594   4.081  0.6255 -1.4486 -0.4601
15577TIP3   OH268221   1.052   1.884   0.272  0.3719 -0.1882 -0.4791
15577TIP3    H168222   1.120   1.817   0.275 -0.3556 -0.9115  1.5520
15577TIP3    H268223   1.008   1.877   0.357  0.0175  2.5948 -0.3367
15578TIP3   OH268224   2.598   0.640   0.010  0.0884 -0.1261 -0.2721
15578TIP3    H168225   2.660   0.587   0.061 -1.2175 -1.6812 -0.2055
15578TIP3    H268226   2.563   0.702   0.073 -1.8355 -2.3159  0.9609
15579TIP3   OH268227   1.132   5.336   1.575 -0.0542 -0.3428  0.6887
15579TIP3    H168228   1.137   5.314   1.482  1.8248  0.4544  0.5558
15579TIP3    H268229   1.042   5.314   1.600  0.1870 -3.2194 -0.6137
15580TIP3   OH268230   5.079   0.398  14.444  0.2347  0.2934  0.0199
15580TIP3    H168231   5.032   0.460  14.500 -0.6028  1.7227 -2.1382
15580TIP3    H268232   5.036   0.314  14.460  1.2556  0.2034  2.8519
15581TIP3   OH268233   3.207   5.068  13.087 -0.6352 -0.6754 -0.1608
15581TIP3    H168234   3.129   5.112  13.121 -0.7952 -0.8656 -0.2804
15581TIP3    H268235   3.275   5.087  13.152 -1.2183 -1.9595  0.8719
15582TIP3   OH268236   2.470   6.373  11.142  0.1949 -0.3652  0.6737
15582TIP3    H168237   2.381   6.401  11.122  0.2182 -0.1897  0.8085
15582TIP3    H268238   2.483   6.397  11.234 -0.2722 -2.0935  1.2208
15583TIP3   OH268239   1.872   0.954  15.544  0.1002 -0.1058 -0.2251
15583TIP3    H168240   1.812   0.919  15.478 -2.1543 -1.0471  2.1853
15583TIP3    H268241   1.860   1.049  15.540  0.3769 -0.1004 -1.4520
15584TIP3   OH268242   5.297   5.339  11.860  0.2988  0.3211  0.2804
15584TIP3    H168243   5.340   5.357  11.777 -2.3449 -0.4286 -1.3670
15584TIP3    H268244   5.256   5.253  11.848 -0.5911  0.4294  2.1525
15585TIP3   OH268245   2.179   5.341   2.086  0.2419  0.0443 -0.3866
15585TIP3    H168246   2.148   5.353   2.175 -3.6372 -0.8358 -1.4490
15585TIP3    H268247   2.144   5.416   2.037 -0.4018 -1.0666 -1.7057
15586TIP3   OH268248   6.363   6.796   4.511  0.5058 -0.7882 -0.7275
15586TIP3    H168249   6.274   6.780   4.480  0.8211 -0.9537 -1.5677
15586TIP3    H268250   6.363   6.889   4.535  0.2242 -0.6788 -1.1324
15587TIP3   OH268251   5.204   3.192   4.908  0.1998  0.1200  0.0549
15587TIP3    H168252   5.253   3.114   4.937  0.0067  0.5327  1.5677
15587TIP3    H268253   5.261   3.265   4.931 -0.6643  0.5448  0.9049
15588TIP3   OH268254   2.203   1.371  16.316 -0.0934  0.3593  1.0205
15588TIP3    H168255   2.157   1.387  16.399 -0.9850 -0.0856  0.6301
15588TIP3    H268256   2.292   1.402  16.332  0.2722 -1.3526  2.7318
15589TIP3   OH268257   4.932   0.386  16.881  0.1372  0.7342  0.2778
15589TIP3    H168258   4.979   0.442  16.943 -0.2660  0.7940  0.5355
15589TIP3    H268259   4.854   0.358  16.929  1.3000 -1.7152  0.9100
15590TIP3   OH268260   2.551   3.457   4.585  0.1965  0.3529 -0.6121
15590TIP3    H168261   2.629   3.430   4.631  0.8272  1.5340 -0.9398
15590TIP3    H268262   2.547   3.552   4.597 -0.2830  0.5287 -1.9541
15591TIP3   OH268263   4.923   3.600   5.051 -0.0434 -0.0436  0.4026
15591TIP3    H168264   4.992   3.633   4.994 -0.6798 -1.8175 -1.4992
15591TIP3    H268265   4.968   3.539   5.110 -0.0553 -2.2094 -1.6778
15592TIP3   OH268266   3.474   4.830  16.996  0.2039 -0.1866 -0.2622
15592TIP3    H168267   3.458   4.838  16.902  1.0244 -2.3788 -0.6543
15592TIP3    H268268   3.549   4.770  17.002 -0.1712 -0.5043  1.8009
15593TIP3   OH268269   2.746   0.207   4.312  0.5634  0.3179 -0.6471
15593TIP3    H168270   2.681   0.145   4.279  0.0606  1.1768 -1.3126
15593TIP3    H268271   2.812   0.213   4.242 -0.2493  1.7665 -1.3374
15594TIP3   OH268272   2.162   3.634   1.017  0.3916  0.2281  0.1248
15594TIP3    H168273   2.227   3.696   0.985  1.0533 -1.2510 -1.5477
15594TIP3    H268274   2.175   3.632   1.112  2.4808  0.3303 -0.1197
15595TIP3   OH268275   3.288   4.367  15.912 -0.1242  0.0435 -0.1834
15595TIP3    H168276   3.324   4.281  15.933 -1.0801  0.0111  1.5559
15595TIP3    H268277   3.269   4.364  15.819 -1.8571 -2.3029  0.1723
15596TIP3   OH268278   2.235   2.383  17.164 -0.5876 -0.3573 -0.3817
15596TIP3    H168279   2.321   2.408  17.198 -0.7015 -0.8514  0.2812
15596TIP3    H268280   2.184   2.360  17.241 -1.7134  1.0644 -0.6540
15597TIP3   OH268281   5.443   3.216  12.824  0.3305  0.9217 -0.9668
15597TIP3    H168282   5.373   3.271  12.860  1.1588  0.8314  0.9448
15597TIP3    H268283   5.458   3.250  12.736 -1.5395  1.4609 -1.1245
15598TIP3   OH268284   4.317   3.468   2.257  0.3443 -0.0015  0.0275
15598TIP3    H168285   4.270   3.385   2.251  0.7815 -0.2306 -0.2297
15598TIP3    H268286   4.248   3.534   2.246  0.2861 -0.3437 -2.1439
15599TIP3   OH268287   0.410   2.786  16.905  0.8407 -0.0383 -0.0064
15599TIP3    H168288   0.333   2.782  16.963  0.6275  0.2026 -0.2748
15599TIP3    H268289   0.374   2.796  16.817  1.2231  2.2480  0.0540
15600TIP3   OH268290   1.487   5.557  13.148  0.2928 -0.3575  0.5001
15600TIP3    H168291   1.558   5.580  13.207 -0.3228  0.9592  0.7747
15600TIP3    H268292   1.422   5.514  13.204  1.0435 -2.0349  0.1567
15601TIP3   OH268293   5.967   2.929   2.443  0.1870  0.3820 -0.3006
15601TIP3    H168294   5.872   2.939   2.439  0.3594  3.1010  0.3713
15601TIP3    H268295   5.992   2.971   2.525  1.9798 -0.3213 -0.4435
15602TIP3   OH268296   6.441   5.111  15.102  0.1707 -0.3446  0.8383
15602TIP3    H168297   6.536   5.106  15.106  0.1589 -0.8071  0.6438
15602TIP3    H268298   6.411   5.035  15.151 -0.0736 -1.0060 -0.2947
15603TIP3   OH268299   1.829   6.241   5.325  0.1215  0.1365  0.2803
15603TIP3    H168300   1.862   6.320   5.369  0.1837  1.2080 -1.5885
15603TIP3    H268301   1.811   6.270   5.235  0.7997 -2.1419 -0.6432
15604TIP3   OH268302   2.739   1.080   3.353 -0.7641 -0.4726 -0.2767
15604TIP3    H168303   2.646   1.072   3.373 -0.9791 -1.8874 -1.6429
15604TIP3    H268304   2.751   1.027   3.275  1.8158 -3.0353  1.6745
15605TIP3   OH268305   3.454   6.786  17.074  0.5048  0.0038  0.0174
15605TIP3    H168306   3.409   6.706  17.101  1.1190 -0.6492 -0.8576
15605TIP3    H268307   3.497   6.817  17.153 -1.7651  0.8657  0.9904
15606TIP3   OH268308   1.185   1.971  14.281 -0.0963 -0.1145 -0.4785
15606TIP3    H168309   1.098   1.947  14.248 -0.1950 -1.0590  0.4210
15606TIP3    H268310   1.242   1.901  14.249 -0.0147 -0.4946  0.4682
15607TIP3   OH268311   4.130   2.798   1.700  0.0366 -0.2318  0.0629
15607TIP3    H168312   4.149   2.880   1.656 -1.0392 -0.5685 -1.0848
15607TIP3    H268313   4.087   2.824   1.782  0.4344  0.3541  0.0920
15608TIP3   OH268314   0.024   1.280  13.761 -0.4460 -0.3108 -0.0158
15608TIP3    H168315   0.104   1.307  13.806  0.4602 -1.9759 -0.5267
15608TIP3    H268316   0.029   1.184  13.757 -1.2337 -0.3393 -2.2300
15609TIP3   OH268317   6.265   1.213  13.787 -0.3696 -0.1079  0.1169
15609TIP3    H168318   6.196   1.254  13.838 -0.8728  0.2245 -0.7996
15609TIP3    H268319   6.221   1.141  13.741 -0.4348  0.9263 -1.5054
15610TIP3   OH268320   0.030   6.797  12.118 -0.6100 -0.1551  0.1955
15610TIP3    H168321   0.070   6.724  12.071  0.5799  0.3545  0.3801
15610TIP3    H268322  -0.034   6.757  12.177 -0.0177 -1.0314  0.2430
15611TIP3   OH268323   4.806   3.848   2.968  0.3775 -0.4915 -0.4051
15611TIP3    H168324   4.751   3.915   3.008 -1.3985 -1.7346 -0.6125
15611TIP3    H268325   4.844   3.891   2.891 -2.1743 -0.1426 -1.6000
15612TIP3   OH268326   0.037   3.533   0.869 -0.5330 -0.6174  0.1913
15612TIP3    H168327   0.088   3.593   0.923 -0.4356 -1.1877  0.7373
15612TIP3    H268328  -0.052   3.538   0.904 -0.2413 -1.8337  1.1508
15613TIP3   OH268329   0.519   1.571  13.979  0.1524 -0.2905  0.2675
15613TIP3    H168330   0.579   1.496  13.973  0.5414 -0.2300  2.6309
15613TIP3    H268331   0.565   1.642  13.934 -0.5790 -1.5880 -2.7649
15614TIP3   OH268332   4.759   4.184   3.340 -0.5241 -0.1292  0.4212
15614TIP3    H168333   4.795   4.134   3.414  0.3229 -1.2150 -0.6769
15614TIP3    H268334   4.831   4.239   3.310 -0.8859  0.3638  0.4377
15615TIP3   OH268335   4.019   3.178   5.256  0.6635 -0.5728  0.2477
15615TIP3    H168336   4.055   3.133   5.180 -1.6619 -0.1469 -1.1966
15615TIP3    H268337   3.971   3.111   5.304  0.1437 -0.3623  0.0264
15616TIP3   OH268338   2.540   5.127  13.920  0.0413  0.0551  0.2132
15616TIP3    H168339   2.529   5.205  13.974  0.2319 -0.5732  1.1819
15616TIP3    H268340   2.459   5.122  13.868  0.3984  1.3653 -0.5079
15617TIP3   OH268341   4.130   0.685   2.230  0.1903 -0.1851 -0.0259
15617TIP3    H168342   4.136   0.621   2.160  1.4921 -0.8262  0.6272
15617TIP3    H268343   4.049   0.733   2.213  0.3696 -0.4779 -1.8116
15618TIP3   OH268344   3.861   0.243  15.790 -0.3179 -0.0846  0.3188
15618TIP3    H168345   3.838   0.255  15.698 -0.5738 -0.4188  0.3358
15618TIP3    H268346   3.873   0.332  15.824  2.7323  0.0225 -0.7397
15619TIP3   OH268347   5.482   2.617   5.378  0.2994 -0.8827  0.2618
15619TIP3    H168348   5.391   2.599   5.404  0.4397 -1.3538  0.4386
15619TIP3    H268349   5.514   2.678   5.444  0.0921 -0.6694  0.1651
15620TIP3   OH268350   6.776   4.720   0.831 -0.3537  0.3475  0.3663
15620TIP3    H168351   6.805   4.632   0.856  1.3078  1.2573  1.8183
15620TIP3    H268352   6.830   4.743   0.756 -0.3245  0.4033  0.4048
15621TIP3   OH268353   2.548   1.830  13.740  0.1911  0.5293 -0.2693
15621TIP3    H168354   2.525   1.737  13.732  0.1071  0.6334 -1.3152
15621TIP3    H268355   2.469   1.872  13.773  0.0055  0.3415 -0.4752
15622TIP3   OH268356   1.885   2.987  14.427 -0.8188  0.2106  0.4175
15622TIP3    H168357   1.916   3.076  14.446 -0.9631  0.7079 -1.5037
15622TIP3    H268358   1.885   2.943  14.512  0.4958  1.6501  1.2032
15623TIP3   OH268359   6.768   6.400  12.368 -0.3047  0.2035  0.1442
15623TIP3    H168360   6.710   6.331  12.338 -0.5131  0.6679 -0.5524
15623TIP3    H268361   6.782   6.382  12.461 -1.1538 -0.1978  0.1973
15624TIP3   OH268362   5.895   1.065  13.996 -0.2002 -0.3714  0.1980
15624TIP3    H168363   5.980   1.032  14.025 -0.5070 -1.5186 -0.1558
15624TIP3    H268364   5.881   1.025  13.910 -0.5560  0.7699 -0.2916
15625TIP3   OH268365   6.285   0.668   5.533 -0.7441 -0.0385 -0.3129
15625TIP3    H168366   6.315   0.638   5.447  0.4766  1.8644 -0.6229
15625TIP3    H268367   6.192   0.686   5.521 -0.4530  0.8199 -1.4566
15626TIP3   OH268368   5.283   4.776   2.824  0.5383  0.5425 -0.1269
15626TIP3    H168369   5.294   4.686   2.793  2.4452 -0.3175  2.7137
15626TIP3    H268370   5.219   4.769   2.895  0.3633  1.5498 -0.1694
15627TIP3   OH268371   0.559   2.330  11.956  0.5881  0.0394 -0.8309
15627TIP3    H168372   0.564   2.361  12.047 -0.0573  2.4681 -1.5325
15627TIP3    H268373   0.650   2.334  11.925  0.5698  0.9776 -0.7935
15628TIP3   OH268374   2.064   1.480  15.409  0.9710 -0.4214 -0.1725
15628TIP3    H168375   2.081   1.519  15.324  1.0154  0.0041  0.0312
15628TIP3    H268376   2.004   1.541  15.452  1.6068 -0.2079  0.4257
15629TIP3   OH268377   5.591   0.000   2.994  0.4864  0.7099 -0.0423
15629TIP3    H168378   5.659  -0.031   2.934 -0.6356 -0.5327 -0.7148
15629TIP3    H268379   5.606  -0.049   3.075  1.1810  1.4201  0.2811
15630TIP3   OH268380   0.263   1.075   4.000  0.0281 -0.0573  0.0519
15630TIP3    H168381   0.356   1.091   3.989  0.2093  0.6259  2.0842
15630TIP3    H268382   0.221   1.137   3.941  0.8691  0.9634  0.4837
15631TIP3   OH268383   4.300   2.043  11.229  0.2083  0.1644 -0.2815
15631TIP3    H168384   4.364   2.055  11.300  0.8481  1.4206 -1.0309
15631TIP3    H268385   4.317   1.955  11.196  0.5929 -0.0490  0.4735
15632TIP3   OH268386   2.264   5.046   4.854  0.2337  0.0825 -0.8322
15632TIP3    H168387   2.340   5.012   4.901  0.0741  0.5467 -0.2293
15632TIP3    H268388   2.215   5.096   4.919 -1.1345 -1.0292 -0.9317
15633TIP3   OH268389   4.615   3.765   1.617 -0.1507 -0.4740 -0.0158
15633TIP3    H168390   4.697   3.804   1.647  0.6081 -1.1299 -1.1317
15633TIP3    H268391   4.548   3.801   1.674  0.7327  1.1525  0.0415
15634TIP3   OH268392   2.632   2.122  16.976 -0.0321  0.1689 -0.0347
15634TIP3    H168393   2.672   2.205  16.950 -0.2154 -0.3857 -2.2717
15634TIP3    H268394   2.673   2.057  16.919 -0.8907 -1.0919  0.7364
15635TIP3   OH268395   1.028   6.167  14.110 -0.7079  0.1007 -0.0960
15635TIP3    H168396   0.945   6.119  14.102  0.4893 -1.9160 -1.3295
15635TIP3    H268397   1.029   6.225  14.034 -0.3457 -1.0129 -0.9756
15636TIP3   OH268398   3.764   6.674  12.198 -0.6370 -0.0241  0.0468
15636TIP3    H168399   3.761   6.584  12.230  0.0264  0.6589  2.2080
15636TIP3    H268400   3.796   6.667  12.108  1.3733 -1.8377  0.8289
15637TIP3   OH268401   1.521   0.461   1.564 -0.2507  0.5339 -0.5330
15637TIP3    H168402   1.596   0.476   1.622  0.2964  0.5518 -1.2362
15637TIP3    H268403   1.491   0.548   1.541  0.1727  0.5380 -1.0880
15638TIP3   OH268404   6.757   4.544   0.441 -0.1875  0.4240  0.1148
15638TIP3    H168405   6.752   4.457   0.401 -1.3674  0.8852 -0.8019
15638TIP3    H268406   6.775   4.527   0.533  2.1639 -0.6992 -0.4655
15639TIP3   OH268407   5.159   4.196   5.622  0.7312  0.0634  0.1694
15639TIP3    H168408   5.120   4.123   5.672  2.4476 -0.9300  0.1420
15639TIP3    H268409   5.144   4.173   5.531  0.5382  0.1800  0.1705
15640TIP3   OH268410   4.053   2.166  14.595 -0.2853 -0.3523 -0.9428
15640TIP3    H168411   4.083   2.177  14.685 -0.8306  2.0866 -0.9874
15640TIP3    H268412   3.962   2.198  14.596 -0.3417 -0.3930 -2.3160
15641TIP3   OH268413   4.767   2.881   4.020 -0.3712 -0.9689  0.1079
15641TIP3    H168414   4.693   2.941   4.035  0.3337  0.3115 -1.2261
15641TIP3    H268415   4.747   2.804   4.073 -2.2438 -0.3094  0.4348
15642TIP3   OH268416   3.418   4.914   2.390 -0.3971  0.3866  0.3581
15642TIP3    H168417   3.383   4.840   2.341 -2.6028  0.5576  1.5247
15642TIP3    H268418   3.380   4.991   2.347  1.9178  0.9125 -0.8771
15643TIP3   OH268419   1.848   0.534  15.980 -0.5036 -0.0237  0.0474
15643TIP3    H168420   1.774   0.472  15.984 -1.9293  1.6216  0.1244
15643TIP3    H268421   1.807   0.620  15.985  1.3085  0.9970 -1.5475
15644TIP3   OH268422   1.286   4.600   1.270 -0.0303 -0.4973  0.0608
15644TIP3    H168423   1.268   4.577   1.361  1.1886  2.1433  1.0761
15644TIP3    H268424   1.361   4.659   1.274 -1.1163  1.2755 -2.4507
15645TIP3   OH268425   5.290   2.404  14.775 -0.0830  0.3842 -0.0272
15645TIP3    H168426   5.276   2.447  14.690 -0.0022  2.2344  0.8378
15645TIP3    H268427   5.317   2.475  14.833  2.6478 -1.2604  0.9193
15646TIP3   OH268428   0.212   6.081   1.990  0.0834 -0.3384  0.3666
15646TIP3    H168429   0.294   6.099   1.944 -0.8411 -1.9698 -2.1508
15646TIP3    H268430   0.154   6.152   1.965 -0.4142 -1.2176 -1.0845
15647TIP3   OH268431   1.719   3.242  12.095  0.4345 -0.6482 -0.6818
15647TIP3    H168432   1.755   3.331  12.093 -0.9348 -0.0771 -1.3203
15647TIP3    H268433   1.624   3.255  12.092  0.2071 -2.1351 -0.6060
15648TIP3   OH268434   2.758   0.147  12.514  0.1180  0.2342 -0.4766
15648TIP3    H168435   2.785   0.087  12.584  1.3477  0.8676 -0.3814
15648TIP3    H268436   2.729   0.089  12.443  0.6357 -0.4616 -0.1314
15649TIP3   OH268437   3.819   2.451  14.362  0.4896 -0.0692 -0.2175
15649TIP3    H168438   3.850   2.497  14.440  0.3752 -1.7624  0.8744
15649TIP3    H268439   3.891   2.391  14.340  0.6297  0.5594 -1.5993
15650TIP3   OH268440   5.999   3.093   0.115 -0.0711  0.0560 -0.0049
15650TIP3    H168441   5.932   3.151   0.080  0.0967 -0.4385 -1.1863
15650TIP3    H268442   6.037   3.050   0.038  0.7683 -0.5750  0.7328
15651TIP3   OH268443   5.653   2.401  16.767  0.0973  0.2383 -0.4409
15651TIP3    H168444   5.643   2.308  16.786 -0.0735  0.4152  0.3428
15651TIP3    H268445   5.617   2.411  16.678 -2.7154  0.0732  0.5899
15652TIP3   OH268446   1.577   1.981   2.131  0.5275  0.4168  0.0190
15652TIP3    H168447   1.549   1.926   2.205 -1.7268  2.2774  0.6472
15652TIP3    H268448   1.662   1.946   2.107 -0.1559 -2.4335  1.2982
15653TIP3   OH268449   3.584   3.337  15.929  0.1811  0.0266  0.9657
15653TIP3    H168450   3.504   3.375  15.966  0.0268 -1.1554  1.8897
15653TIP3    H268451   3.595   3.254  15.975  1.5628 -0.1595  0.3460
15654TIP3   OH268452   5.118   0.270  15.008  0.0813 -0.2245 -0.2790
15654TIP3    H168453   5.139   0.178  14.992 -1.1736 -0.5295 -0.3325
15654TIP3    H268454   5.022   0.274  15.000  0.0412  0.9276  0.5146
15655TIP3   OH268455   3.112   2.813   0.429  0.3739 -0.3797 -0.2208
15655TIP3    H168456   3.146   2.886   0.376  0.4544  0.7416  1.3142
15655TIP3    H268457   3.159   2.736   0.397  0.7410  0.3254 -1.4535
15656TIP3   OH268458   6.262   5.052  15.416 -0.5168 -0.2998  0.5064
15656TIP3    H168459   6.263   4.956  15.418 -0.7850 -0.3150 -0.0659
15656TIP3    H268460   6.340   5.075  15.366 -0.8037 -0.2361  0.0866
15657TIP3   OH268461   5.480   1.532   5.602  0.3003  0.5555 -1.2236
15657TIP3    H168462   5.455   1.453   5.554  0.0862 -2.0418  2.7038
15657TIP3    H268463   5.397   1.572   5.627  0.0278 -1.5142  1.8037
15658TIP3   OH268464   3.308   6.449  14.332 -0.6037 -0.4084  0.0644
15658TIP3    H168465   3.223   6.482  14.362 -0.5440 -0.8499  0.7163
15658TIP3    H268466   3.297   6.354  14.326 -0.2948 -0.4265 -0.3082
15659TIP3   OH268467   0.549   4.228  13.172  0.0826  0.1847  0.5403
15659TIP3    H168468   0.594   4.168  13.112  0.9169  1.0983  0.2229
15659TIP3    H268469   0.618   4.286  13.204 -0.9233  1.9689 -0.3513
15660TIP3   OH268470   3.209   1.832  17.046  0.0077 -0.2296  0.0405
15660TIP3    H168471   3.304   1.828  17.042  0.0257  0.1137  0.0882
15660TIP3    H268472   3.183   1.880  16.967 -0.1046 -0.0212  0.2032
15661TIP3   OH268473   0.031   2.100   2.066 -0.1053 -0.2416 -0.0066
15661TIP3    H168474   0.125   2.085   2.072 -0.0657 -0.1711 -0.4178
15661TIP3    H268475  -0.008   2.028   2.115  0.1552 -0.4037 -0.0367
15662TIP3   OH268476   4.796   5.718  12.072 -0.3876 -0.3226  0.2857
15662TIP3    H168477   4.770   5.692  11.984  1.0296  0.4693 -0.3907
15662TIP3    H268478   4.809   5.813  12.067 -0.2015 -0.2736  1.3309
15663TIP3   OH268479   2.943   0.083   0.062  0.2766  0.1780  0.5143
15663TIP3    H168480   2.991   0.104   0.142  1.3341  0.8380 -0.2456
15663TIP3    H268481   2.886   0.159   0.048  1.3569  0.8918 -0.2392
15664TIP3   OH268482   5.969   6.277  15.225 -0.0482  0.1846 -0.3662
15664TIP3    H168483   5.968   6.226  15.307  2.0371  0.5035 -0.0762
15664TIP3    H268484   5.888   6.327  15.227  0.7029  1.5549  2.4669
15665TIP3   OH268485   2.228   4.707   4.483  0.5023 -0.3311 -0.0141
15665TIP3    H168486   2.192   4.765   4.551  0.0646  0.0417 -0.5582
15665TIP3    H268487   2.190   4.740   4.401 -0.0519 -1.6166 -0.2895
15666TIP3   OH268488   6.472   4.769   1.592 -0.0714  0.1811 -0.0395
15666TIP3    H168489   6.403   4.708   1.617 -1.1463  0.9105 -1.1093
15666TIP3    H268490   6.469   4.838   1.658 -0.5548  0.3501 -0.2391
15667TIP3   OH268491   1.414   5.847   3.099  0.0129  0.1304  0.5259
15667TIP3    H168492   1.438   5.865   3.008 -2.2528  0.0339 -0.1436
15667TIP3    H268493   1.444   5.758   3.115  0.8376  0.3110  0.0445
15668TIP3   OH268494   6.231   2.630   1.761  0.5648  0.6038 -0.1311
15668TIP3    H168495   6.236   2.540   1.795 -0.6320  0.2262 -0.8864
15668TIP3    H268496   6.317   2.668   1.781  0.8523 -0.4758  0.8242
15669TIP3   OH268497   6.246   4.879  10.637 -0.2657  0.8264  0.0099
15669TIP3    H168498   6.194   4.841  10.708 -0.3826  2.2372  0.7310
15669TIP3    H268499   6.318   4.924  10.682  0.5297  0.4588 -0.8721
15670TIP3   OH268500   5.342   6.442   3.781  0.3965  0.3657  0.1240
15670TIP3    H168501   5.355   6.444   3.686  0.4090  1.5622  0.1256
15670TIP3    H268502   5.416   6.393   3.815  0.0825 -0.5806 -0.5243
15671TIP3   OH268503   5.268   5.872  11.935  0.0270 -0.1388 -0.7436
15671TIP3    H168504   5.282   5.783  11.905  1.3953  0.4604 -1.9826
15671TIP3    H268505   5.256   5.923  11.855 -1.7928  0.6453 -0.0167
15672TIP3   OH268506   6.685   1.731   5.457 -0.0371  0.0704 -0.2286
15672TIP3    H168507   6.722   1.764   5.374 -0.4073  0.2875 -0.3125
15672TIP3    H268508   6.592   1.753   5.451 -0.3595 -1.2812 -0.4215
15673TIP3   OH268509   6.045   1.346  10.372  0.0417  0.1428 -0.4888
15673TIP3    H168510   6.051   1.433  10.335 -2.1414  1.5081  2.0439
15673TIP3    H268511   6.040   1.360  10.467  0.3856 -2.7862  0.0804
15674TIP3   OH268512   5.349   1.214  12.781  0.2602  0.2238  0.1214
15674TIP3    H168513   5.341   1.121  12.803 -0.5271  0.0429 -0.8688
15674TIP3    H268514   5.267   1.253  12.811 -0.4681  0.1253 -1.6505
15675TIP3   OH268515   0.406   5.228   3.532 -0.1153 -0.3038 -0.2646
15675TIP3    H168516   0.420   5.315   3.496  0.3838 -0.5701 -0.7240
15675TIP3    H268517   0.333   5.239   3.593  0.1277  0.4904 -0.1047
15676TIP3   OH268518   2.193   3.774   0.410  0.3497  0.2409  0.7064
15676TIP3    H168519   2.113   3.802   0.366  0.2750 -1.6312 -0.4706
15676TIP3    H268520   2.176   3.684   0.437  2.5619 -0.8123 -1.0818
15677TIP3   OH268521   6.535   3.510   5.261  0.2544 -0.6471  0.2375
15677TIP3    H168522   6.597   3.438   5.250  2.6813  0.9911  2.0976
15677TIP3    H268523   6.584   3.577   5.307 -1.3692  2.8712 -2.6245
15678TIP3   OH268524   5.754   2.233   4.944 -0.1440  0.1511  0.1977
15678TIP3    H168525   5.696   2.203   5.014 -0.3714 -0.6032 -0.2963
15678TIP3    H268526   5.743   2.168   4.875  0.1809  0.8046 -0.4871
15679TIP3   OH268527   2.168   0.606  13.943 -0.2596 -0.0690 -0.1960
15679TIP3    H168528   2.228   0.680  13.955 -1.2828  0.8281 -0.4313
15679TIP3    H268529   2.093   0.627  13.998  0.6773 -2.4341  2.1385
15680TIP3   OH268530   4.213   3.207   2.426 -0.2572  1.0909  0.2431
15680TIP3    H168531   4.182   3.167   2.508 -0.1911  0.0187 -0.2307
15680TIP3    H268532   4.278   3.145   2.393 -0.4622  1.3878 -0.7378
15681TIP3   OH268533   5.143   0.595  16.986 -0.1397  0.4344 -0.0055
15681TIP3    H168534   5.110   0.603  17.076 -1.4728 -0.3136 -0.3930
15681TIP3    H268535   5.237   0.611  16.993 -0.5129  2.4075  1.2087
15682TIP3   OH268536   5.567   6.019  13.434 -0.6200  0.2749  0.1979
15682TIP3    H168537   5.617   5.964  13.374  0.2478  1.9990 -0.7373
15682TIP3    H268538   5.533   5.958  13.500  1.0977 -1.2175 -0.2187
15683TIP3   OH268539   3.035   0.297   5.296  0.1435 -0.3147 -0.4884
15683TIP3    H168540   3.045   0.204   5.319  0.3781 -0.1186  0.2536
15683TIP3    H268541   2.969   0.298   5.227 -1.3770 -0.8915  0.8706
15684TIP3   OH268542   4.181   3.951   0.221  0.2682 -0.0208 -0.2111
15684TIP3    H168543   4.156   4.027   0.274 -0.4465  0.7843 -1.6529
15684TIP3    H268544   4.182   3.878   0.283  2.1182  1.3158  1.4742
15685TIP3   OH268545   0.071   5.578   3.281  0.2427  0.0150  0.1809
15685TIP3    H168546   0.147   5.532   3.318  0.4793  1.1200  1.1263
15685TIP3    H268547   0.083   5.669   3.307 -2.1006  0.0074  1.6148
15686TIP3   OH268548   2.662   6.080  12.420  0.0478 -0.4301 -0.2592
15686TIP3    H168549   2.601   6.055  12.351  0.9290 -0.3258 -1.1092
15686TIP3    H268550   2.669   6.175  12.414 -0.2047 -0.3732  0.2724
15687TIP3   OH268551   0.353   3.404   0.369  0.7044  0.4036 -0.4931
15687TIP3    H168552   0.339   3.385   0.462 -0.1475  1.0649 -0.4669
15687TIP3    H268553   0.353   3.318   0.327  1.4745  0.0725  0.1571
15688TIP3   OH268554   2.801   6.331  14.486  0.2000 -0.2410  0.1221
15688TIP3    H168555   2.780   6.422  14.508  0.9419 -0.4847  1.9867
15688TIP3    H268556   2.715   6.289  14.477 -0.2411 -0.1430  2.9181
15689TIP3   OH268557   3.596   5.420  17.287  0.0957  0.3826  0.0702
15689TIP3    H168558   3.677   5.471  17.286 -0.1853  1.0625  2.7490
15689TIP3    H268559   3.531   5.478  17.327 -1.2821 -0.7214 -0.4592
15690TIP3   OH268560   6.482   0.640   3.430  0.3522 -0.2651 -0.3372
15690TIP3    H168561   6.558   0.604   3.476  0.9921 -0.6789 -1.6939
15690TIP3    H268562   6.475   0.589   3.350 -0.3360  0.8751 -1.0366
15691TIP3   OH268563   6.801   1.949  12.094  0.0849 -0.2584 -0.4415
15691TIP3    H168564   6.749   1.905  12.027  0.7648 -0.5672 -0.7752
15691TIP3    H268565   6.740   2.008  12.138 -0.3207  0.0894 -1.4556
15692TIP3   OH268566   5.757   0.484   1.304 -0.3643 -0.0712  0.1399
15692TIP3    H168567   5.688   0.440   1.256  0.2880  0.2525 -1.1571
15692TIP3    H268568   5.728   0.575   1.310 -0.0141  0.0953 -0.5306
15693TIP3   OH268569   2.081   2.930   6.771  0.5111 -0.1167  0.8199
15693TIP3    H168570   2.080   2.838   6.798  2.1238 -0.2466  0.5626
15693TIP3    H268571   2.002   2.967   6.810 -0.5298 -1.7516  0.3589
15694TIP3   OH268572   3.833   0.756  11.164  0.3170 -0.0444  0.0038
15694TIP3    H168573   3.810   0.666  11.188  0.1218  0.1773  0.6716
15694TIP3    H268574   3.856   0.751  11.071 -0.6559 -0.5991 -0.2191
15695TIP3   OH268575   2.760   2.482   5.508  0.1109 -0.0847  0.4468
15695TIP3    H168576   2.751   2.576   5.520  0.3946  0.0434 -0.2909
15695TIP3    H268577   2.671   2.449   5.509  0.0553  0.0663  1.6156
15696TIP3   OH268578   2.454   2.735   0.308  0.4973  0.3509  0.0032
15696TIP3    H168579   2.427   2.823   0.284 -0.4875  0.0794  0.0768
15696TIP3    H268580   2.548   2.742   0.323  0.2080  1.7031  1.4157
15697TIP3   OH268581   2.126   5.564  13.385 -0.4019  0.1655 -0.2571
15697TIP3    H168582   2.114   5.469  13.381 -1.2816  0.2343  0.3299
15697TIP3    H268583   2.219   5.578  13.368  0.4326 -1.0527  2.6726
15698TIP3   OH268584   0.132   3.086  17.017  0.2955 -0.0884 -0.3359
15698TIP3    H168585   0.064   3.100  17.083 -0.9458 -1.3886 -1.2746
15698TIP3    H268586   0.145   2.991  17.015  1.2969  0.0475 -1.0036
15699TIP3   OH268587   3.628   4.119   5.741  0.1206 -0.0530 -0.7879
15699TIP3    H168588   3.698   4.054   5.739  0.9525  0.7582  0.3859
15699TIP3    H268589   3.661   4.187   5.801 -1.7160  0.2931 -0.1242
15700TIP3   OH268590   4.629   2.310  10.786 -0.1834  0.1129 -0.2443
15700TIP3    H168591   4.638   2.219  10.815  0.4106  0.6175  1.2230
15700TIP3    H268592   4.715   2.332  10.750 -0.4577 -0.0337 -0.9942
15701TIP3   OH268593   4.530   1.050  12.635 -0.0862  0.0789  0.7976
15701TIP3    H168594   4.620   1.082  12.639  0.0006 -0.1813  1.0307
15701TIP3    H268595   4.483   1.102  12.700 -0.3071  0.8220  0.0593
15702TIP3   OH268596   2.216   0.528   3.980  0.1471 -0.1799  0.1222
15702TIP3    H168597   2.235   0.482   3.899 -0.1765  0.3219 -0.2465
15702TIP3    H268598   2.144   0.587   3.958  1.7357  1.8468  0.0990
15703TIP3   OH268599   5.854   3.019  11.779  0.0147 -0.1835  0.1945
15703TIP3    H168600   5.874   3.088  11.716  0.6069 -1.3669 -0.9675
15703TIP3    H268601   5.785   2.967  11.737 -0.8217  0.0049  1.2904
15704TIP3   OH268602   5.078   1.660  14.052  0.0470  0.2144  0.4914
15704TIP3    H168603   5.027   1.579  14.053  0.5801 -0.2084 -1.7144
15704TIP3    H268604   5.049   1.707  14.130 -2.9038 -0.5031 -0.0221
15705TIP3   OH268605   1.123   1.088  10.264  0.0937 -0.2089  0.5905
15705TIP3    H168606   1.185   1.154  10.234 -0.6882 -1.2241 -4.0054
15705TIP3    H268607   1.039   1.134  10.270 -0.1647 -0.3998 -1.1467
15706TIP3   OH268608   4.351   2.513  12.615 -0.1990 -0.8179 -0.1239
15706TIP3    H168609   4.361   2.486  12.706  0.8254 -0.8973 -0.2468
15706TIP3    H268610   4.283   2.580  12.617 -1.0767 -1.6897  0.5203
15707TIP3   OH268611   4.917   5.425   5.702  0.2932  0.5487 -0.0035
15707TIP3    H168612   4.868   5.504   5.680  0.5616  0.9522  0.7992
15707TIP3    H268613   4.875   5.393   5.782 -2.5864 -2.5306 -2.4482
15708TIP3   OH268614   4.235   3.238   3.270 -0.7752  0.5321  0.2834
15708TIP3    H168615   4.300   3.248   3.201 -1.0845 -1.5552 -0.4050
15708TIP3    H268616   4.256   3.306   3.334  1.7184  0.2953 -0.1847
15709TIP3   OH268617   2.002   4.116  14.838 -0.1926 -0.3992 -0.0070
15709TIP3    H168618   2.047   4.042  14.879 -2.0692 -1.2078  0.7120
15709TIP3    H268619   2.027   4.192  14.891  1.3338 -0.5775 -0.4301
15710TIP3   OH268620   2.633   1.058  16.850 -0.5069 -0.2664 -0.1647
15710TIP3    H168621   2.581   1.115  16.906 -0.2130 -0.2714  0.1159
15710TIP3    H268622   2.569   1.020  16.789 -0.7206  0.2499 -0.2634
15711TIP3   OH268623   5.276   5.378   5.088 -0.4480 -0.2492  0.1049
15711TIP3    H168624   5.357   5.419   5.119  0.4657 -1.6103 -0.3770
15711TIP3    H268625   5.222   5.370   5.166  0.6951 -1.0974  0.8464
15712TIP3   OH268626   0.279   5.036  10.784 -0.4469 -0.6551  0.3909
15712TIP3    H168627   0.231   5.119  10.780 -0.3523 -0.4495  2.2662
15712TIP3    H268628   0.348   5.045  10.719 -2.1513 -0.4505 -1.4853
15713TIP3   OH268629   6.631   5.463   1.185  0.0010 -0.1400 -0.4310
15713TIP3    H168630   6.574   5.535   1.214  0.4015  0.2148 -0.5206
15713TIP3    H268631   6.600   5.387   1.235 -0.5622  0.0426 -0.4903
15714TIP3   OH268632   2.249   1.492   3.770 -0.2209 -0.4757  0.2867
15714TIP3    H168633   2.184   1.509   3.838  0.5827  0.4908  0.8465
15714TIP3    H268634   2.307   1.427   3.808  0.1772 -0.0006  0.5036
15715TIP3   OH268635   3.737   2.954   0.478  0.3785 -0.1883 -0.2587
15715TIP3    H168636   3.804   3.019   0.457  2.1126 -1.5463  0.8470
15715TIP3    H268637   3.780   2.891   0.535 -1.5218 -1.7775 -0.4380
15716TIP3   OH268638   2.938   5.298   2.373  0.5282  0.5187 -0.0436
15716TIP3    H168639   2.968   5.269   2.287  2.3421  1.7200  0.1384
15716TIP3    H268640   2.845   5.272   2.375  1.2133 -2.3859 -1.0523
15717TIP3   OH268641   2.721   3.460   1.423  0.0246  0.5887  0.4286
15717TIP3    H168642   2.742   3.525   1.356  1.8567  0.8421  1.1968
15717TIP3    H268643   2.647   3.497   1.471 -0.9105  0.6926 -0.9908
15718TIP3   OH268644   3.556   1.339   6.533 -0.7131 -0.1333 -0.3188
15718TIP3    H168645   3.647   1.339   6.504 -1.0563  0.3242 -1.4379
15718TIP3    H268646   3.543   1.252   6.571  1.3301  1.0821  3.7382
15719TIP3   OH268647   6.731   6.582  11.514 -0.4251  0.2600 -0.5872
15719TIP3    H168648   6.699   6.671  11.521 -0.1247  0.4827 -1.8336
15719TIP3    H268649   6.726   6.547  11.603 -1.3352  1.2346 -0.2490
15720TIP3   OH268650   2.464   3.854   5.483 -0.6006  0.2947  0.6101
15720TIP3    H168651   2.493   3.771   5.519  0.9473 -0.0020 -1.1845
15720TIP3    H268652   2.403   3.831   5.414 -0.3616  0.6614  0.2723
15721TIP3   OH268653   2.256   5.110  10.617  0.5663  0.4701  0.2734
15721TIP3    H168654   2.316   5.045  10.654 -1.5802 -0.0438  3.2496
15721TIP3    H268655   2.295   5.134  10.533  2.7362 -2.8056  0.1649
15722TIP3   OH268656   6.410   0.644  16.909 -0.9006  0.3120 -0.2666
15722TIP3    H168657   6.352   0.595  16.967 -0.4938  0.4995  0.3130
15722TIP3    H268658   6.352   0.703  16.861 -1.2818 -0.0807 -0.2869
15723TIP3   OH268659   6.607   0.292  15.886  0.6685  0.0742  0.1057
15723TIP3    H168660   6.562   0.343  15.818 -0.3228 -1.2550 -0.2964
15723TIP3    H268661   6.694   0.275  15.850  0.5585  0.3967 -0.3189
15724TIP3   OH268662   3.356   2.379   0.704 -0.7150  0.0165  0.3019
15724TIP3    H168663   3.408   2.434   0.645  0.0203 -0.8979  0.0656
15724TIP3    H268664   3.398   2.391   0.790 -0.4034 -0.3397  0.2049
15725TIP3   OH268665   2.399   0.896  13.093  0.1208 -0.1048  0.3134
15725TIP3    H168666   2.469   0.831  13.097  0.0210 -0.4721 -2.2591
15725TIP3    H268667   2.414   0.952  13.169  0.6447 -2.6455  2.2198
15726TIP3   OH268668   5.930   5.607   0.262 -0.1789 -0.2130  0.0765
15726TIP3    H168669   5.845   5.650   0.253 -3.2358 -4.9705  1.8649
15726TIP3    H268670   5.968   5.645   0.342 -0.1283  2.5161 -1.1632
15727TIP3   OH268671   0.509   2.697  12.117 -0.5276 -0.1501  0.3085
15727TIP3    H168672   0.433   2.637  12.122  1.5562 -2.9152  3.5549
15727TIP3    H268673   0.510   2.741  12.201  0.3986  1.3726 -0.4581
15728TIP3   OH268674   0.769   0.836   3.362 -0.1886  0.8322  0.5744
15728TIP3    H168675   0.746   0.819   3.271  0.8528  1.8648  0.0981
15728TIP3    H268676   0.805   0.753   3.394 -0.3470  0.5298 -0.0228
15729TIP3   OH268677   3.695   3.088   2.290  0.0675 -0.1089  0.3697
15729TIP3    H168678   3.746   3.165   2.316  0.6367  0.1540 -1.3985
15729TIP3    H268679   3.630   3.122   2.228  1.1898 -1.1685 -1.4974
15730TIP3   OH268680   4.844   4.271  16.697 -0.2147 -0.4181 -0.2343
15730TIP3    H168681   4.858   4.316  16.780 -2.2887 -0.6364  0.3023
15730TIP3    H268682   4.758   4.229  16.707 -0.5530 -0.4032 -2.5116
15731TIP3   OH268683   3.924   5.063   2.780 -0.3420 -0.2654 -0.0805
15731TIP3    H168684   3.873   5.019   2.848 -1.1944 -0.2651 -0.7086
15731TIP3    H268685   3.863   5.076   2.708  0.4906 -0.0649 -0.7738
15732TIP3   OH268686   1.832   4.620   5.290  0.0643 -0.1790  0.1060
15732TIP3    H168687   1.860   4.530   5.307 -0.5728 -0.7675 -1.7825
15732TIP3    H268688   1.903   4.658   5.238 -0.5754 -0.2419 -0.8253
15733TIP3   OH268689   1.835   3.294  13.728 -0.5273  0.2381  0.3235
15733TIP3    H168690   1.867   3.255  13.809 -0.0709  0.2030  0.1267
15733TIP3    H268691   1.910   3.341  13.692 -0.6553  0.0492 -0.2040
15734TIP3   OH268692   0.373   2.762  12.910  0.4851  0.1325  0.5332
15734TIP3    H168693   0.455   2.768  12.961  1.2009 -1.9759 -0.2899
15734TIP3    H268694   0.317   2.705  12.962 -0.6947  1.9023  1.2978
15735TIP3   OH268695   5.107   1.042  15.180  0.8580 -0.4585  0.2133
15735TIP3    H168696   5.183   0.984  15.184  1.6186  0.4900 -0.2186
15735TIP3    H268697   5.071   1.040  15.269  0.5311 -2.0063  0.0797
15736TIP3   OH268698   1.196   1.584   2.623 -0.6459  0.6843 -0.0497
15736TIP3    H168699   1.242   1.521   2.567 -2.0880  0.3595 -0.9288
15736TIP3    H268700   1.254   1.660   2.626  0.6999 -0.3069  0.2571
15737TIP3   OH268701   6.242   5.807  11.910  0.2812  0.1550  0.1765
15737TIP3    H168702   6.331   5.779  11.932  0.2126  0.3605  0.7405
15737TIP3    H268703   6.186   5.740  11.950  0.1375  0.7694  1.0208
15738TIP3   OH268704   4.183   0.174  14.241  0.2580  0.2413 -0.0483
15738TIP3    H168705   4.136   0.203  14.319 -1.1814  0.3499 -0.9344
15738TIP3    H268706   4.170   0.079  14.239 -0.0240  0.2880 -0.3678
15739TIP3   OH268707   4.054   5.070   3.766  0.4069  0.3222 -0.1273
15739TIP3    H168708   4.087   5.132   3.701 -0.2856  1.3025  0.4252
15739TIP3    H268709   3.975   5.033   3.725  1.3818 -0.9982 -0.8821
15740TIP3   OH268710   6.333   3.592  13.587 -0.5981 -0.1654  0.7216
15740TIP3    H168711   6.331   3.602  13.492 -0.6176  0.9958  0.8277
15740TIP3    H268712   6.271   3.657  13.620  1.2580  1.2763  1.6169
15741TIP3   OH268713   1.684   0.464  13.761  0.1741 -0.2805  0.4836
15741TIP3    H168714   1.674   0.553  13.727  2.3603  0.1305  0.7537
15741TIP3    H268715   1.720   0.414  13.687  0.2364 -0.5939  0.7248
15742TIP3   OH268716   3.638   4.992   6.405 -0.4724 -0.5342 -0.2225
15742TIP3    H168717   3.687   5.011   6.485  2.4411  0.9080 -2.1841
15742TIP3    H268718   3.569   5.058   6.403 -0.4940 -0.5045  1.0260
15743TIP3   OH268719   5.850   3.953   2.723  0.3131  0.0995  0.3530
15743TIP3    H168720   5.847   3.875   2.779 -1.2554  1.1082  1.7842
15743TIP3    H268721   5.887   4.021   2.779  0.9696  0.5849 -0.6369
15744TIP3   OH268722   2.792   1.304  11.993  0.5604  1.0000 -0.8092
15744TIP3    H168723   2.808   1.318  12.086  0.0680 -0.4752 -0.4711
15744TIP3    H268724   2.866   1.252  11.963  1.1122  2.1268 -1.4400
15745TIP3   OH268725   3.323   5.982  16.013 -0.4385  0.4435 -0.5680
15745TIP3    H168726   3.342   5.898  15.971  1.0764  0.9557 -0.9722
15745TIP3    H268727   3.312   6.043  15.941 -1.3972  0.6447 -0.2727
15746TIP3   OH268728   3.271   0.931   4.458  0.3237  0.2620 -0.0654
15746TIP3    H168729   3.353   0.892   4.489  1.1699  0.2574 -2.1965
15746TIP3    H268730   3.213   0.857   4.444  0.7782  0.0371 -0.8316
15747TIP3   OH268731   6.756   1.490   5.588 -0.2320  0.1121 -0.8146
15747TIP3    H168732   6.727   1.580   5.575 -0.1779  0.6434  1.9985
15747TIP3    H268733   6.685   1.450   5.638  1.6049 -0.0149  1.8899
15748TIP3   OH268734   5.742   4.350  15.933  0.2965  0.3584  0.2927
15748TIP3    H168735   5.660   4.344  15.884  0.3181  0.4166  0.2480
15748TIP3    H268736   5.730   4.291  16.007  0.0797  0.6414  0.4838
15749TIP3   OH268737   6.550   4.919   1.380 -0.5364  0.0457  0.7069
15749TIP3    H168738   6.494   4.869   1.439 -0.7109 -0.7977 -0.1402
15749TIP3    H268739   6.617   4.956   1.437 -1.9031  1.0340  1.7311
15750TIP3   OH268740   3.944   5.970   0.477  0.0602 -0.0905  0.2109
15750TIP3    H168741   4.019   6.018   0.513  0.3009  0.2810 -0.7551
15750TIP3    H268742   3.975   5.880   0.468  0.6739  0.2195 -0.9361
15751TIP3   OH268743   2.201   1.161   4.479  0.1133 -0.1867 -0.5624
15751TIP3    H168744   2.114   1.194   4.500  0.6645 -0.2709  2.2511
15751TIP3    H268745   2.253   1.239   4.460 -0.1661  0.0186 -0.4834
15752TIP3   OH268746   3.773   0.331   1.418 -0.4233 -0.3814 -0.0166
15752TIP3    H168747   3.691   0.372   1.445 -0.8681 -0.3310 -1.3888
15752TIP3    H268748   3.793   0.269   1.488 -1.7772 -0.5867  0.2101
15753TIP3   OH268749   5.843   1.441   4.009 -0.4924  0.6402 -0.2666
15753TIP3    H168750   5.910   1.380   4.042 -0.1809  1.4576  0.6639
15753TIP3    H268751   5.825   1.499   4.083 -2.5600  0.1885 -0.3512
15754TIP3   OH268752   0.093   3.137  14.673 -0.4296  0.0237 -0.2685
15754TIP3    H168753   0.032   3.092  14.614 -0.1579  0.6298 -1.0150
15754TIP3    H268754   0.060   3.226  14.679  1.0128  0.7019 -1.6237
15755TIP3   OH268755   3.376   0.706  11.760 -0.7666  0.2354 -0.5553
15755TIP3    H168756   3.366   0.630  11.702  0.6030 -1.2591  1.0300
15755TIP3    H268757   3.469   0.728  11.754 -0.7622  0.5319  0.4879
15756TIP3   OH268758   2.826   5.689   2.907  0.1344  0.4961  0.0020
15756TIP3    H168759   2.816   5.609   2.856 -1.4872  0.5238  0.2030
15756TIP3    H268760   2.876   5.748   2.851  0.7535 -0.4139 -0.4226
15757TIP3   OH268761   1.859   2.419   0.314  0.0167 -0.3545  0.6258
15757TIP3    H168762   1.801   2.442   0.386  1.0146 -0.1444  1.3774
15757TIP3    H268763   1.939   2.470   0.330  0.5730 -0.9611 -0.1475
15758TIP3   OH268764   5.465   3.167   6.479  0.1695 -0.9388 -0.2813
15758TIP3    H168765   5.497   3.256   6.495 -0.6010 -0.5841 -0.6583
15758TIP3    H268766   5.384   3.179   6.430 -1.1875 -1.7541  1.6050
15759TIP3   OH268767   4.655   3.167   3.643  0.0632  0.4050 -0.2464
15759TIP3    H168768   4.713   3.095   3.666 -0.5389 -0.3466 -1.0047
15759TIP3    H268769   4.619   3.198   3.726 -1.1431 -1.4547 -0.0221
15760TIP3   OH268770   1.356   4.601   2.175  0.0846 -0.0461  0.1106
15760TIP3    H168771   1.276   4.652   2.176 -0.8432 -1.4391  0.8147
15760TIP3    H268772   1.395   4.615   2.261  0.2338  0.0993  0.0185
15761TIP3   OH268773   4.236   0.234  13.755 -0.8238  0.3577  0.2480
15761TIP3    H168774   4.270   0.280  13.678  0.8472  0.1210  0.7993
15761TIP3    H268775   4.234   0.300  13.824 -1.7767  0.4291  0.1690
15762TIP3   OH268776   0.459   3.066  16.943  0.5225  0.4104  0.3087
15762TIP3    H168777   0.447   2.972  16.935 -0.0750  0.2601  2.2989
15762TIP3    H268778   0.385   3.095  16.997  0.9263  1.9401  0.0870
15763TIP3   OH268779   5.046   3.573   2.180  0.0334 -0.1881  0.0771
15763TIP3    H168780   5.059   3.528   2.263 -0.8206 -0.8965 -0.1599
15763TIP3    H268781   5.128   3.560   2.132  0.0617 -0.8591  0.3043
15764TIP3   OH268782   6.129   0.351  11.383  0.2482 -0.1351 -0.0744
15764TIP3    H168783   6.223   0.369  11.386  0.2950  0.3454 -2.2955
15764TIP3    H268784   6.122   0.258  11.402  1.1120 -0.0805  0.6084
15765TIP3   OH268785   0.209   4.600  17.141  0.6416  0.7486  0.0076
15765TIP3    H168786   0.207   4.518  17.092 -0.9792  0.6208  0.2560
15765TIP3    H268787   0.120   4.634  17.135  1.0941  2.1009  0.5817
15766TIP3   OH268788   5.479   1.734   2.564  0.0737  0.2737  0.8835
15766TIP3    H168789   5.455   1.650   2.524 -2.1240  0.3245  1.9437
15766TIP3    H268790   5.462   1.799   2.497 -0.4261  0.0600  0.7975
15767TIP3   OH268791   1.986   2.258  16.932 -0.3243  0.2158  0.6701
15767TIP3    H168792   1.976   2.287  17.023 -0.4038  0.8240  0.4719
15767TIP3    H268793   1.913   2.197  16.918  0.9795 -1.6701  1.6980
15768TIP3   OH268794   3.264   4.732   4.318 -0.0181 -0.2534  0.4087
15768TIP3    H168795   3.214   4.813   4.319  1.6210  0.8324  2.7781
15768TIP3    H268796   3.309   4.733   4.233 -1.0792  0.5954 -0.1709
15769TIP3   OH268797   2.723   5.713  11.927  0.1893  0.1559  0.2595
15769TIP3    H168798   2.780   5.779  11.887 -1.8085  0.8805 -1.6176
15769TIP3    H268799   2.675   5.762  11.994  0.9737 -0.1926  1.0892
15770TIP3   OH268800   5.482   4.821  17.128 -0.4298  0.3673 -0.3428
15770TIP3    H168801   5.494   4.726  17.134 -1.3311  0.1632 -1.4500
15770TIP3    H268802   5.517   4.845  17.043  0.7800  1.2244  0.3653
15771TIP3   OH268803   0.220   1.660   1.178 -0.3348  0.4876  0.1875
15771TIP3    H168804   0.182   1.653   1.265 -0.4526  0.0499  0.1008
15771TIP3    H268805   0.145   1.667   1.119 -0.2442  1.6263  0.1886
15772TIP3   OH268806   0.125   2.230  13.763 -0.8856 -0.1565 -0.3905
15772TIP3    H168807   0.092   2.141  13.771  0.5198 -0.7130 -0.4282
15772TIP3    H268808   0.070   2.271  13.697 -3.0116 -0.2506  1.2226
15773TIP3   OH268809   2.409   4.139   1.977  0.6082  0.6076 -0.3656
15773TIP3    H168810   2.463   4.116   1.901  1.5597 -0.7277  0.6584
15773TIP3    H268811   2.428   4.231   1.992  1.9738  0.3882 -0.5576
15774TIP3   OH268812   5.490   6.254  10.677 -0.9217  0.6591  0.0595
15774TIP3    H168813   5.553   6.183  10.688  1.0360  2.3030  0.0837
15774TIP3    H268814   5.469   6.282  10.767  0.3593  1.7649  0.0480
15775TIP3   OH268815   3.905   2.697  15.889  0.2509  0.4942 -0.1565
15775TIP3    H168816   3.843   2.674  15.957  0.5255  0.7012  0.1678
15775TIP3    H268817   3.914   2.792  15.895  0.0671  0.5471 -0.6657
15776TIP3   OH268818   4.655   3.138  16.436 -0.3850  0.3507  0.2035
15776TIP3    H168819   4.724   3.091  16.483  0.0197  0.7084 -0.0223
15776TIP3    H268820   4.574   3.095  16.462  0.0144 -0.7936 -0.3787
15777TIP3   OH268821   2.676   5.430  16.000  0.4348  0.4976 -0.3233
15777TIP3    H168822   2.686   5.458  15.909 -2.1927  0.8992 -0.5557
15777TIP3    H268823   2.686   5.511  16.050  2.3759  0.2003 -0.1550
15778TIP3   OH268824   1.232   5.094  10.890  0.0643 -0.4321 -0.6352
15778TIP3    H168825   1.296   5.050  10.946  0.4039 -0.1005 -0.7620
15778TIP3    H268826   1.283   5.155  10.837 -0.4977  0.9065  0.2787
15779TIP3   OH268827   3.602   5.431  11.812 -0.1637  0.2116 -0.2084
15779TIP3    H168828   3.616   5.346  11.853 -0.2303  1.4671  2.6105
15779TIP3    H268829   3.509   5.431  11.789  0.2260 -1.1416 -2.0617
15780TIP3   OH268830   6.094   2.887  13.742  0.5690 -0.7053  0.3207
15780TIP3    H168831   6.029   2.929  13.799  0.7516  1.1383 -0.7524
15780TIP3    H268832   6.157   2.848  13.802 -1.2172 -2.1353  1.3850
15781TIP3   OH268833   1.231   3.801   3.637  0.0984 -0.3524  0.0293
15781TIP3    H168834   1.185   3.725   3.601 -0.2336 -1.7248  3.0169
15781TIP3    H268835   1.324   3.779   3.628  0.0138 -0.8035  0.2260
15782TIP3   OH268836   4.690   5.275  13.290 -0.1357 -0.0255 -0.3299
15782TIP3    H168837   4.715   5.271  13.382  0.2372  1.0566 -0.3749
15782TIP3    H268838   4.742   5.206  13.248 -0.0615 -0.3011  0.2101
15783TIP3   OH268839   4.666   2.450   0.302  0.0400 -0.3518  0.0066
15783TIP3    H168840   4.702   2.361   0.300 -2.2286 -1.3599 -2.9553
15783TIP3    H268841   4.572   2.438   0.317 -0.5068  1.3991 -1.6696
15784TIP3   OH268842   3.875   6.172  14.543 -0.7339 -0.1221  0.2823
15784TIP3    H168843   3.932   6.096  14.553 -1.5180 -0.7741 -0.1127
15784TIP3    H268844   3.876   6.191  14.450 -0.9539  0.0237  0.3082
15785TIP3   OH268845   5.848   0.461  13.120 -0.3845  0.4524  0.2716
15785TIP3    H168846   5.903   0.534  13.149  0.0893  0.1020  0.2748
15785TIP3    H268847   5.894   0.425  13.044 -0.1879 -0.3371  0.7504
15786TIP3   OH268848   0.876   4.330  14.464 -0.4090 -0.1528  0.6503
15786TIP3    H168849   0.897   4.422  14.448 -2.0454 -0.0310 -1.1755
15786TIP3    H268850   0.961   4.286  14.470  0.4231  1.0317 -1.4485
15787TIP3   OH268851   0.864   3.367  16.502 -0.1827 -0.9357  0.0615
15787TIP3    H168852   0.959   3.361  16.519  0.1814  0.2581 -1.3674
15787TIP3    H268853   0.852   3.454  16.465 -1.9745 -0.8105  0.8595
15788TIP3   OH268854   2.784   2.763   5.156 -0.4863 -0.0609  0.1698
15788TIP3    H168855   2.821   2.758   5.068 -0.5421 -0.5790  0.1724
15788TIP3    H268856   2.694   2.791   5.142 -0.5069 -0.1802  0.0553
15789TIP3   OH268857   3.182   6.700  12.445 -0.0140  0.5797  0.0535
15789TIP3    H168858   3.214   6.704  12.535  1.7831  3.6415 -0.5872
15789TIP3    H268859   3.087   6.702  12.453  0.1024  0.3464  1.8798
15790TIP3   OH268860   2.509   6.405   5.441 -0.0436 -0.1147  0.5278
15790TIP3    H168861   2.566   6.331   5.460  1.3213  1.2884  2.3360
15790TIP3    H268862   2.470   6.427   5.526 -1.5096  0.3731 -0.2437
15791TIP3   OH268863   6.298   3.328  11.279  0.0448 -0.9312  0.7850
15791TIP3    H168864   6.289   3.276  11.199 -1.1393 -1.1641  1.0472
15791TIP3    H268865   6.328   3.265  11.345 -1.0844 -1.2390  1.0266
15792TIP3   OH268866   1.867   5.764   1.324  0.1079  0.5570  0.0969
15792TIP3    H168867   1.915   5.714   1.389  0.2055  0.0730 -0.3412
15792TIP3    H268868   1.898   5.730   1.240 -3.0450 -1.9331 -0.2836
15793TIP3   OH268869   6.596   3.690   2.374 -0.5142  0.0763  0.4768
15793TIP3    H168870   6.531   3.629   2.339 -0.0991 -0.5887  0.8603
15793TIP3    H268871   6.629   3.735   2.296  2.4553 -3.3484 -0.5295
15794TIP3   OH268872   6.098   3.292   1.646  0.0007  0.0641  0.6871
15794TIP3    H168873   6.099   3.214   1.590  0.5294 -0.3221  1.2329
15794TIP3    H268874   6.070   3.260   1.732 -1.4861  0.7721  0.5068
15795TIP3   OH268875   3.111   1.716   0.728  0.3776  0.2648 -0.0959
15795TIP3    H168876   3.204   1.694   0.738  0.2301 -0.3877 -0.1498
15795TIP3    H268877   3.099   1.793   0.783  1.1781  0.9590 -0.8497
15796TIP3   OH268878   4.742   2.501   1.056  0.6803 -0.2718  0.2875
15796TIP3    H168879   4.649   2.499   1.034  0.5169 -1.7179  0.9207
15796TIP3    H268880   4.780   2.568   1.000 -0.6131 -0.1902 -0.5181
15797TIP3   OH268881   2.001   0.188   0.639  0.3250  0.2385  0.0263
15797TIP3    H168882   2.029   0.243   0.567  0.1607 -0.2253 -0.3969
15797TIP3    H268883   2.081   0.168   0.687  0.7621 -1.0606 -1.1589
15798TIP3   OH268884   4.084   6.146  15.756  0.0194 -0.1107  0.8172
15798TIP3    H168885   4.083   6.189  15.671 -3.5571 -1.1042  0.1775
15798TIP3    H268886   4.000   6.169  15.796  1.1048 -0.5806  3.6554
15799TIP3   OH268887   4.043   6.015   2.316 -0.2580 -0.2216  0.4826
15799TIP3    H168888   3.948   6.008   2.322 -0.1586 -1.2586  1.0006
15799TIP3    H268889   4.059   6.042   2.225 -1.0949  1.2850  0.7555
15800TIP3   OH268890   5.799   5.402  14.139 -0.3229 -0.4010  0.2155
15800TIP3    H168891   5.837   5.433  14.056  0.3618 -2.9084 -0.4997
15800TIP3    H268892   5.871   5.410  14.202 -1.1331  2.4602  0.9277
15801TIP3   OH268893   6.437   0.644  13.047 -0.4662 -0.0117  0.3283
15801TIP3    H168894   6.402   0.650  12.958 -1.6493 -0.2195  0.7581
15801TIP3    H268895   6.395   0.567  13.084 -1.6318  1.2473  1.7432
15802TIP3   OH268896   4.939   3.430  12.358  0.0190  0.1398  0.0816
15802TIP3    H168897   4.852   3.464  12.335 -0.6083  0.0360  2.0882
15802TIP3    H268898   4.927   3.389  12.444  1.8138 -0.9192 -0.1185
15803TIP3   OH268899   4.692   6.163  11.966 -0.0621  0.6106 -0.0060
15803TIP3    H168900   4.720   6.087  12.017 -0.7091 -0.5581 -1.3024
15803TIP3    H268901   4.597   6.164  11.974 -0.0942  0.9935 -0.3824
15804TIP3   OH268902   5.463   6.680  15.275  0.2575  0.0541  0.3105
15804TIP3    H168903   5.481   6.627  15.352 -1.2376 -0.0421  0.6303
15804TIP3    H268904   5.376   6.717  15.291  0.9989  2.1349 -0.1703
15805TIP3   OH268905   2.139   0.942   5.104 -0.1295 -0.1549  0.1951
15805TIP3    H168906   2.110   1.015   5.159 -0.1176 -0.0763  0.0979
15805TIP3    H268907   2.234   0.954   5.096 -0.2215  0.2120 -0.3865
15806TIP3   OH268908   5.872   3.031  14.875  0.4681  0.1760 -0.4876
15806TIP3    H168909   5.785   3.002  14.903  0.5038  0.0181 -0.5359
15806TIP3    H268910   5.930   2.959  14.902  0.3916 -0.3567 -1.6980
15807TIP3   OH268911   0.495   4.477   4.510 -0.7922 -0.2123  0.6499
15807TIP3    H168912   0.473   4.558   4.556  1.8332  0.2867  1.2329
15807TIP3    H268913   0.515   4.415   4.579 -0.2757 -0.5592  0.2001
15808TIP3   OH268914   3.325   3.445  15.735  0.6227  0.5444 -0.4414
15808TIP3    H168915   3.360   3.357  15.722 -0.4769 -0.0224  0.2927
15808TIP3    H268916   3.378   3.500  15.678  1.0019 -0.6652 -1.3052
15809TIP3   OH268917   5.813   2.780  15.022 -0.2368 -0.5845 -0.3867
15809TIP3    H168918   5.743   2.756  15.083 -1.6147  0.2385 -1.5838
15809TIP3    H268919   5.886   2.807  15.079 -1.7411  0.9391  0.9426
15810TIP3   OH268920   4.902   1.200  16.715  0.2249 -0.1959 -0.4013
15810TIP3    H168921   4.810   1.213  16.737  0.0147  0.2826 -1.5058
15810TIP3    H268922   4.921   1.267  16.650  1.1287 -0.8121 -0.7916
15811TIP3   OH268923   4.341   4.989  13.632 -0.5287 -0.2380  0.1090
15811TIP3    H168924   4.378   5.048  13.567  1.5949 -0.8726  0.6669
15811TIP3    H268925   4.333   5.043  13.711  0.2546 -0.3660  0.2822
15812TIP3   OH268926   0.162   5.930   0.724 -0.3952  0.0989  0.5765
15812TIP3    H168927   0.117   5.925   0.639  1.8730  1.1715 -0.8135
15812TIP3    H268928   0.227   5.860   0.720 -0.2654  0.1648  1.4267
15813TIP3   OH268929   1.859   3.746   5.445 -0.1493 -0.0684  0.0275
15813TIP3    H168930   1.790   3.766   5.508  0.0846 -1.3416  0.7263
15813TIP3    H268931   1.845   3.654   5.422  0.2951  0.1342 -1.1219
15814TIP3   OH268932   3.066   2.450   1.839 -0.9753 -0.4847 -0.3684
15814TIP3    H168933   3.094   2.494   1.758 -1.0378  2.1191  0.9284
15814TIP3    H268934   2.971   2.460   1.840 -0.8471  0.9001  0.7260
15815TIP3   OH268935   2.140   2.609  17.038  0.0599  0.4304  0.2717
15815TIP3    H168936   2.168   2.544  17.102 -0.7574 -0.4640 -0.2565
15815TIP3    H268937   2.055   2.579  17.008  0.2763  1.0014 -0.9980
15816TIP3   OH268938   5.380   1.509  16.917 -0.4459  0.4207 -0.5948
15816TIP3    H168939   5.289   1.481  16.928  0.2310 -0.9469  2.5250
15816TIP3    H268940   5.426   1.430  16.886 -0.1166  0.7963 -1.0828
15817TIP3   OH268941   4.081   0.204  17.036  0.4845  0.4577 -0.5281
15817TIP3    H168942   4.119   0.175  17.119  0.2640  1.3970 -0.0863
15817TIP3    H268943   4.002   0.150  17.025  0.3712  0.5101  0.0145
15818TIP3   OH268944   0.896   1.395   5.140  0.1494 -0.0852 -0.0693
15818TIP3    H168945   0.918   1.315   5.093 -0.2855  0.1304 -0.6648
15818TIP3    H268946   0.918   1.465   5.078 -0.4790  0.2034  0.0287
15819TIP3   OH268947   0.376   0.661   2.124  0.4928 -0.4995  0.1757
15819TIP3    H168948   0.435   0.653   2.049  0.7389 -1.4906  0.4628
15819TIP3    H268949   0.357   0.571   2.150 -0.4185 -0.1862  0.6638
15820TIP3   OH268950   2.771   6.690  14.222 -0.2429  0.1438  0.3318
15820TIP3    H168951   2.782   6.595  14.220 -0.5693  0.1149 -0.3358
15820TIP3    H268952   2.858   6.724  14.200  0.0310  0.0148  1.1828
15821TIP3   OH268953   6.103   4.156  17.255  0.2154  0.1561  0.0842
15821TIP3    H168954   6.043   4.100  17.304  1.0776 -0.3656  0.5465
15821TIP3    H268955   6.137   4.100  17.185  1.2087  0.0383  0.6497
15822TIP3   OH268956   3.802   1.524  13.541 -0.2180 -0.0441  0.1934
15822TIP3    H168957   3.869   1.582  13.505 -0.1950 -0.0031  0.3039
15822TIP3    H268958   3.754   1.578  13.604  0.8752 -0.5999  1.5632
15823TIP3   OH268959   0.737   3.175   1.631 -0.6409 -0.6463 -1.0912
15823TIP3    H168960   0.732   3.188   1.726  1.0729  0.7852 -1.1604
15823TIP3    H268961   0.747   3.081   1.620 -1.5038 -0.9038  0.0911
15824TIP3   OH268962   5.715   6.227  15.877 -0.1606 -0.6480 -0.4386
15824TIP3    H168963   5.762   6.144  15.886 -0.8111 -0.8201  1.6930
15824TIP3    H268964   5.784   6.294  15.882  0.0005 -0.9219  2.1305
15825TIP3   OH268965   1.378   5.658   4.306 -0.4734 -0.1814  0.0606
15825TIP3    H168966   1.292   5.700   4.308  0.0210  0.8698 -0.2442
15825TIP3    H268967   1.439   5.725   4.335  0.0681 -1.4735  2.1229
15826TIP3   OH268968   6.708   1.416  16.353 -0.0050  0.0375 -0.5341
15826TIP3    H168969   6.734   1.409  16.261  0.8844 -1.7508 -0.1950
15826TIP3    H268970   6.718   1.328  16.387 -1.8221  0.3369  0.9244
15827TIP3   OH268971   1.926   4.182  16.329  0.2230  0.0516 -0.1410
15827TIP3    H168972   1.915   4.194  16.234 -0.9672  0.8310  0.0719
15827TIP3    H268973   1.873   4.252  16.368  1.5928  0.4415  1.1047
15828TIP3   OH268974   3.101   4.708   2.688 -0.0735 -0.2026 -0.2396
15828TIP3    H168975   3.170   4.769   2.663  1.1425 -0.9999  1.0431
15828TIP3    H268976   3.091   4.650   2.612 -1.1469  1.4289 -1.4213
15829TIP3   OH268977   5.158   4.984  15.599  0.0018 -0.0590  0.3084
15829TIP3    H168978   5.189   4.893  15.600  0.7159  0.1734  0.1026
15829TIP3    H268979   5.139   5.001  15.507  0.7100  0.2759  0.2239
15830TIP3   OH268980   5.812   4.851   3.570  0.4474  0.0584 -0.1979
15830TIP3    H168981   5.761   4.804   3.635  1.3801  0.1370  0.6143
15830TIP3    H268982   5.781   4.942   3.577 -0.8112 -0.2561 -1.2364
15831TIP3   OH268983   2.152   3.781  14.518  0.5824  0.0435 -0.0264
15831TIP3    H168984   2.083   3.847  14.528  0.7895  0.2508  0.0551
15831TIP3    H268985   2.106   3.697  14.520  0.1853  0.2096 -1.1279
15832TIP3   OH268986   4.005   0.393   3.853 -0.0475  0.4423 -0.2217
15832TIP3    H168987   3.914   0.365   3.844  0.6929 -2.2430 -0.2223
15832TIP3    H268988   4.000   0.483   3.885 -2.7168 -0.0773  1.0767
15833TIP3   OH268989   5.805   4.437  13.847  0.4521 -0.1234 -0.2247
15833TIP3    H168990   5.833   4.516  13.801 -1.0593  0.1465 -0.7357
15833TIP3    H268991   5.875   4.420  13.910  1.0661  1.3042 -0.4803
15834TIP3   OH268992   3.705   3.734   1.329 -0.4322  0.4368 -0.1027
15834TIP3    H168993   3.773   3.793   1.296  0.8447 -1.0006 -0.1885
15834TIP3    H268994   3.745   3.692   1.405 -0.8235 -1.1798 -0.7429
15835TIP3   OH268995   0.789   2.848   6.023 -0.0265 -0.4661 -0.0823
15835TIP3    H168996   0.814   2.792   6.096 -2.4152 -2.6940 -0.8093
15835TIP3    H268997   0.796   2.792   5.945 -0.1544  1.0034 -1.2014
15836TIP3   OH268998   2.139   5.904   6.361  0.1670  0.1565  0.3690
15836TIP3    H168999   2.128   5.964   6.435  0.7689 -2.1622  2.4394
15836TIP3    H269000   2.162   5.820   6.400  2.4569 -0.7455 -2.5528
15837TIP3   OH269001   6.349   6.641   3.028 -0.0414 -0.0428  0.0770
15837TIP3    H169002   6.326   6.571   2.967 -0.7219  1.0127 -0.9265
15837TIP3    H269003   6.265   6.676   3.058  0.2844  0.2814  0.6419
15838TIP3   OH269004   3.797   2.727  11.008 -0.5559 -0.0859  0.4027
15838TIP3    H169005   3.737   2.760  10.941 -0.9974 -2.0789 -0.2424
15838TIP3    H269006   3.884   2.740  10.970 -0.8059 -1.3265 -0.6664
15839TIP3   OH269007   1.735   5.386   4.578  0.6274  0.7334  0.2201
15839TIP3    H169008   1.721   5.426   4.664  1.2534  1.8560 -0.1715
15839TIP3    H269009   1.672   5.430   4.521 -1.4013 -1.6170  0.5034
15840TIP3   OH269010   0.914   1.925   1.098  0.1861 -0.1686  0.1314
15840TIP3    H169011   1.006   1.929   1.069 -0.1074 -1.0220 -1.0153
15840TIP3    H269012   0.916   1.870   1.176  0.5653 -0.9366 -0.4000
15841TIP3   OH269013   0.043   3.167  13.504  0.3757  0.5440  0.1698
15841TIP3    H169014   0.060   3.203  13.591  2.1340 -2.0795  1.0265
15841TIP3    H269015   0.110   3.099  13.492 -1.3997 -0.9558 -2.1704
15842TIP3   OH269016   4.832   2.574   3.596  0.0762  0.4298  1.1397
15842TIP3    H169017   4.864   2.579   3.686 -0.0666  0.4922  1.1877
15842TIP3    H269018   4.752   2.627   3.596 -0.2982 -0.1318  1.1427
15843TIP3   OH269019   0.658   2.126   6.613  0.1023  0.0557 -0.5235
15843TIP3    H169020   0.730   2.168   6.566  1.1978 -2.0224 -0.8501
15843TIP3    H269021   0.630   2.055   6.555 -2.0674  0.6536 -0.2715
15844TIP3   OH269022   4.333   1.169   1.580  0.4289 -0.4358  0.0676
15844TIP3    H169023   4.296   1.257   1.574 -2.1408 -1.4312  0.1360
15844TIP3    H269024   4.398   1.166   1.510 -0.7538  0.9347 -1.1608
15845TIP3   OH269025   6.042   6.176   1.785 -0.5130  0.0099 -0.4844
15845TIP3    H169026   6.066   6.112   1.719  0.2758 -0.5599  0.3379
15845TIP3    H269027   6.124   6.218   1.810 -0.3655 -1.5166  1.8985
15846TIP3   OH269028   5.835   6.372   3.033 -0.0533  0.0028 -0.1099
15846TIP3    H169029   5.819   6.290   2.987  0.4563 -0.4390  0.4824
15846TIP3    H269030   5.750   6.396   3.070  0.0011 -0.8299  0.6132
15847TIP3   OH269031   3.275   2.254  10.928  0.3962 -0.3835  0.0684
15847TIP3    H169032   3.348   2.268  10.989  2.5396 -0.3137 -2.3433
15847TIP3    H269033   3.251   2.341  10.898 -0.7523 -0.4053  0.8984
15848TIP3   OH269034   6.275   3.805   5.526  0.1216  0.0798 -0.0994
15848TIP3    H169035   6.263   3.739   5.458 -0.4649 -0.3591  0.4208
15848TIP3    H269036   6.344   3.863   5.492  0.2932 -0.5107 -0.7696
15849TIP3   OH269037   6.366   2.112  11.400  0.2235  0.4493 -0.4685
15849TIP3    H169038   6.329   2.124  11.312  1.4322 -0.8309 -1.1843
15849TIP3    H269039   6.342   2.192  11.446  0.1522  1.4852 -2.1861
15850TIP3   OH269040   5.878   0.190   4.125 -0.4424 -0.4680  0.3282
15850TIP3    H169041   5.816   0.224   4.190 -2.4315 -1.6583 -0.8415
15850TIP3    H269042   5.841   0.105   4.099  0.9750 -0.6112 -1.3969
15851TIP3   OH269043   2.438   1.752   4.032  0.5941  0.5456  0.0718
15851TIP3    H169044   2.442   1.729   3.939  0.0563 -0.5546  0.3086
15851TIP3    H269045   2.346   1.744   4.055  0.9602 -1.2041  1.1651
15852TIP3   OH269046   5.346   3.815  12.867 -0.1812 -0.6027 -0.3539
15852TIP3    H169047   5.371   3.732  12.906  2.6078 -0.5138 -1.7171
15852TIP3    H269048   5.287   3.855  12.932  0.9653 -2.2020  1.8045
15853TIP3   OH269049   2.508   2.883  15.627 -0.6765  0.4212 -0.3995
15853TIP3    H169050   2.584   2.832  15.596 -0.5229  0.1174  0.4560
15853TIP3    H269051   2.545   2.946  15.689 -0.9027  1.4218 -1.2457
15854TIP3   OH269052   4.652   0.565  11.221  0.3629  0.1588 -0.0156
15854TIP3    H169053   4.692   0.649  11.244 -0.7856  0.6304  0.3233
15854TIP3    H269054   4.658   0.561  11.126  3.5233 -0.9845  0.1109
15855TIP3   OH269055   3.872   0.076  14.944 -0.1549  0.2125  0.7487
15855TIP3    H169056   3.830   0.159  14.964  0.5951  0.7607  0.1107
15855TIP3    H269057   3.799   0.015  14.929 -0.7074  0.6124  1.7489
15856TIP3   OH269058   5.475   3.439   4.743 -0.4298 -0.3913 -0.0234
15856TIP3    H169059   5.485   3.409   4.833 -0.2200 -1.7404 -0.4638
15856TIP3    H269060   5.488   3.360   4.690  0.4852  0.5683 -1.2917
15857TIP3   OH269061   3.870   4.889  14.713 -0.0637  0.3337  0.0088
15857TIP3    H169062   3.879   4.928  14.801  1.7615 -0.7922  0.3748
15857TIP3    H269063   3.886   4.962  14.653  1.8045  0.5416  0.6733
15858TIP3   OH269064   5.675   0.228   2.185  0.0067  0.1452 -0.5483
15858TIP3    H169065   5.683   0.135   2.205  1.6621  0.4383  0.3738
15858TIP3    H269066   5.703   0.272   2.266 -0.1179  1.4375 -1.1834
15859TIP3   OH269067   3.231   0.642   1.896 -0.0192 -0.1942  0.0581
15859TIP3    H169068   3.146   0.598   1.895  0.0879 -0.3916 -0.6684
15859TIP3    H269069   3.289   0.581   1.942  0.2129 -0.9987 -1.2570
15860TIP3   OH269070   2.878   0.609   4.696 -0.0199 -0.4593  1.1549
15860TIP3    H169071   2.954   0.551   4.694  0.0469 -0.3772 -1.8905
15860TIP3    H269072   2.804   0.552   4.672 -0.3080  0.2300  0.3775
15861TIP3   OH269073   6.746   1.676  11.945 -0.0700  0.2537 -0.2508
15861TIP3    H169074   6.841   1.668  11.951  0.1767  0.2570 -3.0806
15861TIP3    H269075   6.718   1.692  12.035  2.5799  0.1543  0.6731
15862TIP3   OH269076   5.991   2.258  12.228 -0.3333  0.2508  0.2874
15862TIP3    H169077   6.004   2.171  12.190 -0.1635 -0.0116  0.9451
15862TIP3    H269078   6.041   2.258  12.309 -0.5994  0.8502  0.4636
15863TIP3   OH269079   0.853   1.838  16.184  0.1472  0.2586  0.7045
15863TIP3    H169080   0.881   1.766  16.241  0.3111 -0.4762 -0.2733
15863TIP3    H269081   0.920   1.841  16.116  0.5503  1.8493  1.1480
15864TIP3   OH269082   4.035   2.493  12.818 -0.1970 -0.1592  0.7411
15864TIP3    H169083   4.130   2.489  12.802 -0.5126 -1.7636 -1.2473
15864TIP3    H269084   4.021   2.434  12.892  0.4125  0.5972  1.4724
15865TIP3   OH269085   6.480   4.548  12.104 -0.1174 -0.2453  0.1869
15865TIP3    H169086   6.398   4.503  12.121  0.5328 -2.2427 -1.4485
15865TIP3    H269087   6.459   4.641  12.110 -2.3713 -0.7159  0.2909
15866TIP3   OH269088   4.662   6.250  16.258 -0.0557 -0.2233 -0.4750
15866TIP3    H169089   4.714   6.300  16.321 -0.4940  1.1269 -1.1575
15866TIP3    H269090   4.726   6.198  16.209  0.2102 -2.1738  1.7650
15867TIP3   OH269091   0.494   3.910   4.030 -0.1325 -0.6844 -0.9666
15867TIP3    H169092   0.427   3.946   3.971 -1.1054 -2.8441 -1.2737
15867TIP3    H269093   0.573   3.903   3.976 -0.6205 -1.2975 -1.6225
15868TIP3   OH269094   4.030   1.834  16.675 -0.2219 -0.0078 -0.5469
15868TIP3    H169095   4.084   1.903  16.637 -1.0935 -0.9880 -3.9184
15868TIP3    H269096   4.084   1.755  16.668 -0.9295 -0.4554 -1.0407
15869TIP3   OH269097   2.342   6.234   4.385 -0.3405 -0.5678 -0.4154
15869TIP3    H169098   2.252   6.206   4.369 -0.9073  0.9957 -0.1427
15869TIP3    H269099   2.356   6.217   4.478 -0.6572 -0.0112 -0.2647
15870TIP3   OH269100   5.771   2.688   2.590 -0.1365  0.4463 -0.1527
15870TIP3    H169101   5.753   2.595   2.604  0.2432  0.1907 -1.2518
15870TIP3    H269102   5.693   2.733   2.624  1.1738  0.0608  3.8967
15871TIP3   OH269103   0.049   1.146  10.325 -0.0346  0.0542 -0.3906
15871TIP3    H169104  -0.003   1.219  10.293  0.4772  0.7391  0.3142
15871TIP3    H269105   0.071   1.169  10.416 -2.5211 -2.4098  0.9725
15872TIP3   OH269106   6.478   3.170   3.248  0.2981  0.4151 -0.0874
15872TIP3    H169107   6.429   3.196   3.171  0.2857 -1.6847 -0.8588
15872TIP3    H269108   6.433   3.092   3.280  1.2682  0.2886  1.0558
15873TIP3   OH269109   1.241   0.264   0.640 -0.0976 -0.0173  0.3801
15873TIP3    H169110   1.180   0.253   0.713 -0.4600  0.9582  0.2456
15873TIP3    H269111   1.197   0.325   0.581  0.6131 -0.0241 -0.1783
15874TIP3   OH269112   4.473   4.513  13.107  0.2036  0.2151 -0.2409
15874TIP3    H169113   4.395   4.548  13.152  1.1783  1.0677  0.8436
15874TIP3    H269114   4.476   4.421  13.134 -0.6259  0.0729 -0.5899
15875TIP3   OH269115   5.887   5.715   5.968  0.5999 -0.5896 -0.3101
15875TIP3    H169116   5.890   5.757   5.882  1.0605 -1.0121 -0.5053
15875TIP3    H269117   5.822   5.646   5.959  1.0007 -0.9507 -0.4690
15876TIP3   OH269118   2.407   3.774  14.391  0.2537 -0.1432 -0.3856
15876TIP3    H169119   2.426   3.681  14.396 -0.7369 -0.3250  0.3364
15876TIP3    H269120   2.319   3.783  14.430  0.2685  1.0605 -0.5842
15877TIP3   OH269121   4.890   1.175   0.210 -0.9001 -0.6585 -0.1538
15877TIP3    H169122   4.843   1.092   0.217 -1.9406  0.0152  1.1735
15877TIP3    H269123   4.961   1.168   0.274 -0.6987 -0.6869 -0.3754
15878TIP3   OH269124   4.719   1.033  15.988  0.1231 -0.2302  0.0656
15878TIP3    H169125   4.684   0.967  16.047  0.9784 -0.0472  0.8115
15878TIP3    H269126   4.688   1.008  15.901  0.4127 -1.5979  0.3340
15879TIP3   OH269127   6.002   2.575   4.566 -0.0171  0.5726 -0.2578
15879TIP3    H169128   6.005   2.480   4.563 -0.6793  0.5840 -1.9255
15879TIP3    H269129   6.070   2.599   4.630  1.8794 -0.9060 -1.6143
15880TIP3   OH269130   0.025   4.082   5.374 -0.1179  0.2476  0.2424
15880TIP3    H169131   0.099   4.121   5.420  1.2847 -2.0355  0.0733
15880TIP3    H269132  -0.016   4.025   5.439 -0.1916 -0.3918 -0.3456
15881TIP3   OH269133   6.688   0.107   0.451  0.1762 -0.2420 -0.3453
15881TIP3    H169134   6.645   0.036   0.500  0.3601 -0.1347 -0.0227
15881TIP3    H269135   6.618   0.147   0.400 -0.2387  0.3014  0.6171
15882TIP3   OH269136   0.541   5.772   1.201  0.3885 -0.1847  0.4515
15882TIP3    H169137   0.517   5.800   1.112 -0.4096 -1.8513  0.1014
15882TIP3    H269138   0.458   5.751   1.243  0.7772  0.4161  1.5566
15883TIP3   OH269139   5.696   4.710  16.666 -0.0239  0.4408 -0.8131
15883TIP3    H169140   5.783   4.672  16.681  0.6546  1.1484 -2.6163
15883TIP3    H269141   5.713   4.783  16.606 -1.5096  2.4006  0.9677
15884TIP3   OH269142   2.195   1.691   5.864 -0.3257 -0.4732  0.2931
15884TIP3    H169143   2.136   1.743   5.919 -0.3733 -1.8241  1.5608
15884TIP3    H269144   2.257   1.755   5.829 -2.3253  0.9572 -0.8682
15885TIP3   OH269145   4.375   6.250  16.875  0.5490  0.3191 -0.6358
15885TIP3    H169146   4.393   6.165  16.916  1.3803  1.1885  0.8927
15885TIP3    H269147   4.365   6.230  16.782  2.4372 -1.2490 -0.5801
15886TIP3   OH269148   4.628   4.999   5.896 -0.1062 -0.0050  0.1708
15886TIP3    H169149   4.573   5.036   5.965  0.6515  4.0129 -1.0822
15886TIP3    H269150   4.585   5.024   5.815  2.0482  0.7503 -0.8119
15887TIP3   OH269151   4.123   5.444  16.184 -0.0249 -0.3839 -0.3932
15887TIP3    H169152   4.194   5.459  16.122  1.8991  1.8657  2.0995
15887TIP3    H269153   4.054   5.505  16.157  0.4137 -0.0962 -0.8772
15888TIP3   OH269154   5.966   2.668  12.816 -0.6439  0.9039 -0.1961
15888TIP3    H169155   5.955   2.720  12.896 -1.0487 -0.6622  0.8040
15888TIP3    H269156   6.041   2.708  12.772 -0.3958  1.7899  0.9813
15889TIP3   OH269157   0.955   2.120   4.346 -0.5073 -0.8143 -0.0692
15889TIP3    H169158   0.884   2.127   4.409 -0.4942  0.5805 -0.1953
15889TIP3    H269159   1.035   2.133   4.398 -0.4555 -0.4083 -0.2480
15890TIP3   OH269160   5.228   3.243   5.896  0.3892  0.0520 -0.4698
15890TIP3    H169161   5.183   3.163   5.921  1.5364 -0.2014  0.9148
15890TIP3    H269162   5.205   3.307   5.964  1.2223  0.2359 -0.3443
15891TIP3   OH269163   6.179   2.214   3.942 -0.5415  0.3725  0.4374
15891TIP3    H169164   6.166   2.125   3.909  0.9103 -0.0276  0.8334
15891TIP3    H269165   6.100   2.262   3.918 -1.6231 -1.1899  0.7483
15892TIP3   OH269166   5.222   5.048  13.635 -0.0924 -0.1998  0.0929
15892TIP3    H169167   5.225   5.066  13.541  0.3782  0.1157  0.1688
15892TIP3    H269168   5.312   5.026  13.658 -0.4886 -1.9492  0.1470
15893TIP3   OH269169   0.328   5.090  13.923  0.1042 -0.5960  0.1029
15893TIP3    H169170   0.344   5.060  13.833  2.5003  0.0370  0.2543
15893TIP3    H269171   0.413   5.082  13.967 -0.3207  1.7163  1.5106
15894TIP3   OH269172   1.417   0.419  15.149 -0.0264  0.0970 -0.3070
15894TIP3    H169173   1.484   0.483  15.172 -0.5954  0.0465  1.7401
15894TIP3    H269174   1.465   0.340  15.128  0.6043  0.5162 -0.4742
15895TIP3   OH269175   5.716   0.275   0.064  0.1270 -0.0566  0.4398
15895TIP3    H169176   5.778   0.224   0.013 -0.7679 -1.8051  1.0344
15895TIP3    H269177   5.768   0.311   0.136  0.3648 -2.1490  1.3888
15896TIP3   OH269178   5.841   2.061  14.957 -0.0808 -0.0569 -0.0796
15896TIP3    H169179   5.907   2.113  14.912 -0.0265 -1.1440 -1.3101
15896TIP3    H269180   5.869   1.970  14.945 -1.0688 -0.4696  0.5618
15897TIP3   OH269181   0.346   3.143  11.803 -0.2921  0.1584 -0.0023
15897TIP3    H169182   0.338   3.224  11.753  1.4646  1.9585  2.3592
15897TIP3    H269183   0.401   3.087  11.749 -0.2862  1.1350 -1.0424
15898TIP3   OH269184   1.468   6.278   2.088 -0.1076 -0.7560 -0.1016
15898TIP3    H169185   1.481   6.372   2.082 -0.8291 -0.7367 -2.1825
15898TIP3    H269186   1.378   6.268   2.119  0.8203 -0.8412  2.8675
15899TIP3   OH269187   0.046   3.500  10.335  0.2402 -0.1841  0.3400
15899TIP3    H169188   0.075   3.421  10.290 -0.0796 -0.8899  1.3355
15899TIP3    H269189  -0.048   3.504  10.318  0.1796 -0.2641  0.6367
15900TIP3   OH269190   1.948   1.780   0.946 -0.2149 -0.5539 -0.0722
15900TIP3    H169191   1.998   1.783   0.864 -0.6213  1.5149 -0.2985
15900TIP3    H269192   1.883   1.849   0.937  0.0954  0.1188  2.2406
15901TIP3   OH269193   3.167   3.975   5.635  0.3225 -0.2141  0.0497
15901TIP3    H169194   3.131   3.891   5.661  3.4014 -1.2092  1.6054
15901TIP3    H269195   3.261   3.960   5.630  1.3360  3.6759  2.8368
15902TIP3   OH269196   0.523   0.077   0.698 -0.0924  0.2152  0.3515
15902TIP3    H169197   0.433   0.108   0.698  0.3168  1.4728 -0.2814
15902TIP3    H269198   0.550   0.080   0.790  0.0820  2.2654  0.2713
15903TIP3   OH269199   3.651   0.574  15.092 -0.2543 -0.6348 -0.5188
15903TIP3    H169200   3.589   0.546  15.159  0.8321 -0.1313  0.7341
15903TIP3    H269201   3.654   0.669  15.099  0.3843 -0.6257 -0.8104
15904TIP3   OH269202   6.134   2.830   2.249 -0.3187 -0.1398  0.7042
15904TIP3    H169203   6.094   2.758   2.201 -0.5923 -0.9936  2.1754
15904TIP3    H269204   6.093   2.828   2.335 -0.5283  1.9452  0.7134
15905TIP3   OH269205   1.816   2.570   4.413  0.0259 -0.5436 -0.1982
15905TIP3    H169206   1.903   2.538   4.437  0.0978  1.0006  1.7784
15905TIP3    H269207   1.758   2.539   4.482 -0.8293 -0.6195 -0.9190
15906TIP3   OH269208   6.054   2.724   3.353  0.2216 -0.0280 -0.2108
15906TIP3    H169209   6.048   2.690   3.264 -0.9744  0.2028 -0.2402
15906TIP3    H269210   5.973   2.694   3.395  0.9010 -0.3745  0.8856
15907TIP3   OH269211   1.166   0.293  11.275 -0.6918  0.1338 -0.2495
15907TIP3    H169212   1.165   0.204  11.239  0.7438  0.6368 -1.6655
15907TIP3    H269213   1.103   0.290  11.347 -0.8570 -1.9580 -0.4031
15908TIP3   OH269214   4.367   4.739  11.860 -0.4437 -0.3738 -0.1697
15908TIP3    H169215   4.429   4.812  11.868 -3.6402  2.5337  0.5747
15908TIP3    H269216   4.312   4.764  11.786  0.2720 -3.8101 -2.0557
15909TIP3   OH269217   3.011   0.685  15.185  0.1654  0.0164 -0.3938
15909TIP3    H169218   3.006   0.718  15.095 -1.0801 -1.7262 -1.0230
15909TIP3    H269219   3.082   0.620  15.183 -0.7096 -0.9653 -0.4837
15910TIP3   OH269220   5.103   5.884  12.140 -0.4485 -0.6027  0.2607
15910TIP3    H169221   5.094   5.789  12.138 -0.9751 -0.5758  1.0945
15910TIP3    H269222   5.163   5.904  12.068 -0.8863 -1.4957 -0.3622
15911TIP3   OH269223   2.034   0.547   2.367 -0.4323 -0.2142 -0.1397
15911TIP3    H169224   1.987   0.598   2.302 -0.1024 -1.6436 -1.5498
15911TIP3    H269225   2.073   0.613   2.425 -3.5923  1.0480  0.7800
15912TIP3   OH269226   0.658   2.788   2.463 -0.3263  0.0817 -0.1315
15912TIP3    H169227   0.737   2.749   2.426 -0.3536 -2.0972  1.8753
15912TIP3    H269228   0.592   2.719   2.458 -0.8602  0.3549  2.1026
15913TIP3   OH269229   0.485   5.564   0.911  0.2255  0.6144 -0.4421
15913TIP3    H169230   0.556   5.522   0.862  0.9112  1.4144 -0.1715
15913TIP3    H269231   0.530   5.628   0.967 -0.4101 -0.9593  2.0111
15914TIP3   OH269232   6.683   0.428  11.496 -0.8940  0.7657 -0.7281
15914TIP3    H169233   6.743   0.353  11.491  2.1162  2.7567  1.6447
15914TIP3    H269234   6.719   0.492  11.435 -0.3033  2.0850  0.9042
15915TIP3   OH269235   2.725   2.769   0.376  0.5008  0.2943  0.5693
15915TIP3    H169236   2.752   2.848   0.423 -0.5916  1.7393 -1.1151
15915TIP3    H269237   2.796   2.754   0.313 -0.1818  1.1008 -0.4161
15916TIP3   OH269238   4.543   0.351   0.541 -0.1347 -0.0162 -0.1730
15916TIP3    H169239   4.589   0.277   0.502 -0.9056 -1.0690  0.8739
15916TIP3    H269240   4.450   0.334   0.522 -0.4270  0.0040  1.1768
15917TIP3   OH269241   4.090   0.501   5.196 -0.2278  0.2678 -0.1077
15917TIP3    H169242   4.034   0.515   5.273  0.1005  2.3321 -0.1699
15917TIP3    H269243   4.050   0.428   5.150 -1.0041 -0.3761  1.5146
15918TIP3   OH269244   3.455   3.872   0.381 -0.3830  0.1624 -0.3421
15918TIP3    H169245   3.474   3.804   0.317  0.5693  0.0828 -0.0020
15918TIP3    H269246   3.541   3.908   0.404 -0.7228  0.3791  0.6695
15919TIP3   OH269247   4.142   3.034   5.684  0.4830 -0.0464 -0.2917
15919TIP3    H169248   4.221   3.052   5.734  0.2797 -2.5130  1.0817
15919TIP3    H269249   4.070   3.044   5.746  0.0826 -1.5728 -0.4701
15920TIP3   OH269250   0.654   6.712   3.719  0.0268 -0.6942 -0.0271
15920TIP3    H169251   0.678   6.651   3.649  1.3379  1.9060 -2.0542
15920TIP3    H269252   0.725   6.704   3.782 -0.9950 -2.8279  0.9454
15921TIP3   OH269253   1.340   0.178   1.076  0.6008  0.0799  0.5553
15921TIP3    H169254   1.318   0.085   1.075  0.3252  0.1014  2.0882
15921TIP3    H269255   1.409   0.187   1.011  0.2262 -1.0908 -0.0281
15922TIP3   OH269256   6.194   0.824   1.880 -0.0243  0.2361  0.0934
15922TIP3    H169257   6.105   0.823   1.847 -0.5494  0.1003  1.4573
15922TIP3    H269258   6.203   0.742   1.929  0.8222  0.2799  0.0294
15923TIP3   OH269259   5.482   5.998  16.289 -0.1554 -0.8245  0.0819
15923TIP3    H169260   5.397   6.010  16.247  1.0485 -0.0582 -2.3467
15923TIP3    H269261   5.541   6.055  16.240  1.8554 -1.6242  1.4303
15924TIP3   OH269262   1.528   4.143  13.660  0.3461 -0.1046 -0.5741
15924TIP3    H169263   1.554   4.182  13.576 -1.1760  1.3093 -0.4514
15924TIP3    H269264   1.530   4.049  13.644  1.5760  0.0805 -1.7197
15925TIP3   OH269265   3.344   0.619   3.311  0.0701 -0.8163 -0.5143
15925TIP3    H169266   3.291   0.566   3.252  1.1617 -0.6292 -1.6973
15925TIP3    H269267   3.326   0.709   3.286  0.0324 -0.7116 -0.1145
15926TIP3   OH269268   5.986   1.289  12.091  0.0504 -0.0994  0.4722
15926TIP3    H169269   5.903   1.309  12.048 -0.3230 -2.8423 -0.2667
15926TIP3    H269270   6.052   1.306  12.023  0.0430  1.1601  0.7540
15927TIP3   OH269271   0.997   3.522  15.253 -0.3511 -0.2922  0.5080
15927TIP3    H169272   0.950   3.503  15.334  1.6222  0.7056  1.9983
15927TIP3    H269273   0.940   3.491  15.184 -1.8745 -1.7516  2.3032
15928TIP3   OH269274   1.421   2.959   5.654  0.3893 -0.3454  0.0310
15928TIP3    H169275   1.436   3.008   5.573  0.8763 -0.6961 -0.0955
15928TIP3    H269276   1.366   3.017   5.707  1.7460  0.7668  0.2880
15929TIP3   OH269277   3.378   4.520  12.521 -0.7725 -0.2887  0.3345
15929TIP3    H169278   3.400   4.613  12.520  3.1423 -1.0226  1.1554
15929TIP3    H269279   3.345   4.504  12.609  1.7215 -0.1510  1.3714
15930TIP3   OH269280   5.313   0.083  16.283 -0.1090  0.0472  0.3153
15930TIP3    H169281   5.252   0.105  16.354 -1.0165  0.0521 -0.4398
15930TIP3    H269282   5.359   0.164  16.264 -0.4550  0.2482  0.3353
15931TIP3   OH269283   3.339   5.333  11.855 -0.0366 -0.9181  0.1561
15931TIP3    H169284   3.257   5.337  11.905 -0.4839  0.2833 -0.6367
15931TIP3    H269285   3.334   5.251  11.806 -1.2220 -0.4076 -0.6132
15932TIP3   OH269286   6.563   2.365   5.876  0.2995 -0.3500 -0.2756
15932TIP3    H169287   6.541   2.275   5.900  0.9789  0.0270  1.9148
15932TIP3    H269288   6.498   2.418   5.920  0.9150  0.3238 -0.1672
15933TIP3   OH269289   2.991   1.744  13.215  0.0829  0.1024  0.1237
15933TIP3    H169290   2.979   1.815  13.151  0.9773 -0.2256 -0.4277
15933TIP3    H269291   2.906   1.701  13.218  0.0646  0.0176 -1.0035
15934TIP3   OH269292   4.175   1.111   4.770 -0.0316  0.0226 -0.4989
15934TIP3    H169293   4.119   1.157   4.708 -0.6711  1.4321  1.0320
15934TIP3    H269294   4.244   1.173   4.791  0.1410 -0.4046  0.2317
15935TIP3   OH269295   3.398   4.721   0.285  0.6381  0.2318 -0.1014
15935TIP3    H169296   3.469   4.784   0.273  1.8729 -0.7320  1.6407
15935TIP3    H269297   3.354   4.749   0.365 -1.0852  0.8865 -1.2340
15936TIP3   OH269298   4.598   0.446   4.724 -0.0342 -0.1951 -0.0544
15936TIP3    H169299   4.517   0.493   4.742 -0.2508 -0.4526 -0.3442
15936TIP3    H269300   4.601   0.438   4.629 -0.1496 -1.0156 -0.0010
15937TIP3   OH269301   5.952   6.264   5.936 -0.2776  0.6037 -0.4001
15937TIP3    H169302   5.905   6.297   6.012 -0.3247  1.7567 -0.9045
15937TIP3    H269303   5.890   6.272   5.863  0.0888  0.4434 -0.7395
15938TIP3   OH269304   3.720   2.868  11.686  0.3929 -1.1679 -0.0640
15938TIP3    H169305   3.762   2.854  11.601 -0.3479 -0.9392 -0.4726
15938TIP3    H269306   3.737   2.960  11.706  0.1962 -1.1083 -0.1697
15939TIP3   OH269307   4.523   3.091   5.062 -0.0882 -0.0754  0.0368
15939TIP3    H169308   4.451   3.102   5.123 -0.5287  4.2107 -0.9525
15939TIP3    H269309   4.597   3.063   5.116 -1.8024 -2.0942  1.4606
15940TIP3   OH269310   1.107   1.649   3.229 -0.8839 -0.9685 -0.2424
15940TIP3    H169311   1.085   1.604   3.147 -2.2086 -1.6183  0.4482
15940TIP3    H269312   1.043   1.720   3.235 -1.1405 -1.2581  0.4999
15941TIP3   OH269313   3.620   6.386  13.395  0.2558  0.4705  0.0874
15941TIP3    H169314   3.551   6.427  13.343  0.1590 -1.3193 -1.2788
15941TIP3    H269315   3.640   6.304  13.349  1.6620 -0.1755  1.7317
15942TIP3   OH269316   3.216   5.129   2.988 -0.0193  0.2615  0.4740
15942TIP3    H169317   3.201   5.039   3.019 -1.8440  0.2284 -0.4063
15942TIP3    H269318   3.301   5.153   3.026  1.3889 -2.4555 -0.6306
15943TIP3   OH269319   2.650   4.417  12.633 -0.2054  0.4667 -0.2893
15943TIP3    H169320   2.603   4.494  12.602  1.2331  0.0553 -4.0717
15943TIP3    H269321   2.621   4.346  12.576  0.7852 -1.1093  1.0437
15944TIP3   OH269322   0.891   4.089   4.746  0.5374  0.3753  0.0389
15944TIP3    H169323   0.935   4.148   4.684  0.8527 -0.5548 -0.6413
15944TIP3    H269324   0.812   4.060   4.700  0.8229 -0.4003  0.0295
15945TIP3   OH269325   2.967   6.115   5.625 -0.7332  0.2606  0.2972
15945TIP3    H169326   3.059   6.142   5.631 -0.2854 -0.7407 -1.2569
15945TIP3    H269327   2.960   6.041   5.685 -0.5708  0.4668  0.5714
15946TIP3   OH269328   5.528   1.552  16.512  0.0919 -0.3922 -0.0500
15946TIP3    H169329   5.518   1.637  16.468 -0.5503  0.3391  1.4410
15946TIP3    H269330   5.439   1.526  16.534  0.3056 -1.3579 -0.2879
15947TIP3   OH269331   2.893   3.903   2.890  0.1613  0.0717 -0.2617
15947TIP3    H169332   2.807   3.868   2.915 -0.3436  1.5912  0.2132
15947TIP3    H269333   2.955   3.843   2.931 -0.6689  0.4552  1.6877
15948TIP3   OH269334   5.005   5.924  14.841 -0.1083 -0.0029 -0.1097
15948TIP3    H169335   5.086   5.968  14.865 -0.0067 -1.7037  3.2101
15948TIP3    H269336   5.023   5.831  14.856 -2.3132 -0.5247 -0.3863
15949TIP3   OH269337   3.410   0.229  11.260  0.0883 -0.0425 -0.1949
15949TIP3    H169338   3.396   0.135  11.250 -0.8416  0.0447  0.1988
15949TIP3    H269339   3.494   0.246  11.217  0.3892 -1.0928 -0.0327
15950TIP3   OH269340   5.646   2.754   5.903  0.0633  0.3656  0.9359
15950TIP3    H169341   5.603   2.817   5.961  0.8241  0.6736  1.1800
15950TIP3    H269342   5.668   2.680   5.960 -0.3686  0.0982  0.7576
15951TIP3   OH269343   2.920   2.557   1.363  0.1075 -0.1617  0.2005
15951TIP3    H169344   2.929   2.470   1.403  1.7221 -0.1753 -0.1295
15951TIP3    H269345   2.944   2.543   1.271 -0.1070  0.5399  0.0366
15952TIP3   OH269346   3.425   6.124   5.573  0.4527 -0.4482  0.3088
15952TIP3    H169347   3.355   6.159   5.628  1.2470 -0.6704  1.5050
15952TIP3    H269348   3.474   6.202   5.545 -0.7146 -0.2065 -1.2433
15953TIP3   OH269349   0.631   6.428   4.482  0.7118 -0.5376 -0.0426
15953TIP3    H169350   0.538   6.435   4.503  0.3388  1.0512 -1.8725
15953TIP3    H269351   0.673   6.492   4.539  0.3112  0.5355 -0.9056
15954TIP3   OH269352   3.456   4.290   1.531 -0.1474 -0.7189  0.1099
15954TIP3    H169353   3.379   4.284   1.474 -1.0871  0.2064  1.2350
15954TIP3    H269354   3.523   4.332   1.477 -0.6775 -0.8124 -0.6345
15955TIP3   OH269355   3.697   6.131   6.173  0.9105  0.8592 -0.1112
15955TIP3    H169356   3.748   6.066   6.220  0.6193  1.3120  0.8508
15955TIP3    H269357   3.662   6.188   6.241  1.7305  2.4440 -0.9544
15956TIP3   OH269358   4.300   4.611  13.866  0.0782  0.1589 -0.2242
15956TIP3    H169359   4.335   4.697  13.889  0.5145 -0.0994  0.0954
15956TIP3    H269360   4.351   4.550  13.919 -0.4788 -0.2682 -0.1720
15957TIP3   OH269361   2.467   4.904  14.807  0.3633 -0.0768 -0.5290
15957TIP3    H169362   2.521   4.949  14.872 -0.4635 -0.3346  0.3682
15957TIP3    H269363   2.524   4.891  14.732  1.3469  0.2294  0.1566
15958TIP3   OH269364   3.422   2.174  10.707 -0.1011  0.7878 -0.1629
15958TIP3    H169365   3.501   2.156  10.758  0.1240  0.3194 -0.6624
15958TIP3    H269366   3.366   2.224  10.766 -0.0618 -0.1705  0.7098
15959TIP3   OH269367   6.691   3.271   3.111  0.6730 -0.4062 -0.1168
15959TIP3    H169368   6.664   3.362   3.114 -0.4863 -0.6171 -2.2022
15959TIP3    H269369   6.633   3.226   3.172 -0.2909 -0.0871 -0.7869
15960TIP3   OH269370   6.740   6.723  12.603  0.2517 -0.1622  0.2511
15960TIP3    H169371   6.659   6.733  12.653 -1.1545 -0.4311 -1.8651
15960TIP3    H269372   6.750   6.806  12.557 -0.7746 -1.3184 -2.1847
15961TIP3   OH269373   6.337   3.351   1.875 -0.3649 -0.4141  0.4498
15961TIP3    H169374   6.374   3.290   1.811 -0.7330 -0.7065  0.5142
15961TIP3    H269375   6.242   3.342   1.866 -0.4627  1.1890 -0.5420
15962TIP3   OH269376   4.899   3.838   2.182 -0.5950  0.4372  0.0175
15962TIP3    H169377   4.916   3.762   2.238  1.7622  1.2002  0.4729
15962TIP3    H269378   4.828   3.884   2.226 -2.0930 -1.4609 -0.2784
15963TIP3   OH269379   0.724   5.733  14.832  0.0493  0.1334  0.3902
15963TIP3    H169380   0.672   5.725  14.912  0.5373  1.1278  0.8262
15963TIP3    H269381   0.672   5.789  14.774  0.3581  0.6431  0.5986
15964TIP3   OH269382   2.999   1.250  15.401 -0.5156  0.3249 -0.1063
15964TIP3    H169383   2.942   1.315  15.442 -2.0794 -0.3681 -1.0586
15964TIP3    H269384   3.045   1.299  15.332  0.3291  0.9640  0.8849
15965TIP3   OH269385   2.553   3.060   5.444  0.0326  0.2205 -0.3051
15965TIP3    H169386   2.460   3.083   5.445 -0.4295 -1.4649  0.4684
15965TIP3    H269387   2.571   3.034   5.354 -0.2767  0.4822 -0.4407
15966TIP3   OH269388   0.354   3.692  12.184 -0.6122 -0.2831 -0.6943
15966TIP3    H169389   0.395   3.775  12.161 -0.4770 -0.0606  0.3133
15966TIP3    H269390   0.384   3.631  12.117  1.9286 -0.2938  0.3398
15967TIP3   OH269391   4.722   3.271  13.394  0.0505 -0.1332  0.0120
15967TIP3    H169392   4.808   3.231  13.401 -0.0290 -0.8196 -2.2018
15967TIP3    H269393   4.669   3.227  13.460  0.5367 -2.1735 -0.8973
15968TIP3   OH269394   5.469   1.823   0.211  0.0393  0.3261 -0.3740
15968TIP3    H169395   5.434   1.823   0.122  0.1051 -0.5725 -0.4001
15968TIP3    H269396   5.537   1.891   0.209 -0.2333  0.5961 -0.8890
15969TIP3   OH269397   5.855   4.515  16.120 -0.1223 -0.1350  0.4525
15969TIP3    H169398   5.798   4.589  16.142  0.7459  0.4292  0.8867
15969TIP3    H269399   5.796   4.447  16.089 -0.9534  0.7164  0.1173
15970TIP3   OH269400   0.658   3.290   1.890  0.1046  0.4829  0.2266
15970TIP3    H169401   0.712   3.356   1.934  0.6677 -1.0372  1.9043
15970TIP3    H269402   0.573   3.294   1.935 -0.5786  1.4432 -1.0563
15971TIP3   OH269403   3.093   2.246  14.332 -0.1240 -0.6128  0.1157
15971TIP3    H169404   3.123   2.317  14.276 -0.9271 -0.1029  0.3231
15971TIP3    H269405   3.168   2.228  14.390  0.0164  0.1797  0.1854
15972TIP3   OH269406   2.846   3.205   1.509 -0.0032  0.3947 -0.6885
15972TIP3    H169407   2.756   3.179   1.529  0.3142 -0.4367 -0.3371
15972TIP3    H269408   2.837   3.294   1.473 -0.8744  0.6905  0.2153
15973TIP3   OH269409   0.164   5.818   1.117 -0.4676  0.3990 -0.4191
15973TIP3    H169410   0.243   5.768   1.138 -0.2931  0.5743 -0.6480
15973TIP3    H269411   0.193   5.910   1.119 -0.8275  0.5048  0.1796
15974TIP3   OH269412   1.375   4.297  11.932 -0.1871 -0.2108 -0.0306
15974TIP3    H169413   1.467   4.320  11.916 -0.5394  1.9489  0.7617
15974TIP3    H269414   1.333   4.304  11.846  0.4957 -2.0967 -0.5809
15975TIP3   OH269415   3.976   3.564  13.362  0.2876 -0.3478 -0.4667
15975TIP3    H169416   3.999   3.545  13.453  0.3546 -0.1932 -0.4508
15975TIP3    H269417   3.981   3.660  13.356  0.2078 -0.3529 -0.6125
15976TIP3   OH269418   6.054   2.332  16.428  0.4218 -0.0140  0.3158
15976TIP3    H169419   6.146   2.342  16.453 -0.0247 -0.2472  2.1896
15976TIP3    H269420   6.012   2.294  16.505 -1.2359 -0.0044 -0.5412
15977TIP3   OH269421   6.456   0.033  15.896 -0.9123 -0.0682 -0.5008
15977TIP3    H169422   6.538   0.019  15.849  0.3918  0.2737  1.5610
15977TIP3    H269423   6.444   0.128  15.895 -0.7323 -0.0392  0.0822
15978TIP3   OH269424   5.359   2.096   0.091 -0.1446  0.3237 -0.5695
15978TIP3    H169425   5.360   2.192   0.088  0.7518  0.3001 -2.0328
15978TIP3    H269426   5.307   2.075   0.168  0.4426  1.9948  0.3350
15979TIP3   OH269427   3.878   0.758  16.213  0.2265 -0.0458  0.0866
15979TIP3    H169428   3.815   0.727  16.147  1.0439  0.3611 -0.9207
15979TIP3    H269429   3.886   0.686  16.275  1.2333 -1.4325 -1.5819
15980TIP3   OH269430   6.621   6.661   1.123 -0.5851  0.1210  0.2698
15980TIP3    H169431   6.574   6.598   1.178 -2.3092  0.2976 -0.9263
15980TIP3    H269432   6.592   6.746   1.154  1.4757  0.4163  1.6445
15981TIP3   OH269433   0.775   2.807   4.931 -0.2256  0.4789  0.1254
15981TIP3    H169434   0.680   2.815   4.929 -0.3009  0.2388 -3.3071
15981TIP3    H269435   0.793   2.720   4.897  1.2450  0.4342  0.9276
15982TIP3   OH269436   5.868   6.466  10.891  0.7863 -0.2547  0.0917
15982TIP3    H169437   5.806   6.487  10.961 -1.7588  0.3386 -2.1905
15982TIP3    H269438   5.930   6.538  10.891  0.9569 -0.3511  1.7899
15983TIP3   OH269439   0.757   6.730   0.706  0.2909  0.6829  0.4807
15983TIP3    H169440   0.742   6.748   0.798 -1.6506 -1.2795  0.6365
15983TIP3    H269441   0.689   6.779   0.660 -0.3274 -0.2846  0.3287
15984TIP3   OH269442   1.125   6.819  16.301  0.2680  0.4701  0.1390
15984TIP3    H169443   1.048   6.768  16.327 -0.1646 -0.2218 -2.2137
15984TIP3    H269444   1.128   6.809  16.205  0.0919  4.9612 -0.5203
15985TIP3   OH269445   5.451   3.256  17.069 -0.5574 -0.0195  0.6251
15985TIP3    H169446   5.365   3.260  17.111 -0.8983 -1.9267  0.2055
15985TIP3    H269447   5.485   3.169  17.092 -0.2572 -0.6946 -2.0506
15986TIP3   OH269448   6.704   6.539   5.854  0.4986  0.9516  0.1264
15986TIP3    H169449   6.785   6.585   5.878  1.3398 -0.8387  0.9105
15986TIP3    H269450   6.636   6.605   5.862  1.5090  1.8420  2.2131
15987TIP3   OH269451   6.356   6.041   4.162 -0.2985 -0.0691  0.0212
15987TIP3    H169452   6.357   5.995   4.079 -0.4642  0.2446 -0.1557
15987TIP3    H269453   6.350   6.134   4.139  0.0045  0.0448  0.3716
15988TIP3   OH269454   0.835   3.214   3.042 -0.0014 -0.0229  0.3055
15988TIP3    H169455   0.834   3.165   2.959  2.6918  1.7963 -0.9512
15988TIP3    H269456   0.883   3.157   3.102 -0.8718 -0.8239  0.2671
15989TIP3   OH269457   4.593   0.442   2.065  0.3074 -1.1202 -0.4255
15989TIP3    H169458   4.604   0.519   2.009  0.2366 -0.6025  0.2687
15989TIP3    H269459   4.562   0.476   2.149  0.9374 -1.8297  0.1164
15990TIP3   OH269460   2.790   3.996   4.985 -0.1915 -0.0963  0.4230
15990TIP3    H169461   2.810   3.952   5.067  0.6462 -0.5615 -0.0098
15990TIP3    H269462   2.793   4.089   5.006  1.7875 -0.1497  0.5690
15991TIP3   OH269463   2.093   6.105  12.891  0.3050  0.2857 -0.0924
15991TIP3    H169464   2.176   6.069  12.862  0.0365  0.8894 -1.6991
15991TIP3    H269465   2.027   6.045  12.854 -0.0735  1.4857 -1.4617
15992TIP3   OH269466   4.988   1.130   5.579  0.8585  0.4047  0.4999
15992TIP3    H169467   4.964   1.043   5.547 -0.1414  0.7514  0.3081
15992TIP3    H269468   5.081   1.121   5.602  1.3681 -0.1152 -1.5600
15993TIP3   OH269469   4.147   3.940  16.994 -0.0578  0.2045  0.2174
15993TIP3    H169470   4.141   3.975  17.083  0.0624  2.4530 -0.5874
15993TIP3    H269471   4.091   3.863  16.995 -2.3046  1.7194  1.5727
15994TIP3   OH269472   1.358   1.793   2.590 -0.0500  0.4501 -0.1766
15994TIP3    H169473   1.369   1.871   2.644 -0.7118  0.8757 -0.6406
15994TIP3    H269474   1.447   1.765   2.569  0.1918  1.1331 -0.0834
15995TIP3   OH269475   5.427   5.845  10.458 -0.2609  0.1366  0.3431
15995TIP3    H169476   5.447   5.773  10.398  0.2642  1.5358 -1.2491
15995TIP3    H269477   5.506   5.855  10.510  0.1918  0.4407 -0.3854
15996TIP3   OH269478   3.873   5.167   4.289  0.1005 -0.0756  0.1685
15996TIP3    H169479   3.830   5.249   4.265 -0.6897 -0.5808 -0.1887
15996TIP3    H269480   3.875   5.116   4.207  0.2567 -0.5511  0.4625
15997TIP3   OH269481   5.374   3.242   2.714  0.0911 -0.1630  0.0221
15997TIP3    H169482   5.340   3.188   2.643  0.6567 -0.5385  0.0320
15997TIP3    H269483   5.302   3.300   2.737 -0.4262 -0.7134 -0.1906
15998TIP3   OH269484   6.539   1.418   5.738 -0.1697  0.3067  0.1964
15998TIP3    H169485   6.516   1.511   5.732 -0.9988  0.1466  0.7126
15998TIP3    H269486   6.494   1.387   5.816  0.2243 -0.5000  0.1132
15999TIP3   OH269487   1.388   0.287  17.188 -0.1708 -0.2010  0.0602
15999TIP3    H169488   1.335   0.289  17.108 -2.1674 -0.4358  1.2872
15999TIP3    H269489   1.478   0.293  17.158 -0.7900 -1.3908 -2.2576
16000TIP3   OH269490   2.466   0.342  15.725  0.2648  0.0164 -0.2542
16000TIP3    H169491   2.439   0.250  15.722  1.8595 -0.5540  1.1126
16000TIP3    H269492   2.385   0.391  15.734 -0.5556 -1.3402 -0.0037
16001TIP3   OH269493   0.521   6.650   1.371 -0.0001  0.1596 -0.5191
16001TIP3    H169494   0.511   6.588   1.299 -0.4117  0.0957 -0.4127
16001TIP3    H269495   0.516   6.596   1.450 -0.9706  0.3921 -0.4082
16002TIP3   OH269496   1.716   0.458  10.745 -0.3375  0.4382 -0.0210
16002TIP3    H169497   1.643   0.519  10.734 -0.5903  0.0336 -0.6283
16002TIP3    H269498   1.709   0.398  10.670 -1.1464 -1.4277  1.4644
16003TIP3   OH269499   5.219   6.336   5.604  0.2953  0.0154 -0.6449
16003TIP3    H169500   5.160   6.261   5.609 -0.1056  0.2108 -2.0709
16003TIP3    H269501   5.167   6.406   5.566  1.6008 -0.0074 -2.6311
16004TIP3   OH269502   1.474   1.430  13.278  0.5051 -0.9090  0.2308
16004TIP3    H169503   1.505   1.349  13.318  1.3952 -0.2852  0.8293
16004TIP3    H269504   1.542   1.495  13.297  0.2212 -0.2140 -0.9732
16005TIP3   OH269505   3.723   3.497  14.528  0.6209  0.3979  0.9258
16005TIP3    H169506   3.802   3.549  14.545  1.3485 -0.1998 -0.4554
16005TIP3    H269507   3.704   3.511  14.436 -0.1346 -0.4783  0.9308
16006TIP3   OH269508   1.223   3.018   4.509 -0.1484 -0.1415  0.2764
16006TIP3    H169509   1.215   3.092   4.569  1.0698  2.0263 -2.0518
16006TIP3    H269510   1.164   2.952   4.545 -1.5235  2.0438  2.3498
16007TIP3   OH269511   4.915   0.549  17.163 -0.1715  0.1536  0.2590
16007TIP3    H169512   4.875   0.479  17.214 -1.7566  0.3752 -0.6182
16007TIP3    H269513   4.845   0.580  17.105  1.2024  0.7565 -1.1594
16008TIP3   OH269514   3.382   2.362  16.404 -0.3747  0.4943  0.3361
16008TIP3    H169515   3.397   2.433  16.341 -0.1227  0.5025  0.4047
16008TIP3    H269516   3.405   2.400  16.488  2.6279 -0.5100  0.0939
16009TIP3   OH269517   2.107   6.347   6.567 -0.1414 -0.1123  0.0970
16009TIP3    H169518   2.174   6.415   6.560  0.5388 -0.8209 -0.5152
16009TIP3    H269519   2.024   6.394   6.570  0.3779  0.7777  0.7726
16010TIP3   OH269520   5.712   0.446   0.434 -0.5071 -0.0718 -0.6128
16010TIP3    H169521   5.761   0.507   0.489 -0.3118  0.8295 -1.7503
16010TIP3    H269522   5.778   0.397   0.386 -0.6781  0.9288 -1.9178
16011TIP3   OH269523   4.729   6.535   5.084 -0.2342  0.3663  0.4443
16011TIP3    H169524   4.722   6.568   4.995  0.1578 -0.5251  0.0711
16011TIP3    H269525   4.796   6.590   5.125  1.8394 -1.1241 -0.7494
16012TIP3   OH269526   2.356   0.777  10.293 -0.0974 -0.0543 -0.0201
16012TIP3    H169527   2.285   0.719  10.265  0.0557  0.2546 -1.1107
16012TIP3    H269528   2.436   0.734  10.261  0.0416  0.5685 -0.5278
16013TIP3   OH269529   6.319   6.127  15.281 -0.4721 -0.1506 -0.6031
16013TIP3    H169530   6.403   6.108  15.239  0.2070 -0.3278  0.7872
16013TIP3    H269531   6.300   6.217  15.255  1.4169  0.7989  1.0383
16014TIP3   OH269532   2.583   0.549   1.659 -0.0051 -0.2937  0.2717
16014TIP3    H169533   2.580   0.454   1.677  0.5470 -0.2496  0.6282
16014TIP3    H269534   2.555   0.589   1.742  2.7762 -0.0774  1.2257
16015TIP3   OH269535   4.147   1.328  13.064  0.0020 -0.5264  0.6806
16015TIP3    H169536   4.225   1.358  13.017  1.0916 -2.3852  1.1943
16015TIP3    H269537   4.144   1.381  13.144  0.1395  0.2440  0.1814
16016TIP3   OH269538   4.348   5.455  12.714  0.7154 -0.4571  0.4095
16016TIP3    H169539   4.266   5.492  12.681  0.0672 -1.9239  0.2904
16016TIP3    H269540   4.411   5.525  12.705 -0.3791  0.4920 -0.1339
16017TIP3   OH269541   4.516   0.875   2.542 -0.5123  0.5575  0.1563
16017TIP3    H169542   4.482   0.856   2.455 -0.5270  0.4861  0.1782
16017TIP3    H269543   4.576   0.803   2.561  1.5892  1.9433 -0.9263
16018TIP3   OH269544   3.377   5.784  13.341 -0.0651 -0.8086  0.3520
16018TIP3    H169545   3.357   5.699  13.302  1.0939 -0.7820 -0.3433
16018TIP3    H269546   3.388   5.842  13.266 -0.0904 -0.2198  0.8031
16019TIP3   OH269547   4.571   2.867   4.640 -0.2833  0.5197  0.1880
16019TIP3    H169548   4.662   2.888   4.662  0.3357 -0.7999 -1.0114
16019TIP3    H269549   4.538   2.947   4.599  0.8112  0.5188 -0.7442
16020TIP3   OH269550   2.966   0.709   2.158  0.5171 -0.6282  0.6215
16020TIP3    H169551   2.941   0.668   2.076 -0.1455  0.5960  0.1951
16020TIP3    H269552   2.933   0.649   2.226 -1.6274 -0.1931  0.0441
16021TIP3   OH269553   4.011   3.368  16.770  0.0233 -0.5167 -0.5613
16021TIP3    H169554   4.043   3.407  16.689  2.1768 -0.6840  0.1655
16021TIP3    H269555   3.916   3.366  16.759  0.2440 -0.4207 -3.0151
16022TIP3   OH269556   0.103   3.926  13.184 -0.0162  0.7409 -0.1348
16022TIP3    H169557   0.074   3.935  13.275  1.2529  0.3169  0.3392
16022TIP3    H269558   0.184   3.976  13.179 -0.4614  1.3765 -1.2453
16023TIP3   OH269559   0.673   4.866  13.612 -0.3702 -0.1857  0.3097
16023TIP3    H169560   0.714   4.790  13.655 -0.1653  1.6989  3.8592
16023TIP3    H269561   0.742   4.932  13.611 -1.5372  1.0906  0.7253
16024TIP3   OH269562   2.651   0.531   0.427 -0.1776  0.9424  0.9225
16024TIP3    H169563   2.646   0.504   0.519  0.3344 -1.3862  0.3331
16024TIP3    H269564   2.609   0.459   0.379  1.0171  1.3296 -0.7727
16025TIP3   OH269565   3.354   6.506  13.622 -0.1977  0.1454 -1.0101
16025TIP3    H169566   3.301   6.462  13.556 -0.7350  0.4638 -0.8003
16025TIP3    H269567   3.305   6.586  13.643 -0.2300 -0.1325  0.0438
16026TIP3   OH269568   4.716   0.020  16.600 -0.0214  0.3053 -0.6863
16026TIP3    H169569   4.711   0.041  16.693 -2.4723 -4.5289  0.6162
16026TIP3    H269570   4.633   0.050  16.564 -0.4056 -0.5310 -0.5244
16027TIP3   OH269571   5.962   5.383   2.105 -0.1025 -0.3718 -0.5849
16027TIP3    H169572   6.053   5.386   2.137  0.4792  0.3499 -2.1643
16027TIP3    H269573   5.940   5.475   2.089 -1.4621 -0.4542  0.6192
16028TIP3   OH269574   1.762   1.068  11.502 -0.8759 -0.1035  0.6922
16028TIP3    H169575   1.731   1.154  11.473  0.0211  0.8044  2.2567
16028TIP3    H269576   1.823   1.087  11.574 -2.0296 -2.1111  2.3270
16029TIP3   OH269577   5.517   0.582   6.550  1.2837  0.4019  0.4406
16029TIP3    H169578   5.487   0.502   6.507  0.3485 -0.9206  3.3188
16029TIP3    H269579   5.611   0.568   6.565  1.4467  0.5398 -0.3876
16030TIP3   OH269580   2.251   0.482  14.444  0.0798 -0.2447 -0.4664
16030TIP3    H169581   2.218   0.531  14.368 -0.7148  0.4937  0.3333
16030TIP3    H269582   2.272   0.395  14.409 -3.2839 -0.9936 -0.9952
16031TIP3   OH269583   6.656   2.972  13.115  0.0250  0.0327 -0.3600
16031TIP3    H169584   6.651   3.066  13.135  0.4993  0.4717 -2.1260
16031TIP3    H269585   6.741   2.962  13.073 -1.7178 -0.2969 -4.2391
16032TIP3   OH269586   0.409   6.547  12.490 -0.5963 -0.2209 -0.5094
16032TIP3    H169587   0.343   6.520  12.425 -0.2919  1.0689 -1.3760
16032TIP3    H269588   0.421   6.641  12.475  1.5513 -0.4487 -0.4588
16033TIP3   OH269589   4.167   4.021  16.097  0.4280  0.1371 -0.2844
16033TIP3    H169590   4.150   4.038  16.190 -0.9610  0.4179 -0.5686
16033TIP3    H269591   4.170   3.926  16.090  0.9902  0.1218  0.1194
16034TIP3   OH269592   0.016   4.626   2.907  0.2258  0.0730  0.3027
16034TIP3    H169593  -0.019   4.597   2.822  2.4403  1.3124 -1.1225
16034TIP3    H269594  -0.058   4.616   2.967 -2.8170  2.8869 -2.5247
16035TIP3   OH269595   2.788   6.165  16.116 -0.0042 -0.4129 -0.4342
16035TIP3    H169596   2.734   6.122  16.182 -0.0394  0.2756 -0.0066
16035TIP3    H269597   2.731   6.234  16.080 -1.2701 -2.8766 -3.6516
16036TIP3   OH269598   4.856   0.827   2.297 -0.0449 -1.1227 -0.5182
16036TIP3    H169599   4.765   0.813   2.320 -0.1744  1.2111  0.6732
16036TIP3    H269600   4.854   0.852   2.205 -0.4250 -2.3698 -0.8714
16037TIP3   OH269601   4.195   2.047   0.891  0.4753 -0.0619 -0.0786
16037TIP3    H169602   4.197   1.951   0.890 -0.1682 -0.0912  0.3113
16037TIP3    H269603   4.102   2.068   0.899  0.6256  0.5905 -0.0223
16038TIP3   OH269604   2.094   4.955   2.893  1.1369 -0.0282  0.4060
16038TIP3    H169605   2.119   4.866   2.921  0.8682  0.1841  1.3497
16038TIP3    H269606   2.030   4.983   2.958  0.6020  0.5494 -0.3621
16039TIP3   OH269607   1.543   1.763   6.206  0.1067  0.3103 -0.0072
16039TIP3    H169608   1.630   1.729   6.185 -0.4224 -0.6633 -0.7115
16039TIP3    H269609   1.499   1.692   6.252 -1.4008 -0.4892 -2.4629
16040TIP3   OH269610   4.003   1.931  14.068 -0.3095  0.3786  0.2826
16040TIP3    H169611   4.000   1.847  14.115  0.8118 -0.3371 -0.8622
16040TIP3    H269612   3.913   1.944  14.038 -0.1688 -1.4335 -1.1630
16041TIP3   OH269613   3.250   6.209   1.394 -0.1446 -0.0069 -0.0746
16041TIP3    H169614   3.185   6.264   1.350 -0.4231  0.0983  0.4580
16041TIP3    H269615   3.198   6.147   1.445  0.1081  1.6016  2.2925
16042TIP3   OH269616   1.641   6.585   5.587  0.3950 -0.2534  0.2392
16042TIP3    H169617   1.554   6.557   5.558  0.7518  0.1363 -1.2541
16042TIP3    H269618   1.628   6.607   5.680 -0.4273 -2.9852  0.8769
16043TIP3   OH269619   5.547   5.544  14.094  0.2962  0.0746 -0.1012
16043TIP3    H169620   5.630   5.496  14.103  0.1198 -0.1559  0.3488
16043TIP3    H269621   5.527   5.573  14.183 -1.1877 -1.7217  0.1988
16044TIP3   OH269622   4.210   2.722  16.536  0.3636 -0.0027 -0.2249
16044TIP3    H169623   4.270   2.754  16.603 -1.9339  0.4626  1.7837
16044TIP3    H269624   4.175   2.640  16.572 -0.4401 -0.0761 -1.1372
16045TIP3   OH269625   5.466   4.712  14.414 -0.1480  0.5961  0.2693
16045TIP3    H169626   5.511   4.662  14.482 -1.3532  1.0347  1.4267
16045TIP3    H269627   5.537   4.750  14.362  0.7948 -1.2775  0.1026
16046TIP3   OH269628   1.553   0.060   5.572 -0.3487  0.0451 -0.0866
16046TIP3    H169629   1.553  -0.008   5.640  0.7797 -0.4041 -0.5122
16046TIP3    H269630   1.467   0.101   5.580 -1.6788 -2.3947 -0.7922
16047TIP3   OH269631   4.115   2.868  13.838  0.1043  0.1361 -0.3180
16047TIP3    H169632   4.048   2.937  13.843 -0.7261 -0.6976  0.3124
16047TIP3    H269633   4.078   2.803  13.778  1.0896  0.4326 -1.2867
16048TIP3   OH269634   2.286   6.619  16.554 -0.1734  0.6621 -0.0511
16048TIP3    H169635   2.194   6.642  16.546 -0.2634  1.8704  2.9906
16048TIP3    H269636   2.326   6.649  16.472 -2.4403  0.0018 -1.4845
16049TIP3   OH269637   2.497   1.330  12.194  0.1208 -0.4915 -0.0531
16049TIP3    H169638   2.430   1.381  12.240  1.3117 -1.4215  2.9426
16049TIP3    H269639   2.579   1.374  12.216  0.9282 -2.2116  0.5136
16050TIP3   OH269640   6.186   5.563  13.139 -0.2774 -0.1662  0.2731
16050TIP3    H169641   6.201   5.580  13.046 -0.0222 -1.9120 -0.0344
16050TIP3    H269642   6.183   5.650  13.179 -0.6371  0.6253 -1.3928
16051TIP3   OH269643   1.463   2.862  17.290 -0.0575 -0.3637  0.1537
16051TIP3    H169644   1.411   2.922  17.236  1.8527  1.7634  0.5063
16051TIP3    H269645   1.413   2.780  17.291 -1.8437  0.6045 -1.9700
16052TIP3   OH269646   4.515   4.668   3.041  0.2087  0.0949  0.2758
16052TIP3    H169647   4.472   4.754   3.034  2.4764  1.2432 -0.8083
16052TIP3    H269648   4.543   4.663   3.132  1.2909  1.2017  0.0355
16053TIP3   OH269649   3.442   0.824  11.048  0.6125 -0.0904 -0.5005
16053TIP3    H169650   3.448   0.879  11.126  1.1848  0.5158 -0.9517
16053TIP3    H269651   3.407   0.883  10.980 -1.4797 -1.0504 -0.3109
16054TIP3   OH269652   0.132   0.272   4.450 -0.0283  0.6998  0.3135
16054TIP3    H169653   0.128   0.193   4.397 -0.5105 -0.3338  1.8267
16054TIP3    H269654   0.223   0.301   4.443 -0.0159  0.4194 -0.8094
16055TIP3   OH269655   3.659   1.544  11.580  0.0957  0.3984 -0.4646
16055TIP3    H169656   3.750   1.516  11.587 -0.0067  0.3097  0.9473
16055TIP3    H269657   3.609   1.472  11.618 -0.7301 -0.2351 -2.6067
16056TIP3   OH269658   1.357   0.688  15.041 -0.3002  0.4605  0.1246
16056TIP3    H169659   1.330   0.647  14.958  0.5452  0.0689  0.0298
16056TIP3    H269660   1.379   0.615  15.098  0.5826  0.7585  0.1811
16057TIP3   OH269661   3.557   5.975  14.636 -0.0746 -0.4994  0.0844
16057TIP3    H169662   3.611   5.912  14.588 -0.4848 -0.3254 -0.6225
16057TIP3    H269663   3.591   6.060  14.611 -1.1845 -0.3477 -1.0438
16058TIP3   OH269664   1.091   2.797  16.825  0.6707  0.6619  0.9021
16058TIP3    H169665   1.140   2.879  16.824 -0.8274  1.5986  1.1576
16058TIP3    H269666   1.048   2.793  16.739  0.3926  0.3709  1.0494
16059TIP3   OH269667   3.535   0.123   1.026  0.2433 -0.9759  0.3414
16059TIP3    H169668   3.489   0.201   1.058  1.3578 -0.6781  1.2541
16059TIP3    H269669   3.523   0.058   1.095  2.7054 -0.3117  1.5058
16060TIP3   OH269670   1.925   3.642   2.393 -0.3615  0.5042 -0.2504
16060TIP3    H169671   1.967   3.557   2.380 -1.4275 -0.0639 -0.0745
16060TIP3    H269672   1.831   3.623   2.397 -0.5650  1.5605  0.7833
16061TIP3   OH269673   0.683   0.255   1.559  0.1746  0.4706  0.3217
16061TIP3    H169674   0.598   0.275   1.520  1.0751 -0.0321 -2.0577
16061TIP3    H269675   0.706   0.168   1.527  1.3949  0.3883  1.3011
16062TIP3   OH269676   2.841   3.583  13.620  0.4529  0.2121  0.5830
16062TIP3    H169677   2.834   3.641  13.544 -1.5790 -0.9718 -0.2064
16062TIP3    H269678   2.810   3.636  13.693 -0.4243  0.4360  0.0567
16063TIP3   OH269679   4.711   5.446  11.529 -0.4640  0.1722 -0.4124
16063TIP3    H169680   4.690   5.516  11.590 -0.9685 -0.1254 -0.2377
16063TIP3    H269681   4.763   5.384  11.580 -0.0510  0.3969 -0.5557
16064TIP3   OH269682   0.895   1.596  13.348  0.3532  0.0887 -0.1720
16064TIP3    H169683   0.870   1.552  13.267  0.6857 -0.3787 -0.0250
16064TIP3    H269684   0.966   1.542  13.384 -0.5601 -0.3709  1.0264
16065TIP3   OH269685   4.815   1.826   2.364 -0.0215  0.1668 -0.1113
16065TIP3    H169686   4.821   1.762   2.294  1.4763  2.7368 -2.5706
16065TIP3    H269687   4.905   1.854   2.378 -0.7017  2.6483 -0.1739
16066TIP3   OH269688   2.682   0.063  13.188 -0.2263  0.0400  0.0197
16066TIP3    H169689   2.602   0.095  13.148  0.3583 -1.6871 -2.8106
16066TIP3    H269690   2.659  -0.024  13.221  0.7835 -1.2380 -2.4054
16067TIP3   OH269691   3.430   1.375  12.430  0.7843  0.0857  0.2516
16067TIP3    H169692   3.412   1.469  12.430 -1.4541 -0.2714 -1.1138
16067TIP3    H269693   3.525   1.369  12.437  1.0764  2.4669 -0.7035
16068TIP3   OH269694   1.946   3.767   3.866  0.1727 -0.5759 -0.0668
16068TIP3    H169695   2.005   3.700   3.903  1.3287  0.8222  0.7418
16068TIP3    H269696   2.005   3.838   3.840 -1.1059  0.5917  0.1358
16069TIP3   OH269697   6.161   2.342   2.257  0.0689  0.4408  0.0515
16069TIP3    H169698   6.153   2.279   2.185 -1.6209  0.7304 -0.0723
16069TIP3    H269699   6.147   2.290   2.336 -3.6685  0.8618 -0.1410
16070TIP3   OH269700   3.939   4.114   5.637  0.0137  0.7141  0.4894
16070TIP3    H169701   3.899   4.169   5.569 -0.5009  0.4478  0.5713
16070TIP3    H269702   4.025   4.153   5.651 -0.5421  1.8410  0.9291
16071TIP3   OH269703   5.589   4.888   6.295 -0.0292  0.0338  0.3345
16071TIP3    H169704   5.501   4.913   6.268 -0.1841 -0.5845  0.2480
16071TIP3    H269705   5.636   4.971   6.306 -0.6011  0.3626  0.3179
16072TIP3   OH269706   0.957   2.144  15.134  0.2540 -0.5747 -0.4288
16072TIP3    H169707   0.875   2.126  15.180  0.2268 -1.7523 -0.9139
16072TIP3    H269708   0.935   2.141  15.041  0.7337 -0.3307 -0.5556
16073TIP3   OH269709   5.525   2.429  12.182 -0.4324 -0.0451 -0.9696
16073TIP3    H169710   5.606   2.381  12.166 -1.6681 -2.8844  0.5291
16073TIP3    H269711   5.470   2.368  12.231 -3.3701  1.8875 -1.5799
16074TIP3   OH269712   2.938   0.013  13.298  0.3147  0.3085 -0.0476
16074TIP3    H169713   2.855   0.033  13.254  0.0643  1.0214  0.7131
16074TIP3    H269714   3.000   0.077  13.264  0.5099 -0.1125 -0.4857
16075TIP3   OH269715   3.973   5.157  12.909  0.1415  0.4241 -0.6385
16075TIP3    H169716   3.921   5.144  12.830 -0.2868  2.9669 -0.8533
16075TIP3    H269717   4.054   5.197  12.878  0.1154  1.1152  0.1654
16076TIP3   OH269718   0.980   0.084   4.066  0.3795  0.6347  0.1333
16076TIP3    H169719   1.056   0.121   4.021  1.6448 -0.1492  1.5419
16076TIP3    H269720   0.946   0.157   4.118 -1.1417  1.5727 -2.0049
16077TIP3   OH269721   5.718   2.006  16.587 -0.3857 -0.1600 -0.1732
16077TIP3    H169722   5.680   2.040  16.506  0.2964  0.3448 -0.2916
16077TIP3    H269723   5.643   1.988  16.643 -0.9551 -1.7242 -1.3702
16078TIP3   OH269724   0.887   2.233  16.820 -0.1129 -0.0457  0.8921
16078TIP3    H169725   0.978   2.204  16.830  0.3760  0.5180 -1.4246
16078TIP3    H269726   0.893   2.328  16.809 -1.0616  0.0710  1.2751
16079TIP3   OH269727   3.917   4.950  14.314  0.1930 -0.6730  0.1571
16079TIP3    H169728   3.853   4.990  14.373  0.6569 -2.7183  2.1812
16079TIP3    H269729   3.866   4.895  14.255 -0.1599  0.4085 -0.5814
16080TIP3   OH269730   1.211   4.810   3.340  0.1123  0.4124 -0.1938
16080TIP3    H169731   1.214   4.807   3.245 -0.9024  0.3875 -0.2347
16080TIP3    H269732   1.303   4.805   3.367  0.3548 -0.6327 -1.1355
16081TIP3   OH269733   6.770   1.412  16.079 -0.2554 -0.3100 -0.0324
16081TIP3    H169734   6.689   1.432  16.031  1.4821  1.7080 -2.3475
16081TIP3    H269735   6.824   1.364  16.016  0.9613 -0.2972  0.9630
16082TIP3   OH269736   4.260   1.177  14.395 -0.0547  0.9032 -0.0443
16082TIP3    H169737   4.298   1.171  14.483 -3.3801  0.6050  1.5288
16082TIP3    H269738   4.166   1.165  14.408 -0.7415  1.0194 -3.6675
16083TIP3   OH269739   2.578   1.544  14.769 -0.4146 -0.4576  0.3652
16083TIP3    H169740   2.580   1.580  14.680 -1.9122  1.2109  0.9387
16083TIP3    H269741   2.603   1.453  14.758 -1.2215 -0.4956 -1.8714
16084TIP3   OH269742   5.776   1.321   1.933  0.2497  0.2800  0.3201
16084TIP3    H169743   5.735   1.252   1.985 -1.4109  0.3819 -0.7924
16084TIP3    H269744   5.853   1.347   1.984  1.7497 -3.2877  0.1487
16085TIP3   OH269745   0.922   3.024   1.399  0.1187 -0.0288  0.0380
16085TIP3    H169746   0.899   2.970   1.475  2.2305  0.6337  1.2650
16085TIP3    H269747   1.013   3.051   1.417  0.3135  1.0107 -2.2465
16086TIP3   OH269748   5.984   2.751   3.943 -0.6823  0.4352 -0.0890
16086TIP3    H169749   6.000   2.813   3.872 -3.4422 -1.3198 -2.4928
16086TIP3    H269750   5.909   2.788   3.990 -1.5382 -0.3866 -0.7634
16087TIP3   OH269751   2.695   3.310   3.490  0.2552  0.6382 -0.0702
16087TIP3    H169752   2.766   3.320   3.427  0.2492 -0.5967 -0.2933
16087TIP3    H269753   2.739   3.297   3.574  0.3278 -0.9570 -0.3352
16088TIP3   OH269754   2.803   3.707  14.778  0.4478  0.4061 -0.0589
16088TIP3    H169755   2.897   3.706  14.759  0.3184  0.9449 -0.7554
16088TIP3    H269756   2.779   3.799  14.774  0.0533  0.3564  0.9825
16089TIP3   OH269757   2.486   2.673   2.858  0.1730 -0.2525  0.1742
16089TIP3    H169758   2.469   2.588   2.898  0.1979  0.3744  1.5987
16089TIP3    H269759   2.399   2.711   2.846  0.2137  0.5838  2.0673
16090TIP3   OH269760   3.744   0.575  12.654 -0.5535 -0.7968  0.1908
16090TIP3    H169761   3.722   0.640  12.588  0.0422  0.4865  1.2076
16090TIP3    H269762   3.798   0.511  12.608  1.1306  0.8710 -0.2597
16091TIP3   OH269763   1.188   5.900  11.406  0.1666 -0.0114  0.2547
16091TIP3    H169764   1.276   5.938  11.413  0.7028 -0.9265 -1.0396
16091TIP3    H269765   1.204   5.807  11.390 -1.0764 -0.4514  1.4356
16092TIP3   OH269766   1.364   2.564   5.164  0.0598 -0.3573  0.1279
16092TIP3    H169767   1.338   2.646   5.122  0.0177 -0.4759 -0.0823
16092TIP3    H269768   1.301   2.551   5.234 -0.9913 -1.0700 -0.8958
16093TIP3   OH269769   2.297   1.875  15.428  0.3045 -0.3999  0.5396
16093TIP3    H169770   2.250   1.822  15.492  1.8637 -1.5311  0.8076
16093TIP3    H269771   2.255   1.961  15.433 -2.2722 -1.5210  0.1360
16094TIP3   OH269772   4.670   5.478  14.604  0.3809  0.4151 -0.1388
16094TIP3    H169773   4.576   5.467  14.622  0.7147 -1.3032  0.8571
16094TIP3    H269774   4.684   5.572  14.606 -1.2020  0.6707  0.4423
16095TIP3   OH269775   3.520   6.275  15.866 -0.2276  0.4042  0.6712
16095TIP3    H169776   3.434   6.235  15.878 -0.8639  1.6493  0.4059
16095TIP3    H269777   3.531   6.331  15.943  0.6465 -0.2319  1.0324
16096TIP3   OH269778   5.392   4.216   5.306 -0.2154 -0.1216 -0.0261
16096TIP3    H169779   5.454   4.260   5.363  0.1475 -1.5026  0.6905
16096TIP3    H269780   5.442   4.194   5.228 -0.7894  2.0426 -1.0829
16097TIP3   OH269781   6.222   1.571  14.562 -0.1557 -0.0966 -0.0720
16097TIP3    H169782   6.235   1.628  14.637 -0.1376  0.1372 -0.2517
16097TIP3    H269783   6.203   1.485  14.600 -0.0331 -0.0046  0.1979
16098TIP3   OH269784   2.776   5.512  14.476  0.5852 -1.0611 -0.2327
16098TIP3    H169785   2.694   5.551  14.505  0.1453 -0.0829 -2.5723
16098TIP3    H269786   2.842   5.548  14.535 -0.6508 -2.2978  2.0602
16099TIP3   OH269787   1.797   4.045  14.236 -0.0631  0.0371 -0.0658
16099TIP3    H169788   1.823   4.092  14.157  0.3256  0.3975  0.2731
16099TIP3    H269789   1.879   4.005  14.267 -0.1957 -0.0154  0.2148
16100TIP3   OH269790   1.863   5.325  13.309  0.2290 -0.0774  0.1796
16100TIP3    H169791   1.929   5.274  13.355 -0.1762 -0.8406 -0.0635
16100TIP3    H269792   1.785   5.321  13.365 -0.5797 -1.8427 -0.9739
16101TIP3   OH269793   1.332   5.496   1.656  0.4369  0.3612  0.2953
16101TIP3    H169794   1.258   5.444   1.623  0.8682  0.2306 -0.5140
16101TIP3    H269795   1.313   5.510   1.748 -0.9867  1.0047 -0.0761
16102TIP3   OH269796   5.692   1.658   3.065  0.0572  0.6299  0.1342
16102TIP3    H169797   5.634   1.592   3.103  0.1037 -0.1049 -0.9875
16102TIP3    H269798   5.634   1.716   3.016  0.1947  0.1125 -0.6799
16103TIP3   OH269799   6.043   5.931   4.345 -0.5531  0.4344 -0.0594
16103TIP3    H169800   6.085   6.015   4.365 -0.7181  0.4448  0.2499
16103TIP3    H269801   6.095   5.895   4.273  1.9368 -0.9685  2.2025
16104TIP3   OH269802   5.234   2.770   6.506  0.1539  0.6069  0.2399
16104TIP3    H169803   5.243   2.683   6.544  2.1043  0.1890 -0.9814
16104TIP3    H269804   5.180   2.757   6.428  1.5446  0.1560 -0.7028
16105TIP3   OH269805   6.271   2.009  12.003 -0.9450 -0.1102 -0.3072
16105TIP3    H169806   6.179   2.011  12.031 -0.4287 -0.5547  1.5592
16105TIP3    H269807   6.321   2.019  12.084  0.6661 -0.0304 -1.2723
16106TIP3   OH269808   5.590   3.307   4.212  0.0635 -0.8893 -0.3794
16106TIP3    H169809   5.673   3.279   4.173  0.1973 -0.8363 -0.1330
16106TIP3    H269810   5.525   3.248   4.174  0.3583 -1.6103  0.2123
16107TIP3   OH269811   5.596   2.663   4.069 -0.2542  0.0090 -0.0014
16107TIP3    H169812   5.605   2.738   4.128 -2.9325 -0.9566  1.8613
16107TIP3    H269813   5.666   2.603   4.096 -0.4050  0.2991  1.0816
16108TIP3   OH269814   3.308   3.331  12.522 -0.0364 -0.0967 -0.1698
16108TIP3    H169815   3.215   3.331  12.545  0.0711  1.4694  0.3510
16108TIP3    H269816   3.334   3.239  12.529 -1.4206 -0.4851  0.1550
16109TIP3   OH269817   4.989   3.961  14.925  0.3592  0.0187  0.0944
16109TIP3    H169818   5.057   4.011  14.969  2.0749 -0.5588 -1.7666
16109TIP3    H269819   4.907   3.993  14.964  1.6088  1.3465  1.7888
16110TIP3   OH269820   4.784   0.928  16.327  0.5986 -0.4731 -0.0403
16110TIP3    H169821   4.774   0.890  16.415 -0.3683 -0.6243 -0.2146
16110TIP3    H269822   4.861   0.884  16.291  1.7914  0.4884  1.1953
16111TIP3   OH269823   1.468   6.337  13.680  0.9466 -0.0245 -0.3201
16111TIP3    H169824   1.512   6.257  13.651 -0.9289 -0.4895 -2.1436
16111TIP3    H269825   1.532   6.406  13.664  1.5429 -0.8231 -1.5549
16112TIP3   OH269826   2.005   3.801   0.200  0.3808 -0.1862  0.0316
16112TIP3    H169827   2.044   3.874   0.152 -1.2971  0.7653  0.0094
16112TIP3    H269828   1.912   3.823   0.203  0.3044 -0.4971  3.1788
16113TIP3   OH269829   2.443   4.399  15.142  0.1692 -0.6002  0.4497
16113TIP3    H169830   2.504   4.469  15.165 -0.1199 -0.1300 -0.1903
16113TIP3    H269831   2.499   4.328  15.109  0.3157  0.3498 -1.4704
16114TIP3   OH269832   1.299   0.829  12.512 -0.6476  0.1707 -0.5061
16114TIP3    H169833   1.225   0.886  12.530 -0.5757  0.2138 -0.3373
16114TIP3    H269834   1.283   0.752  12.567  0.0641  0.7125  0.5145
16115TIP3   OH269835   1.406   5.212   3.861  0.3222 -0.1985  0.1791
16115TIP3    H169836   1.451   5.147   3.915 -2.8144 -1.0251  2.0666
16115TIP3    H269837   1.408   5.292   3.914 -0.6912 -0.3491  0.4573
16116TIP3   OH269838   0.458   3.912   1.049 -0.3655 -0.1349 -0.5530
16116TIP3    H169839   0.454   3.919   0.954 -0.8079  0.8053 -0.4782
16116TIP3    H269840   0.550   3.893   1.068  0.2314  1.9922 -1.0508
16117TIP3   OH269841   2.047   5.091   2.095  0.8488 -0.5981 -0.7551
16117TIP3    H169842   2.103   5.037   2.151  0.7915 -0.0860 -0.1864
16117TIP3    H269843   2.082   5.180   2.105 -1.1502  0.0588  1.0883
16118TIP3   OH269844   0.670   3.550  14.624  0.3659  0.2994  0.5574
16118TIP3    H169845   0.706   3.639  14.621 -0.1444  0.5365  1.4242
16118TIP3    H269846   0.667   3.523  14.532 -0.2979  1.5136  0.2017
16119TIP3   OH269847   2.886   0.074  16.843  0.3676 -0.4532 -0.7045
16119TIP3    H169848   2.849  -0.002  16.799  0.5266 -1.3631  0.6508
16119TIP3    H269849   2.810   0.121  16.877  0.3253 -1.8826  1.3735
16120TIP3   OH269850   0.802   0.219   4.767 -0.2010 -0.5718  0.2627
16120TIP3    H169851   0.885   0.192   4.728 -0.0887 -3.4305  2.2176
16120TIP3    H269852   0.755   0.137   4.783 -2.6051  0.8483  0.9592
16121TIP3   OH269853   2.347   0.862   1.016 -0.3200 -0.0048 -0.1305
16121TIP3    H169854   2.307   0.856   0.929 -0.7846 -0.4649  0.1061
16121TIP3    H269855   2.388   0.948   1.018 -1.6913  0.6822 -0.2386
16122TIP3   OH269856   2.579   5.098   0.895 -0.0471 -0.4233  0.6398
16122TIP3    H169857   2.618   5.021   0.853 -0.0706 -0.2473  0.2878
16122TIP3    H269858   2.649   5.163   0.894 -0.5470  0.1252 -0.6274
16123TIP3   OH269859   5.412   0.404   2.987 -0.1739 -0.2149 -0.0173
16123TIP3    H169860   5.420   0.344   2.913 -0.0318  0.7609 -0.8270
16123TIP3    H269861   5.330   0.451   2.971 -0.6673 -0.6969  1.0036
16124TIP3   OH269862   0.568   4.764  13.993 -0.1595 -0.4193 -0.4529
16124TIP3    H169863   0.501   4.775  13.925  0.4054  0.3266 -0.9003
16124TIP3    H269864   0.524   4.790  14.074 -0.5752 -0.4535 -0.6633
16125TIP3   OH269865   0.641   3.922   4.367  0.3457 -0.4316 -1.0825
16125TIP3    H169866   0.670   3.857   4.431 -0.5288 -1.6740 -1.9006
16125TIP3    H269867   0.608   3.995   4.420  1.6709 -0.4624 -0.1499
16126TIP3   OH269868   4.070   6.487   3.522  0.3074 -0.0887  0.3008
16126TIP3    H169869   4.003   6.434   3.565  1.8503 -0.4987  2.4013
16126TIP3    H269870   4.022   6.541   3.460 -1.4788 -3.1084 -1.1651
16127TIP3   OH269871   1.630   1.575   4.092 -0.8032  0.0036  0.0561
16127TIP3    H169872   1.651   1.648   4.150  0.6622 -0.4444  0.1300
16127TIP3    H269873   1.713   1.527   4.083 -1.4682 -1.0113 -0.8828
16128TIP3   OH269874   0.147   3.854   2.181  0.3420  0.2063 -0.3241
16128TIP3    H169875   0.190   3.774   2.211 -0.8306  0.0221  0.9908
16128TIP3    H269876   0.155   3.915   2.255 -1.1720  0.3288 -0.2283
16129TIP3   OH269877   6.128   0.478   0.051  0.2206  0.3954  0.4997
16129TIP3    H169878   6.197   0.435   0.101 -0.9018 -3.8922 -1.1898
16129TIP3    H269879   6.048   0.465   0.102 -0.2297 -0.0095 -0.2851
16130TIP3   OH269880   2.088   5.717   0.182  0.4032  0.2316  0.2087
16130TIP3    H169881   2.181   5.710   0.204 -0.2277 -2.3713  2.5064
16130TIP3    H269882   2.050   5.633   0.208 -2.3297  0.4813 -2.3549
16131TIP3   OH269883   0.763   0.392  13.296 -0.0865  0.1040  0.4225
16131TIP3    H169884   0.825   0.403  13.368  0.7420 -1.1184 -0.0745
16131TIP3    H269885   0.801   0.323  13.242 -0.2079  1.5958 -1.7001
16132TIP3   OH269886   4.088   3.825  13.555 -0.0307  0.1015  0.0411
16132TIP3    H169887   4.070   3.772  13.633  1.5282 -1.1461 -0.3808
16132TIP3    H269888   4.184   3.825  13.548 -0.1431 -0.1372 -2.0679
16133TIP3   OH269889   0.762   4.787   2.033  0.7003 -0.1055 -0.0359
16133TIP3    H169890   0.790   4.743   1.952  1.2660 -0.4359  0.3320
16133TIP3    H269891   0.667   4.793   2.026  0.7630  0.0789 -0.8333
16134TIP3   OH269892   6.170   5.315   2.753  0.4686 -0.3553  0.1347
16134TIP3    H169893   6.168   5.411   2.745  0.6267 -0.2252  1.3866
16134TIP3    H269894   6.121   5.283   2.678 -0.6145  0.7534  0.3372
16135TIP3   OH269895   1.982   0.509  13.178  0.6242  0.2390  0.0974
16135TIP3    H169896   2.034   0.535  13.253  1.1580  0.5350 -0.3677
16135TIP3    H269897   2.038   0.448  13.130 -0.0011 -0.5425  0.3288
16136TIP3   OH269898   2.617   4.818  15.883 -0.3251 -0.1541 -0.6379
16136TIP3    H169899   2.589   4.728  15.869  1.7259 -1.2785  1.6881
16136TIP3    H269900   2.545   4.858  15.931 -0.1932 -1.4079  0.6686
16137TIP3   OH269901   2.803   5.375   6.664 -0.5982  0.6398  0.3143
16137TIP3    H169902   2.887   5.361   6.621  0.4084  1.2613  1.9824
16137TIP3    H269903   2.740   5.330   6.608  0.8670 -0.0919 -0.8249
16138TIP3   OH269904   0.560   6.515  16.129 -0.0433  0.9716  0.0832
16138TIP3    H169905   0.632   6.485  16.072  0.5434 -1.0189  1.7378
16138TIP3    H269906   0.481   6.479  16.088  0.3181  0.0195  0.1809
16139TIP3   OH269907   3.625   0.667  16.767  0.3632 -0.1588 -0.1825
16139TIP3    H169908   3.595   0.577  16.756 -0.1434  0.0873 -0.9182
16139TIP3    H269909   3.707   0.660  16.814  0.5490 -1.0407 -0.6197
16140TIP3   OH269910   6.636   4.395   1.013 -0.0998  0.0186  0.6551
16140TIP3    H169911   6.617   4.445   1.092 -1.1604 -2.2485  1.9445
16140TIP3    H269912   6.555   4.399   0.962  0.6056  1.5400 -0.4277
16141TIP3   OH269913   0.791   5.576   3.008  0.2974 -0.2912 -0.4802
16141TIP3    H169914   0.873   5.528   2.999  1.7531  1.8191  0.9253
16141TIP3    H269915   0.799   5.650   2.948 -0.7051 -0.1593 -0.4806
16142TIP3   OH269916   3.566   3.329  14.960  0.1027  0.2109 -0.1292
16142TIP3    H169917   3.499   3.382  14.916  0.3194 -0.4624 -1.3155
16142TIP3    H269918   3.579   3.372  15.045 -1.2927  0.7749 -0.1774
16143TIP3   OH269919   2.707   0.144  10.785 -0.0888  0.0783  0.2127
16143TIP3    H169920   2.747   0.062  10.813 -0.5218  0.1174  0.9617
16143TIP3    H269921   2.777   0.209  10.796  1.1925 -0.5751 -3.0107
16144TIP3   OH269922   6.277   4.207   5.289 -0.2016 -0.5136 -0.1360
16144TIP3    H169923   6.348   4.158   5.249  1.6720  2.2131 -0.4325
16144TIP3    H269924   6.295   4.204   5.383  1.4408  1.5856 -0.3051
16145TIP3   OH269925   0.054   5.430   5.418 -0.3855 -0.4770  0.0106
16145TIP3    H169926   0.136   5.382   5.436 -0.2614 -0.6768 -0.9794
16145TIP3    H269927   0.082   5.520   5.405 -0.4605 -0.3545  0.6649
16146TIP3   OH269928   6.467   2.679  12.708  0.4477 -0.4015  0.2885
16146TIP3    H169929   6.460   2.626  12.787  1.0826 -0.1375  0.5263
16146TIP3    H269930   6.553   2.721  12.714  1.3978 -1.9361 -1.5201
16147TIP3   OH269931   1.947   0.174  15.098  0.2252 -0.1418 -0.1719
16147TIP3    H169932   1.913   0.168  15.009 -1.7842  0.7914  0.4672
16147TIP3    H269933   2.004   0.250  15.097  1.0151 -0.7217 -0.8737
16148TIP3   OH269934   5.759   1.226  12.920 -0.0489 -0.2180  0.3485
16148TIP3    H169935   5.757   1.163  12.848 -0.1400 -0.7399  0.7989
16148TIP3    H269936   5.671   1.222  12.958  0.2486 -0.5973  1.0314
16149TIP3   OH269937   2.466   1.108  11.807 -0.4168 -0.3121 -0.2647
16149TIP3    H169938   2.513   1.028  11.828  0.7189  0.2699 -0.5218
16149TIP3    H269939   2.448   1.101  11.713  0.0309 -0.0842 -0.3662
16150TIP3   OH269940   5.822   3.827   2.972  0.1051 -0.2244  0.9588
16150TIP3    H169941   5.738   3.831   3.017  0.4371  0.2661  1.5432
16150TIP3    H269942   5.838   3.733   2.959  0.4940 -0.4546  2.8208
16151TIP3   OH269943   6.384   3.553   2.286  0.2294  0.3963 -0.3779
16151TIP3    H169944   6.374   3.479   2.346  1.7623 -0.3284 -0.9655
16151TIP3    H269945   6.294   3.583   2.270 -0.3107 -0.3642  1.0483
16152TIP3   OH269946   3.790   0.185   0.566 -0.3203  0.6495  0.6958
16152TIP3    H169947   3.788   0.281   0.574 -0.1069  0.7428 -0.2929
16152TIP3    H269948   3.726   0.155   0.631 -1.7222  1.5475 -0.1993
16153TIP3   OH269949   3.781   4.294  11.349  0.5301  0.5488  0.0181
16153TIP3    H169950   3.749   4.314  11.261  1.0337  0.6972 -0.1340
16153TIP3    H269951   3.875   4.277  11.337  0.4796 -0.0478  0.4297
16154TIP3   OH269952   2.782   1.176   2.675 -0.4127 -0.0692  0.1642
16154TIP3    H169953   2.764   1.142   2.587 -0.6149 -1.3160  0.6572
16154TIP3    H269954   2.843   1.248   2.661 -3.3699  2.3710 -1.3431
16155TIP3   OH269955   0.535   1.174   1.680 -0.2705 -0.0625  0.2868
16155TIP3    H169956   0.525   1.149   1.772  1.6003 -1.6952  0.1011
16155TIP3    H269957   0.471   1.119   1.634 -0.0679 -0.4579  0.4663
16156TIP3   OH269958   1.589   6.401   0.056 -0.7555  0.2867  0.3652
16156TIP3    H169959   1.538   6.434  -0.017 -1.5971 -4.9117 -1.8764
16156TIP3    H269960   1.680   6.411   0.029 -1.0198  0.0015 -0.6765
16157TIP3   OH269961   3.967   6.262   5.741  0.6098 -0.1595 -0.1779
16157TIP3    H169962   3.946   6.355   5.739  1.6979  0.0767 -1.6334
16157TIP3    H269963   3.991   6.246   5.833  1.0304  1.1352 -0.0360
16158TIP3   OH269964   1.829   3.172   0.764 -0.5106  0.1041 -0.2637
16158TIP3    H169965   1.814   3.192   0.671 -0.1078 -0.1463 -0.3904
16158TIP3    H269966   1.778   3.092   0.779 -1.9032  1.0521  0.1721
16159TIP3   OH269967   4.409   5.853   3.841 -0.3049 -0.1036  0.3280
16159TIP3    H169968   4.497   5.816   3.851 -0.2429  0.0526  0.3663
16159TIP3    H269969   4.423   5.932   3.789 -0.7056 -1.3005 -1.7197
16160TIP3   OH269970   4.845   2.438  13.069 -0.0799  0.2706  0.0672
16160TIP3    H169971   4.917   2.386  13.106  0.0315  2.4457  3.3166
16160TIP3    H269972   4.888   2.518  13.037 -0.9055  1.2679  1.3615
16161TIP3   OH269973   1.725   3.485   5.347 -0.0905 -0.4459 -0.0909
16161TIP3    H169974   1.801   3.428   5.354 -0.8653 -1.4604  0.3141
16161TIP3    H269975   1.726   3.515   5.256  0.6606 -0.6320 -0.1461
16162TIP3   OH269976   1.489   5.098  15.427 -0.4553 -0.4116  0.5881
16162TIP3    H169977   1.394   5.087  15.416 -0.3876 -0.2638 -0.1974
16162TIP3    H269978   1.527   5.030  15.370 -0.0819  0.4168 -0.1744
16163TIP3   OH269979   0.737   2.644  12.649 -0.7991 -0.1632  0.3978
16163TIP3    H169980   0.735   2.589  12.571  0.0659 -0.6031  0.6679
16163TIP3    H269981   0.721   2.583  12.722 -2.8085  0.4221  0.5082
16164TIP3   OH269982   3.691   4.977  16.039  0.1559  0.3909  0.5305
16164TIP3    H169983   3.678   5.008  16.128 -2.1245  3.0064 -0.5694
16164TIP3    H269984   3.662   4.886  16.040  0.5730  0.2390  2.4909
16165TIP3   OH269985   3.578   2.886  15.895  0.3019 -0.0762  0.4553
16165TIP3    H169986   3.504   2.889  15.834  0.3205  1.6603  0.4905
16165TIP3    H269987   3.645   2.836  15.849 -0.1985 -0.0030 -0.3659
16166TIP3   OH269988   1.034   3.006   6.318 -0.6838  0.6394 -0.2905
16166TIP3    H169989   0.965   2.993   6.383  0.1139 -0.2963  0.3901
16166TIP3    H269990   1.020   3.095   6.285  0.4188  2.1694  2.9949
16167TIP3   OH269991   2.286   6.398   0.118  0.5186 -0.7737 -0.1748
16167TIP3    H169992   2.261   6.427   0.030 -0.1336 -0.2260  0.1830
16167TIP3    H269993   2.302   6.304   0.109  2.0377 -0.4587 -1.2210
16168TIP3   OH269994   0.169   4.998  12.148 -0.6137  0.4051  0.4858
16168TIP3    H169995   0.256   4.959  12.132 -0.2671  1.0532  0.7557
16168TIP3    H269996   0.110   4.923  12.155 -0.2486 -0.0153 -0.6786
16169TIP3   OH269997   6.570   2.656  14.851  0.7681  0.2752 -0.1142
16169TIP3    H169998   6.571   2.597  14.776 -0.2175 -0.3398  0.3292
16169TIP3    H269999   6.541   2.740  14.816 -0.1647 -0.1319 -0.3616
16170TIP3   OH270000   2.976   0.317   3.023 -0.1626 -0.2664  0.3910
16170TIP3    H170001   2.932   0.398   2.999  0.4893  0.5099  1.7110
16170TIP3    H270002   2.929   0.285   3.100 -1.0475 -1.7069 -0.6978
16171TIP3   OH270003   5.911   0.935   2.341 -0.1438 -0.0598 -0.7737
16171TIP3    H170004   5.921   0.920   2.435  3.7825 -1.3789 -1.1950
16171TIP3    H270005   5.896   0.848   2.304  2.3870 -0.2170 -1.6018
16172TIP3   OH270006   1.186   5.169  16.934  0.0719 -0.2733  0.2316
16172TIP3    H170007   1.171   5.075  16.933 -0.5994 -0.1692  0.0133
16172TIP3    H270008   1.275   5.179  16.967 -0.4170 -0.9161  1.8226
16173TIP3   OH270009   0.755   1.403  13.803 -0.7165 -0.1100  0.1932
16173TIP3    H170010   0.770   1.486  13.758  0.4372 -0.1626  0.4348
16173TIP3    H270011   0.786   1.336  13.742 -1.0740 -0.3193  0.2397
16174TIP3   OH270012   2.527   0.567   2.912  0.1432  0.1407 -0.0099
16174TIP3    H170013   2.501   0.508   2.841 -1.7450  1.0833 -0.1571
16174TIP3    H270014   2.584   0.632   2.870 -0.4744  0.3397 -0.5518
16175TIP3   OH270015   6.284   3.762   3.707 -0.1639 -0.0437 -0.1973
16175TIP3    H170016   6.226   3.686   3.705 -0.1988 -0.0074 -0.8403
16175TIP3    H270017   6.226   3.837   3.721 -0.3625  0.0596 -1.4549
16176TIP3   OH270018   4.023   3.704  15.581  0.1848  0.0238 -0.0027
16176TIP3    H170019   4.001   3.794  15.606 -0.6105  0.2381 -1.3551
16176TIP3    H270020   4.107   3.687  15.622 -0.4629  0.7543  1.7251
16177TIP3   OH270021   5.271   3.323   0.130  0.0772  0.0057  0.0724
16177TIP3    H170022   5.362   3.325   0.101 -0.2571  0.5658 -0.9794
16177TIP3    H270023   5.235   3.407   0.102 -0.1868  0.8029  2.5054
16178TIP3   OH270024   1.262   2.896   3.164  0.1732 -0.0558  0.3148
16178TIP3    H170025   1.324   2.835   3.123 -1.0915 -0.4889 -1.0413
16178TIP3    H270026   1.177   2.870   3.129 -1.1845 -0.9862  3.8013
16179TIP3   OH270027   0.076   4.080  16.445 -0.4635  0.0027 -0.5896
16179TIP3    H170028   0.064   4.163  16.491  0.3299 -0.7203  1.0170
16179TIP3    H270029   0.006   4.024  16.478  0.0429 -0.4894 -0.3371
16180TIP3   OH270030   4.162   1.648   0.309 -0.2825  0.0420 -0.2520
16180TIP3    H170031   4.160   1.570   0.365 -0.7981  0.0379 -0.2693
16180TIP3    H270032   4.163   1.721   0.370 -2.3306  0.0812 -0.1895
16181TIP3   OH270033   1.426   5.897  12.077  0.3015 -0.6496  0.4282
16181TIP3    H170034   1.450   5.988  12.060 -0.2160 -0.5289  0.3147
16181TIP3    H270035   1.509   5.851  12.086  0.5726 -0.3188 -0.3370
16182TIP3   OH270036   4.174   3.304   2.859  0.5028  0.1979  0.0380
16182TIP3    H170037   4.192   3.392   2.892 -2.9324  1.4077 -0.9050
16182TIP3    H270038   4.129   3.260   2.930  2.2692 -0.9221  0.5292
16183TIP3   OH270039   4.695   3.711  16.275  0.1569  0.0461 -0.2819
16183TIP3    H170040   4.616   3.719  16.221  0.7471  0.2149 -1.1396
16183TIP3    H270041   4.707   3.798  16.312 -0.2914 -0.0881  0.1866
16184TIP3   OH270042   6.773   4.178   1.031  0.2705  0.2672  0.0836
16184TIP3    H170043   6.736   4.265   1.046  0.9817  0.6429 -0.2538
16184TIP3    H270044   6.698   4.122   1.011 -0.1610  0.8794 -0.0258
16185TIP3   OH270045   5.898   5.710   5.188  0.2275  0.2232 -0.9789
16185TIP3    H170046   5.989   5.736   5.204 -0.6317  1.8083  2.2317
16185TIP3    H270047   5.864   5.776   5.128  0.6684  0.9052 -0.4965
16186TIP3   OH270048   3.860   6.228  16.155 -0.6956 -0.0918  0.1079
16186TIP3    H170049   3.852   6.213  16.061  2.0308  1.6817 -0.5471
16186TIP3    H270050   3.805   6.304  16.172 -1.7646 -0.8553  0.1213
16187TIP3   OH270051   1.479   3.640   3.579  0.2784  0.5191 -0.2148
16187TIP3    H170052   1.556   3.684   3.614  1.5985  0.4072 -2.7027
16187TIP3    H270053   1.436   3.602   3.655  2.1217  1.4506  1.3827
16188TIP3   OH270054   5.743   6.444  11.286 -0.6192 -0.3100 -0.2576
16188TIP3    H170055   5.838   6.439  11.299 -0.4082  1.1550 -1.0360
16188TIP3    H270056   5.707   6.397  11.361  0.6554  1.8964  1.9234
16189TIP3   OH270057   2.066   1.733   2.225  0.0401  0.3117 -0.8430
16189TIP3    H170058   2.014   1.653   2.237 -0.4369  0.9548  2.0429
16189TIP3    H270059   2.001   1.802   2.210 -0.2933  1.2884  3.6986
16190TIP3   OH270060   4.657   4.025   3.117 -0.0414 -0.4716 -0.2585
16190TIP3    H170061   4.682   4.074   3.195 -0.4863 -2.8747  1.5149
16190TIP3    H270062   4.571   4.058   3.093  0.1671  0.3875  0.1679
16191TIP3   OH270063   2.430   5.286  12.137 -0.1475  0.1626 -0.0511
16191TIP3    H170064   2.365   5.315  12.071  0.7317  1.7734 -0.2752
16191TIP3    H270065   2.448   5.365  12.188 -0.2120 -0.8774  1.6432
16192TIP3   OH270066   2.918   0.070  12.119  0.2110 -0.5660 -0.1113
16192TIP3    H170067   2.856   0.011  12.161 -0.2112  0.2629  0.4445
16192TIP3    H270068   2.949   0.126  12.189  1.7452 -1.0806 -0.3373
16193TIP3   OH270069   0.297   3.997   0.422  0.4684 -0.2680  0.1323
16193TIP3    H170070   0.274   4.088   0.404  0.4308 -0.4154 -0.6018
16193TIP3    H270071   0.383   4.001   0.462  1.4411 -0.0222 -1.8574
16194TIP3   OH270072   1.775   0.920  17.240  0.3748  0.1492  0.4951
16194TIP3    H170073   1.684   0.946  17.254  0.1305 -0.4891  0.1522
16194TIP3    H270074   1.823   1.002  17.229 -0.2873  0.4671 -0.0580
16195TIP3   OH270075   5.694   0.727  16.953 -0.1563 -0.3056 -0.6304
16195TIP3    H170076   5.752   0.680  16.893 -0.7860 -1.8138 -0.1036
16195TIP3    H270077   5.663   0.802  16.903 -0.4206 -1.3525 -2.0933
16196TIP3   OH270078   2.304   2.559   1.282  0.3065  0.3353  0.2067
16196TIP3    H170079   2.216   2.522   1.294  0.7073 -0.7445 -0.0309
16196TIP3    H270080   2.307   2.581   1.189 -0.0131  1.2059  0.3954
16197TIP3   OH270081   1.589   4.476   1.936 -0.1535  0.6305  0.4329
16197TIP3    H170082   1.539   4.401   1.906 -0.3532  0.9771 -0.1294
16197TIP3    H270083   1.644   4.499   1.861 -0.3592  1.2648  0.4714
16198TIP3   OH270084   0.953   1.401  14.598  0.2120 -0.0989  0.2665
16198TIP3    H170085   0.984   1.452  14.524 -1.1167 -0.0366 -0.2859
16198TIP3    H270086   1.015   1.330  14.607  0.9809  0.4996 -0.2182
16199TIP3   OH270087   4.797   6.521  15.260  0.1098  0.0767 -0.2855
16199TIP3    H170088   4.756   6.443  15.222  1.7297 -0.7675 -0.3985
16199TIP3    H270089   4.724   6.574  15.291 -1.0354 -1.5889 -0.0040
16200TIP3   OH270090   4.156   4.397   2.486 -0.3042 -0.2801  0.0001
16200TIP3    H170091   4.206   4.479   2.485  0.5883 -0.8109 -0.9560
16200TIP3    H270092   4.155   4.371   2.578  0.2289  0.3216  0.1829
16201TIP3   OH270093   5.812   5.648   4.698 -1.4489 -0.1850  0.0463
16201TIP3    H170094   5.848   5.607   4.618 -1.7183  1.4384 -0.9504
16201TIP3    H270095   5.733   5.692   4.669 -0.6872  1.8259  0.8430
16202TIP3   OH270096   5.056   0.835   4.975  0.3093  0.0886 -0.3762
16202TIP3    H170097   5.022   0.886   4.901 -1.5962 -1.6169 -0.7677
16202TIP3    H270098   5.098   0.759   4.935  0.8419  0.0380  0.2622
16203TIP3   OH270099   2.598   0.144   2.397 -0.0219 -0.1992 -0.2625
16203TIP3    H170100   2.566   0.058   2.424 -1.7708  0.9099  1.4572
16203TIP3    H270101   2.659   0.171   2.465  1.6610 -0.6311 -1.5340
16204TIP3   OH270102   2.031   4.510   4.308 -0.2331  0.2958 -0.0148
16204TIP3    H170103   2.074   4.579   4.258  0.4367 -0.0362  0.1018
16204TIP3    H270104   1.970   4.469   4.246  1.3753 -0.8410 -0.8958
16205TIP3   OH270105   1.079   4.277   4.586  0.4888  0.0460  0.1001
16205TIP3    H170106   1.141   4.293   4.516  0.4753  1.4448  0.3878
16205TIP3    H270107   0.999   4.321   4.558  0.6031  0.9547  1.1520
16206TIP3   OH270108   6.002   3.671   3.898 -0.0986 -0.1176 -0.8883
16206TIP3    H170109   5.967   3.734   3.836  0.3298 -0.0013 -1.0158
16206TIP3    H270110   6.013   3.720   3.980  0.7516  0.1285 -1.1356
16207TIP3   OH270111   0.480   2.474  11.601  0.7735 -0.5271 -0.3258
16207TIP3    H170112   0.476   2.475  11.505  1.7318  1.5943 -0.3889
16207TIP3    H270113   0.399   2.516  11.628  1.0744  0.0086 -0.2509
16208TIP3   OH270114   6.793   0.273  14.788  0.1415  0.0946  0.0838
16208TIP3    H170115   6.712   0.269  14.838  0.4897  0.6549  0.7068
16208TIP3    H270116   6.855   0.317  14.845  0.7673  0.0688 -0.5527
16209TIP3   OH270117   4.193   5.336  13.369  0.6357  0.3923 -0.0572
16209TIP3    H170118   4.141   5.324  13.448 -0.3632  0.0079 -0.7668
16209TIP3    H270119   4.279   5.302  13.392  0.1542 -0.3836  0.6288
16210TIP3   OH270120   5.334   0.120  14.103  0.1895  0.0839 -0.0744
16210TIP3    H170121   5.304   0.168  14.181  0.8477  1.1724 -0.4655
16210TIP3    H270122   5.255   0.079  14.068 -0.2199  0.1039  0.8118
16211TIP3   OH270123   0.219   5.622   2.265 -0.3446  0.2925  0.1835
16211TIP3    H170124   0.143   5.564   2.276 -0.3063  0.0098 -0.9869
16211TIP3    H270125   0.186   5.695   2.213 -0.4052  1.3859  1.6968
16212TIP3   OH270126   3.169   0.499   5.088  0.2547  0.1474 -0.4619
16212TIP3    H170127   3.166   0.554   5.010  3.2533  1.6262  0.3408
16212TIP3    H270128   3.183   0.410   5.054  0.6141  0.6271 -1.6371
16213TIP3   OH270129   6.625   6.654   2.368 -0.4082 -0.0419 -0.8385
16213TIP3    H170130   6.531   6.637   2.360 -0.9919  0.1497  3.3965
16213TIP3    H270131   6.631   6.731   2.424  2.2676 -0.1424 -0.8734
16214TIP3   OH270132   2.552   2.389   4.567 -0.0921  0.0027 -0.1484
16214TIP3    H170133   2.550   2.325   4.495  2.8067  2.3895 -2.6410
16214TIP3    H270134   2.627   2.363   4.620  0.1881  0.4845 -0.3064
16215TIP3   OH270135   2.679   2.477   6.474 -0.0551  0.3766  0.4689
16215TIP3    H170136   2.725   2.561   6.460  0.1459  0.3245  0.8183
16215TIP3    H270137   2.604   2.482   6.415  1.1164 -0.0997 -1.1513
16216TIP3   OH270138   5.283   4.159  13.152  0.2493  0.6933  0.0948
16216TIP3    H170139   5.273   4.252  13.130  0.9871  0.8250  0.2828
16216TIP3    H270140   5.294   4.159  13.247 -0.3662  0.3512  0.1731
16217TIP3   OH270141   6.714   2.822   6.819  0.0691  0.3585  0.0663
16217TIP3    H170142   6.643   2.758   6.822 -0.4805  0.9457  3.6038
16217TIP3    H270143   6.793   2.772   6.836 -0.0281  0.2746  0.2658
16218TIP3   OH270144   6.443   3.066  15.394 -0.5588 -0.3306 -0.0863
16218TIP3    H170145   6.358   3.089  15.354 -0.7469  2.2138  1.5029
16218TIP3    H270146   6.433   3.092  15.486  1.2937 -1.9040  0.6135
16219TIP3   OH270147   2.011   1.100   6.642  0.6839  0.0052  0.3014
16219TIP3    H170148   1.985   1.018   6.683 -2.4648 -0.2885 -1.9289
16219TIP3    H270149   2.089   1.078   6.591  0.0095 -1.6117 -0.1012
16220TIP3   OH270150   3.570   5.637  16.129 -1.0049 -0.1771 -0.6056
16220TIP3    H170151   3.622   5.658  16.207 -0.7153 -1.5667 -0.4017
16220TIP3    H270152   3.556   5.721  16.086  2.7624  0.1460 -1.5367
16221TIP3   OH270153   2.292   4.869  11.168  0.0287 -0.8172  0.5074
16221TIP3    H170154   2.308   4.780  11.136  1.0867 -1.1102  1.7802
16221TIP3    H270155   2.371   4.891  11.218 -1.3877 -0.2655  2.6167
16222TIP3   OH270156   6.241   0.639  13.577  0.0900 -0.1655  0.7365
16222TIP3    H170157   6.148   0.641  13.599 -0.0134 -0.3061  0.3101
16222TIP3    H270158   6.255   0.554  13.536  0.4812 -0.2894  1.1204
16223TIP3   OH270159   6.043   4.442  12.305  0.4086 -0.0957 -0.1523
16223TIP3    H170160   6.098   4.374  12.344 -1.5907 -0.4410  2.3833
16223TIP3    H270161   5.994   4.396  12.237  0.2799 -0.8291  0.4156
16224TIP3   OH270162   6.408   4.019   4.010 -0.0668  0.2488  0.5696
16224TIP3    H170163   6.394   4.113   4.004  2.6710  0.6434 -2.2083
16224TIP3    H270164   6.397   3.988   3.920  2.7178 -1.3969  0.6848
16225TIP3   OH270165   0.680   3.525  15.624 -0.0183  0.0404  0.1043
16225TIP3    H170166   0.611   3.506  15.688  0.7381  0.1658  0.9685
16225TIP3    H270167   0.649   3.603  15.578 -0.2497  0.3495  0.7754
16226TIP3   OH270168   5.664   6.004   0.829  0.3039 -0.0386 -0.4062
16226TIP3    H170169   5.733   5.971   0.772 -0.1052 -0.8182 -0.4526
16226TIP3    H270170   5.669   6.100   0.819  0.0904 -0.1579 -1.9179
16227TIP3   OH270171   4.624   1.252   4.883  0.1185  0.4582 -0.5586
16227TIP3    H170172   4.647   1.161   4.863  1.4754  0.1386  1.9676
16227TIP3    H270173   4.665   1.268   4.968 -1.6685  2.8598 -0.0572
16228TIP3   OH270174   0.412   4.097   6.549 -0.4183 -0.0389  0.1300
16228TIP3    H170175   0.331   4.136   6.515 -0.2808  0.1826  0.0559
16228TIP3    H270176   0.434   4.028   6.486 -0.9756 -0.6300  0.5685
16229TIP3   OH270177   4.539   4.021  15.693 -0.3672 -0.0037  0.0274
16229TIP3    H170178   4.527   4.078  15.616  2.0764  2.5176  1.3301
16229TIP3    H270179   4.628   3.987  15.685 -0.2054 -0.0078  1.5164
16230TIP3   OH270180   1.812   6.228  12.652  0.2922 -0.6533 -0.0135
16230TIP3    H170181   1.799   6.140  12.687 -1.4305 -1.3512 -2.2247
16230TIP3    H270182   1.893   6.221  12.600 -1.1041 -1.6918 -2.1927
16231TIP3   OH270183   6.189   3.639  15.120 -0.1135 -0.0944 -0.5721
16231TIP3    H170184   6.097   3.658  15.098  0.3010  1.8207 -0.8069
16231TIP3    H270185   6.222   3.592  15.043 -1.1802 -1.9428  0.0247
16232TIP3   OH270186   0.230   4.820   2.830  0.3388  0.2296  0.1348
16232TIP3    H170187   0.164   4.887   2.811  0.3147  0.8252  2.1101
16232TIP3    H270188   0.181   4.737   2.828 -0.7872  0.7588  2.6787
16233TIP3   OH270189   4.230   0.287   2.907  0.4779 -0.5141 -0.0963
16233TIP3    H170190   4.219   0.381   2.913  0.7446 -0.4491 -0.5700
16233TIP3    H270191   4.233   0.257   2.998  2.1096  0.1465  0.1163
16234TIP3   OH270192   2.320   1.983   4.888 -0.2983 -0.1872  0.0434
16234TIP3    H170193   2.233   2.015   4.912 -0.3218 -1.1876  1.4010
16234TIP3    H270194   2.365   2.060   4.852 -2.1086  0.0973 -1.8296
16235TIP3   OH270195   5.589   1.122   1.601  0.0996  0.4880 -0.5943
16235TIP3    H170196   5.558   1.100   1.688 -0.2140  0.1053 -0.8014
16235TIP3    H270197   5.528   1.189   1.569  0.2778  0.7060 -0.4772
16236TIP3   OH270198   2.527   1.520   1.659 -0.1685 -0.7186  0.0838
16236TIP3    H170199   2.535   1.589   1.725 -0.5125 -1.6959  1.1922
16236TIP3    H270200   2.610   1.524   1.610  0.2503 -0.2025  0.8134
16237TIP3   OH270201   5.379   1.875  14.060  0.2641 -0.2623  0.0719
16237TIP3    H170202   5.442   1.932  14.017  0.7590 -1.2758 -0.5936
16237TIP3    H270203   5.380   1.903  14.152 -0.5286  1.6887 -0.4586
16238TIP3   OH270204   0.928   2.991  14.666  0.6828 -0.6313 -0.3681
16238TIP3    H170205   0.950   3.084  14.661  0.2651 -0.5588 -0.8285
16238TIP3    H270206   0.947   2.967  14.757  0.0259  0.0960 -0.0350
16239TIP3   OH270207   4.000   4.531  15.357  0.6799  0.2084 -0.3941
16239TIP3    H170208   3.980   4.460  15.418 -0.1063  0.5926 -0.1966
16239TIP3    H270209   4.096   4.531  15.352  0.8023  0.5484  1.3142
16240TIP3   OH270210   4.430   2.571   1.166 -0.0710  0.3115  0.0556
16240TIP3    H170211   4.341   2.592   1.138  0.5357 -0.5732 -2.9160
16240TIP3    H270212   4.472   2.537   1.087  1.6175 -3.5667  2.3400
16241TIP3   OH270213   6.492   4.678  11.446 -0.0142  0.3968  0.5720
16241TIP3    H170214   6.454   4.591  11.460  1.1736 -0.3687 -0.6117
16241TIP3    H270215   6.459   4.705  11.361 -0.5607  1.2253  1.0414
16242TIP3   OH270216   1.809   0.216  12.586  0.2965  0.1146  0.3073
16242TIP3    H170217   1.799   0.251  12.675  0.6420 -0.5427  0.6132
16242TIP3    H270218   1.741   0.149  12.578  1.0859 -0.7437  0.5557
16243TIP3   OH270219   2.090   6.685   4.681 -0.3557 -0.0129 -0.6584
16243TIP3    H170220   2.006   6.653   4.649 -0.4096 -1.6429  0.9451
16243TIP3    H270221   2.139   6.705   4.602 -2.1134  0.6558 -1.6395
16244TIP3   OH270222   1.628   1.717   2.449 -0.2694  0.4637 -0.4170
16244TIP3    H170223   1.692   1.680   2.388 -2.5964 -1.1008 -2.1224
16244TIP3    H270224   1.574   1.775   2.394 -0.7451  1.2008  0.7958
16245TIP3   OH270225   6.430   6.726  13.384 -0.2285 -0.6962  0.1535
16245TIP3    H170226   6.359   6.754  13.441 -0.4350 -0.9401  0.0154
16245TIP3    H270227   6.463   6.646  13.425 -0.9000 -1.3195 -0.4992
16246TIP3   OH270228   1.340   1.279  12.973  0.5951 -0.7846 -1.1379
16246TIP3    H170229   1.356   1.184  12.969 -0.7081 -1.0677 -0.2319
16246TIP3    H270230   1.245   1.287  12.974  0.6565  0.4254  0.8667
16247TIP3   OH270231   2.841   3.210   5.808  0.1570 -0.3755  0.0727
16247TIP3    H170232   2.871   3.136   5.756  0.0112 -0.8859  0.6949
16247TIP3    H270233   2.915   3.270   5.810  0.9491 -1.3477  1.1029
16248TIP3   OH270234   3.834   3.030   5.382  0.4124  0.2104 -0.6548
16248TIP3    H170235   3.808   3.046   5.291 -0.3563 -0.0629 -0.4879
16248TIP3    H270236   3.781   3.092   5.432  0.8563  0.3786 -0.3935
16249TIP3   OH270237   0.957   3.016  16.462  0.1276  0.0457  0.2480
16249TIP3    H170238   0.924   2.996  16.550  2.5405 -2.1755  0.7434
16249TIP3    H270239   1.026   3.081  16.477 -0.1022  0.3765 -0.1262
16250TIP3   OH270240   3.929   5.342  11.128  0.4559 -0.0957 -0.3135
16250TIP3    H170241   3.942   5.291  11.048 -2.3903  0.2466 -1.1193
16250TIP3    H270242   3.875   5.416  11.100 -0.6967 -0.0101  1.9229
16251TIP3   OH270243   2.222   1.296   4.121  0.8287  0.1346 -0.4827
16251TIP3    H170244   2.277   1.218   4.116  0.2696 -0.2977  0.0407
16251TIP3    H270245   2.251   1.341   4.200 -0.6947 -0.9743  0.7498
16252TIP3   OH270246   2.744   3.311   4.053 -0.2919  0.6635  0.9789
16252TIP3    H170247   2.774   3.391   4.009 -2.5722  0.4305 -1.2087
16252TIP3    H270248   2.762   3.327   4.146 -0.0067  3.3995  0.5396
16253TIP3   OH270249   2.716   1.133  17.196  0.2345 -0.7308  0.4515
16253TIP3    H170250   2.715   1.037  17.193 -1.4901 -0.7248 -0.1015
16253TIP3    H270251   2.800   1.155  17.236  1.2358 -2.4443 -0.5868
16254TIP3   OH270252   3.059   0.716  13.699 -0.0014 -0.1489 -0.3510
16254TIP3    H170253   3.071   0.751  13.611 -0.3630  0.1685 -0.2775
16254TIP3    H270254   2.987   0.654  13.690  0.7986 -1.0864 -0.5341
16255TIP3   OH270255   1.530   1.630   3.554  0.1965 -0.3147 -0.1442
16255TIP3    H170256   1.470   1.608   3.483 -0.3557 -0.2328  0.2942
16255TIP3    H270257   1.617   1.628   3.513 -0.2439  1.5532 -1.2844
16256TIP3   OH270258   5.798   5.796  14.093  0.3885  0.0068 -0.1151
16256TIP3    H170259   5.775   5.790  14.185  0.2924 -1.6610 -0.2112
16256TIP3    H270260   5.824   5.887  14.080  1.6747 -0.0290  1.8585
16257TIP3   OH270261   0.258   4.736  15.702 -0.1354 -0.2261 -0.2177
16257TIP3    H170262   0.227   4.760  15.614 -0.1777 -3.0557 -1.0952
16257TIP3    H270263   0.334   4.792  15.717 -0.2762  0.4969 -1.9518
16258TIP3   OH270264   3.010   1.271  16.614 -0.3729  0.4708  0.1685
16258TIP3    H170265   3.028   1.312  16.530 -1.3725  2.6200  0.9336
16258TIP3    H270266   3.037   1.335  16.680 -2.8858  0.4158  1.4137
16259TIP3   OH270267   2.237   3.091   4.187  0.1197  0.2296  0.2830
16259TIP3    H170268   2.243   3.067   4.279 -1.1010  0.7144  0.5069
16259TIP3    H270269   2.210   3.011   4.142  2.3726 -0.4889  0.0471
16260TIP3   OH270270   4.390   3.330   5.966  0.1216 -0.4702  0.6542
16260TIP3    H170271   4.360   3.406   6.016 -0.6181  1.3638 -2.2785
16260TIP3    H270272   4.409   3.366   5.879  1.7713 -3.3314 -0.2746
16261TIP3   OH270273   1.970   0.946  15.884  0.3341  0.3257 -0.3882
16261TIP3    H170274   2.031   0.872  15.890 -0.2327 -0.1085  0.0822
16261TIP3    H270275   2.020   1.014  15.839  0.8527 -0.3508 -0.8529
16262TIP3   OH270276   5.418   5.140   3.003 -0.2959  0.3335 -0.2512
16262TIP3    H170277   5.414   5.143   3.098 -0.5033 -0.5786 -0.2226
16262TIP3    H270278   5.494   5.084   2.984 -1.7490 -1.5987 -0.5794
16263TIP3   OH270279   4.011   3.681   3.644  0.3844  0.1366 -0.4552
16263TIP3    H170280   3.922   3.716   3.633 -0.3147 -1.0899  0.9421
16263TIP3    H270281   4.018   3.612   3.578  0.0624 -0.1686 -0.1767
16264TIP3   OH270282   5.637   2.845  11.752 -0.3768  0.3116  0.1514
16264TIP3    H170283   5.610   2.775  11.693 -2.5929  0.9255  0.3674
16264TIP3    H270284   5.654   2.801  11.836  1.9281 -0.4335 -0.6318
16265TIP3   OH270285   3.991   1.153   5.074 -0.1756 -0.1248  0.0061
16265TIP3    H170286   4.067   1.105   5.039  0.6149  0.7381  0.5146
16265TIP3    H270287   3.919   1.126   5.017  0.2863 -1.7175  0.1059
16266TIP3   OH270288   0.991   0.651  13.338 -0.2468  0.4350 -0.2537
16266TIP3    H170289   0.982   0.612  13.425 -1.1394 -0.3005 -0.6625
16266TIP3    H270290   0.917   0.710  13.330  0.5601  1.5017 -0.0229
16267TIP3   OH270291   6.634   0.352  14.120 -0.3902  0.0733  0.0484
16267TIP3    H170292   6.576   0.278  14.133 -0.2181  0.0298  0.5706
16267TIP3    H270293   6.626   0.372  14.026  0.6012 -1.4608 -0.3867
16268TIP3   OH270294   0.853   3.068   5.304 -0.2743 -0.1650  0.0142
16268TIP3    H170295   0.775   3.115   5.273 -1.4849 -2.8588 -1.3392
16268TIP3    H270296   0.923   3.096   5.246 -0.6375  0.9389  0.0901
16269TIP3   OH270297   2.740   2.668  11.050  0.1149  0.3345 -0.6211
16269TIP3    H170298   2.782   2.587  11.079 -1.9675 -0.9887 -1.1672
16269TIP3    H270299   2.686   2.695  11.124 -0.1435  0.5763 -0.8959
16270TIP3   OH270300   0.696   5.223   0.225 -0.2291 -0.4563  0.1266
16270TIP3    H170301   0.649   5.152   0.181  0.8489 -0.4297 -1.1332
16270TIP3    H270302   0.786   5.192   0.232 -0.0138  0.2696  0.7455
16271TIP3   OH270303   0.731   2.071   4.519  0.8420  0.4326  0.2091
16271TIP3    H170304   0.662   2.024   4.565 -0.9854  2.1294 -0.6728
16271TIP3    H270305   0.810   2.055   4.571 -0.2562 -1.2897  1.4272
16272TIP3   OH270306   4.109   5.984   1.774 -0.7379 -0.1635 -0.2368
16272TIP3    H170307   4.050   5.910   1.790 -0.7780 -0.1733 -0.4274
16272TIP3    H270308   4.053   6.061   1.782 -0.4824 -0.0873  1.0199
16273TIP3   OH270309   4.190   1.793   4.407 -0.1033 -0.5674 -0.2275
16273TIP3    H170310   4.192   1.780   4.502  0.8246  2.4597  0.2893
16273TIP3    H270311   4.261   1.855   4.390 -0.9139 -0.2203 -2.7685
16274TIP3   OH270312   1.167   1.828  12.320  0.6392  0.0553  0.5201
16274TIP3    H170313   1.107   1.896  12.289  0.0294 -0.8237 -0.2977
16274TIP3    H270314   1.251   1.849  12.279  0.5889  0.6145  0.6989
16275TIP3   OH270315   1.517   0.366   5.332 -0.3644 -0.7980 -0.2427
16275TIP3    H170316   1.578   0.400   5.397  1.3398 -1.1295 -1.6055
16275TIP3    H270317   1.447   0.326   5.384  0.2975  0.0407  1.3662
16276TIP3   OH270318   2.189   2.796   0.526 -0.3061  0.1182  0.4774
16276TIP3    H170319   2.272   2.828   0.492 -0.8188  1.4329  0.3816
16276TIP3    H270320   2.124   2.823   0.460 -0.8164 -0.8489  0.5652
16277TIP3   OH270321   6.297   3.300  17.096  0.0294  0.4427 -0.2246
16277TIP3    H170322   6.360   3.300  17.168  1.2467  1.5318 -1.2219
16277TIP3    H270323   6.277   3.393  17.083 -0.6676  0.2099 -0.8675
16278TIP3   OH270324   0.941   0.877  13.675 -0.6479  0.2796 -0.0287
16278TIP3    H170325   1.004   0.889  13.603  0.1731  0.2393  0.6602
16278TIP3    H270326   0.996   0.862  13.752 -1.5228 -0.1731  0.5237
16279TIP3   OH270327   6.074   4.366  12.928  0.3748  0.1587  0.0816
16279TIP3    H170328   6.147   4.427  12.914  0.3200 -0.1034 -1.5381
16279TIP3    H270329   6.117   4.283  12.951  0.5854  0.1203 -0.4245
16280TIP3   OH270330   5.245   1.626  15.547  0.2757 -0.4582  0.0703
16280TIP3    H170331   5.236   1.531  15.537 -0.3003 -0.6090  1.6743
16280TIP3    H270332   5.309   1.651  15.481 -1.3032 -1.5797 -2.0377
16281TIP3   OH270333   3.384   2.294   2.484 -0.3090  0.0212  0.0121
16281TIP3    H170334   3.393   2.203   2.512  0.4914  0.1337  0.1339
16281TIP3    H270335   3.427   2.297   2.398  0.2724  0.4305  0.3128
16282TIP3   OH270336   6.303   2.025  15.578  0.0277 -0.8488 -0.1669
16282TIP3    H170337   6.333   2.114  15.561 -1.2776 -0.1042  1.1850
16282TIP3    H270338   6.302   1.984  15.491 -0.7354  0.9115 -1.0516
16283TIP3   OH270339   0.911   4.593   5.040 -0.3021 -0.3634 -0.1492
16283TIP3    H170340   0.955   4.676   5.060  1.0149 -1.2995  1.0350
16283TIP3    H270341   0.884   4.601   4.948 -1.3413  1.8469  0.2941
16284TIP3   OH270342   2.797   5.456  15.069 -0.2624 -0.0028 -0.6008
16284TIP3    H170343   2.791   5.422  14.979  1.0164 -3.4807  0.4553
16284TIP3    H270344   2.747   5.394  15.122 -0.8663  1.8932  1.1701
16285TIP3   OH270345   5.702   6.274   4.262 -0.4036  0.2191  0.0952
16285TIP3    H170346   5.639   6.210   4.295  1.0749 -0.8156  1.0664
16285TIP3    H270347   5.756   6.225   4.200 -1.6058  1.5413 -2.1219
16286TIP3   OH270348   2.383   6.076   4.627  0.4850 -0.6636 -0.2260
16286TIP3    H170349   2.406   6.129   4.703 -0.3122 -0.7147  0.0546
16286TIP3    H270350   2.300   6.035   4.650  0.3467 -0.8581 -1.0347
16287TIP3   OH270351   3.830   5.980  17.019 -0.3581  0.0318 -0.2374
16287TIP3    H170352   3.874   5.896  17.034  0.2781  0.5273  0.7612
16287TIP3    H270353   3.737   5.961  17.035 -0.1698 -0.3879  0.4071
16288TIP3   OH270354   1.289   3.068  14.829  0.4070 -0.1766 -0.0659
16288TIP3    H170355   1.224   3.093  14.894 -0.8731 -1.6189 -0.7481
16288TIP3    H270356   1.303   3.148  14.778 -0.4168  0.3041  0.4369
16289TIP3   OH270357   2.398   0.085  15.490 -0.1499 -0.1091 -0.3543
16289TIP3    H170358   2.322   0.101  15.547 -0.5036 -1.7067 -0.3466
16289TIP3    H270359   2.470   0.070  15.551 -0.3966 -1.1876 -0.3055
16290TIP3   OH270360   5.623   4.029   0.882 -0.0123 -0.5512  0.1109
16290TIP3    H170361   5.614   3.934   0.893 -0.8687 -0.5550 -0.4851
16290TIP3    H270362   5.713   4.048   0.906  0.1924 -1.5327  0.1526
16291TIP3   OH270363   2.086   4.643  14.700  0.2356  0.3079  0.4626
16291TIP3    H170364   2.128   4.560  14.678 -0.9821 -0.1440 -0.2661
16291TIP3    H270365   2.126   4.706  14.640  1.3880  0.3277  1.2291
16292TIP3   OH270366   3.370   0.318   1.203  0.0507  0.0149  0.7887
16292TIP3    H170367   3.294   0.260   1.197 -0.6185  0.8590  1.0052
16292TIP3    H270368   3.363   0.359   1.289 -0.9173  2.3461 -0.3226
16293TIP3   OH270369   4.767   3.977   1.183  0.0673  0.2364 -0.1669
16293TIP3    H170370   4.780   4.070   1.198 -0.5402  0.3050 -0.0473
16293TIP3    H270371   4.741   3.970   1.091  0.4564  0.1490 -0.2721
16294TIP3   OH270372   4.799   3.786  14.008 -0.1479  0.0057  0.2593
16294TIP3    H170373   4.808   3.868  14.055 -3.1744  0.4681  0.1968
16294TIP3    H270374   4.741   3.733  14.063 -0.9108 -0.7845 -1.2384
16295TIP3   OH270375   3.141   2.506  11.465 -0.8811  0.5576 -0.3842
16295TIP3    H170376   3.060   2.503  11.517 -0.4161  0.8377  0.3673
16295TIP3    H270377   3.152   2.417  11.433 -3.0339  1.0861 -2.9397
16296TIP3   OH270378   4.855   6.028  16.939 -0.3755 -0.1667  0.0689
16296TIP3    H170379   4.814   5.944  16.956 -0.6786 -0.2651 -1.0761
16296TIP3    H270380   4.895   6.019  16.852 -1.2142  1.1436 -0.4931
16297TIP3   OH270381   3.280   5.600  12.270 -0.0432  0.0217 -0.3580
16297TIP3    H170382   3.252   5.514  12.301 -1.4346  0.1753 -1.0916
16297TIP3    H270383   3.200   5.651  12.265  0.4783  0.7597 -1.7754
16298TIP3   OH270384   0.222   1.949   2.809 -0.3729  0.1482 -0.4738
16298TIP3    H170385   0.232   1.881   2.876  0.5222 -1.0178 -1.7463
16298TIP3    H270386   0.136   1.986   2.825 -0.2825 -0.2604  1.1688
16299TIP3   OH270387   3.800   3.092   0.155 -0.1314 -0.0834 -0.5058
16299TIP3    H170388   3.735   3.133   0.212  0.1077 -1.5384  0.8756
16299TIP3    H270389   3.781   2.999   0.160  0.3655 -0.3142 -2.2689
16300TIP3   OH270390   5.600   2.537   2.367  0.7140  0.1165  0.1126
16300TIP3    H170391   5.665   2.547   2.297  0.5573 -0.4262 -0.1140
16300TIP3    H270392   5.651   2.508   2.443  0.8991  0.8043  0.2568
16301TIP3   OH270393   3.236   3.505  11.815  0.0670  0.0294  0.9145
16301TIP3    H170394   3.222   3.437  11.881  1.1609  0.8135  2.0076
16301TIP3    H270395   3.234   3.587  11.864  0.7095  0.6532 -0.0551
16302TIP3   OH270396   6.810   4.096   6.645  0.2741  0.0984  0.1314
16302TIP3    H170397   6.730   4.141   6.618 -0.1138 -1.0269 -0.6968
16302TIP3    H270398   6.821   4.027   6.580  1.4491 -0.3082  0.7375
16303TIP3   OH270399   3.260   4.285   4.576  0.1925 -0.0886  0.7477
16303TIP3    H170400   3.244   4.377   4.555 -1.7159  0.0499  2.5888
16303TIP3    H270401   3.228   4.237   4.499  1.3019  0.7386 -0.2741
16304TIP3   OH270402   2.108   4.727   3.080  0.1121  0.2068 -0.0942
16304TIP3    H170403   2.087   4.787   3.151  0.1159  2.1747 -1.6546
16304TIP3    H270404   2.032   4.732   3.022  0.7503 -0.1581 -0.9847
16305TIP3   OH270405   2.016   5.898  12.276 -0.3719 -0.0372  0.4674
16305TIP3    H170406   2.108   5.906  12.302 -0.4964  1.7047  0.4980
16305TIP3    H270407   2.016   5.912  12.182 -0.7636  2.0483  0.7163
16306TIP3   OH270408   2.974   0.310  17.135 -0.2393 -0.4684  0.0466
16306TIP3    H170409   2.896   0.353  17.099 -0.7070  0.0550  1.6305
16306TIP3    H270410   2.942   0.227  17.169  0.2037 -0.9525 -0.6689
16307TIP3   OH270411   5.588   5.689   4.058 -0.2974 -0.0348  0.0102
16307TIP3    H170412   5.563   5.627   4.127  0.6678 -0.5237 -0.0550
16307TIP3    H270413   5.565   5.644   3.976  0.2665 -0.2513 -0.0331
16308TIP3   OH270414   0.861   4.775  16.992  0.1681 -0.1971 -0.0235
16308TIP3    H170415   0.833   4.775  17.084 -2.1601  0.3111 -0.6761
16308TIP3    H270416   0.883   4.684  16.974  0.2996 -0.3667  0.9164
16309TIP3   OH270417   0.151   1.429  11.304  0.0867  0.1985  0.0498
16309TIP3    H170418   0.186   1.470  11.225 -0.6645 -0.4292 -0.6211
16309TIP3    H270419   0.229   1.403  11.354  0.5927 -0.6771 -1.1501
16310TIP3   OH270420   0.745   6.698  12.795 -0.2659 -0.3960 -0.0962
16310TIP3    H170421   0.736   6.759  12.869 -1.0599 -0.4105 -0.1701
16310TIP3    H270422   0.656   6.668  12.778  0.0176 -0.9857 -0.5673
16311TIP3   OH270423   6.001   5.447   4.887  0.1049 -0.2265 -0.2705
16311TIP3    H170424   5.937   5.448   4.958  0.7766 -0.3563  0.3486
16311TIP3    H270425   5.960   5.397   4.818  0.3692 -2.2027  0.9197
16312TIP3   OH270426   4.402   1.445  15.844 -0.3848 -0.0469 -0.3749
16312TIP3    H170427   4.362   1.523  15.805 -1.3807 -0.6150 -0.5214
16312TIP3    H270428   4.378   1.450  15.937  1.0646  0.7371 -0.0178
16313TIP3   OH270429   3.929   4.596  14.945 -0.0717 -0.5578 -0.5975
16313TIP3    H170430   3.906   4.514  14.988  2.1922 -0.4632  0.9596
16313TIP3    H270431   3.948   4.657  15.016 -0.2614  0.9069 -1.7332
16314TIP3   OH270432   6.266   0.204   0.986 -0.2693 -0.1254 -0.6019
16314TIP3    H170433   6.185   0.183   0.939 -1.8533  1.0848  1.4607
16314TIP3    H270434   6.333   0.153   0.940 -2.5933 -3.3572 -0.7290
16315TIP3   OH270435   2.988   2.552  15.813  0.2011  0.4226 -0.2455
16315TIP3    H170436   2.953   2.463  15.811 -1.9008  1.2024 -2.3848
16315TIP3    H270437   2.946   2.593  15.888  0.8176 -0.2019  0.4655
16316TIP3   OH270438   1.298   4.401   5.481  0.0415 -0.3755  0.1645
16316TIP3    H170439   1.266   4.368   5.396 -2.3150 -0.8074  1.1630
16316TIP3    H270440   1.348   4.479   5.459 -2.8574  1.1821 -1.4789
16317TIP3   OH270441   0.188   0.866  11.932  0.0435 -0.0911  0.3593
16317TIP3    H170442   0.279   0.839  11.924  0.1243  0.4245 -0.4987
16317TIP3    H270443   0.187   0.958  11.907 -0.5785  0.1628  1.2393
16318TIP3   OH270444   3.877   3.737  14.509  0.0558  0.1379 -0.2342
16318TIP3    H170445   3.947   3.701  14.455 -0.7245 -1.8033 -0.0261
16318TIP3    H270446   3.905   3.723  14.599 -1.6035 -3.0476 -0.0773
16319TIP3   OH270447   3.318   3.716  11.986  0.3260 -0.1174  0.1134
16319TIP3    H170448   3.382   3.729  12.057  1.4870 -2.5818 -0.3845
16319TIP3    H270449   3.348   3.775  11.917  0.4285  0.7569  0.8737
16320TIP3   OH270450   6.578   0.746   5.492  0.2767  0.5502 -0.5825
16320TIP3    H170451   6.492   0.787   5.492 -0.0469  0.0264  2.0411
16320TIP3    H270452   6.562   0.656   5.465  0.3265  0.9071 -1.8943
16321TIP3   OH270453   1.945   5.762  13.344 -0.0625 -0.3497  0.1488
16321TIP3    H170454   2.000   5.700  13.392  0.4448  0.9256  1.2658
16321TIP3    H270455   2.005   5.809  13.288 -0.0567  0.7076  1.0101
16322TIP3   OH270456   0.720   3.608  16.700 -0.2359 -0.1233  0.0510
16322TIP3    H170457   0.813   3.607  16.677 -0.0171  1.3516  0.7700
16322TIP3    H270458   0.703   3.520  16.734  0.7177 -0.6251 -0.7203
16323TIP3   OH270459   6.133   5.915  17.117  0.6415 -0.0572  0.2436
16323TIP3    H170460   6.127   6.010  17.128 -0.8023 -0.2241  1.2583
16323TIP3    H270461   6.099   5.880  17.200  1.8651 -1.4572  0.1809
16324TIP3   OH270462   3.850   5.835  15.953  0.5824  0.0189 -0.0340
16324TIP3    H170463   3.892   5.897  16.012 -0.9284  1.7266 -0.6656
16324TIP3    H270464   3.756   5.854  15.960  0.0798 -2.0200 -0.4687
16325TIP3   OH270465   4.246   2.452  16.732  0.4499  0.4730  0.3002
16325TIP3    H170466   4.153   2.473  16.723  0.5991  0.6954 -0.8829
16325TIP3    H270467   4.251   2.397  16.809 -0.6936  0.2923  0.2591
16326TIP3   OH270468   3.458   0.579  12.795 -0.1995 -0.1485  0.3632
16326TIP3    H170469   3.395   0.531  12.742 -1.0177 -0.5049  1.6088
16326TIP3    H270470   3.543   0.557  12.757 -0.7966  0.3094 -1.3114
16327TIP3   OH270471   5.261   6.615  14.313 -0.4716  0.2253  0.4596
16327TIP3    H170472   5.289   6.638  14.224  1.9416 -3.4424  0.0663
16327TIP3    H270473   5.314   6.672  14.369 -2.1121  2.6765 -0.3278
16328TIP3   OH270474   4.524   5.401  17.194  0.6781  0.4086  0.0989
16328TIP3    H170475   4.531   5.431  17.285 -0.9312 -1.3991  0.9117
16328TIP3    H270476   4.448   5.447  17.160 -0.5244 -1.0403  0.6827
16329TIP3   OH270477   4.241   4.155  16.656 -0.5120 -0.4696  0.2011
16329TIP3    H170478   4.247   4.250  16.661 -1.3779 -0.4590  1.2337
16329TIP3    H270479   4.318   4.124  16.703 -1.6413 -0.2761  2.2498
16330TIP3   OH270480   3.017   3.471   1.439  0.8685 -0.0002 -0.6675
16330TIP3    H170481   3.024   3.409   1.512 -0.7242  1.5644  0.9335
16330TIP3    H270482   2.925   3.495   1.437  1.4606  2.5408 -0.9739
16331TIP3   OH270483   2.273   2.843  16.920  0.5516  0.4639 -0.0561
16331TIP3    H170484   2.319   2.768  16.884  0.0684  0.2863 -0.3130
16331TIP3    H270485   2.213   2.806  16.984  0.6490  0.6796  0.1634
16332TIP3   OH270486   1.289   1.402   4.040 -0.0080  0.4153 -0.0631
16332TIP3    H170487   1.272   1.410   3.947 -0.8914  0.5803  0.1062
16332TIP3    H270488   1.360   1.338   4.046  0.6543  1.0479 -0.8848
16333TIP3   OH270489   1.656   1.670  12.742 -0.8330  0.2202  0.1612
16333TIP3    H170490   1.727   1.623  12.785  0.8948  2.0237 -0.5177
16333TIP3    H270491   1.664   1.646  12.650 -0.7618  0.8041  0.0090
16334TIP3   OH270492   0.200   2.882  14.275  0.2159 -0.1781 -0.1710
16334TIP3    H170493   0.127   2.942  14.262  0.0264 -0.3261  0.1806
16334TIP3    H270494   0.279   2.936  14.263  0.0993  0.8182  2.7464
16335TIP3   OH270495   2.472   6.166  15.037  0.3728  0.4258  0.0026
16335TIP3    H170496   2.448   6.141  15.126 -0.3643  0.0720 -0.2843
16335TIP3    H270497   2.423   6.247  15.021 -1.4024 -0.7290 -0.8769
16336TIP3   OH270498   5.272   1.951   6.210 -0.1395 -0.6247 -0.0285
16336TIP3    H170499   5.324   1.880   6.172  0.4400 -0.8594  1.1658
16336TIP3    H270500   5.333   2.024   6.218  0.0546 -0.9301  1.4622
16337TIP3   OH270501   4.767   5.791  11.405  0.2620  0.1946 -1.2279
16337TIP3    H170502   4.722   5.839  11.474  1.8004  2.2597 -1.5536
16337TIP3    H270503   4.705   5.791  11.332  0.1468  1.6401 -1.1735
16338TIP3   OH270504   4.520   0.419   1.472 -0.5638  0.4080  0.3586
16338TIP3    H170505   4.534   0.513   1.482 -0.4915  0.1805  3.0213
16338TIP3    H270506   4.426   0.410   1.455 -0.8130  0.9195  1.3970
16339TIP3   OH270507   4.500   6.291  10.810  0.5674  0.0576  0.5075
16339TIP3    H170508   4.413   6.323  10.833  1.0525  1.1618  0.8987
16339TIP3    H270509   4.485   6.210  10.763 -0.6687  0.1940  0.6489
16340TIP3   OH270510   2.039   1.525  13.988 -0.2689  0.1947  0.2309
16340TIP3    H170511   1.954   1.521  14.031  0.6843  1.4871  2.4363
16340TIP3    H270512   2.100   1.550  14.058  1.1018  4.6590 -2.1835
16341TIP3   OH270513   0.775   3.156  15.748 -0.4218  0.0334 -0.2994
16341TIP3    H170514   0.844   3.164  15.813  0.8245  1.4574 -1.7193
16341TIP3    H270515   0.819   3.123  15.670 -0.7459  3.0613 -1.9448
16342TIP3   OH270516   2.647   3.235  13.596  0.1533  0.2719  0.3504
16342TIP3    H170517   2.670   3.239  13.688  2.6503  0.5044 -0.1956
16342TIP3    H270518   2.627   3.325  13.571  0.7253  0.4173  0.4038
16343TIP3   OH270519   1.779   3.786  13.272  0.0100  0.1793 -0.3883
16343TIP3    H170520   1.764   3.694  13.292  0.6307  0.4768  1.7452
16343TIP3    H270521   1.854   3.786  13.213 -0.0814 -0.6789 -0.5179
16344TIP3   OH270522   3.912   6.314   6.043 -0.4240 -0.5782 -0.3429
16344TIP3    H170523   3.839   6.254   6.056 -1.3444  0.5022 -0.3596
16344TIP3    H270524   3.952   6.324   6.129 -1.8054  0.6801  0.1865
16345TIP3   OH270525   1.175   0.332   3.444  0.4393 -0.5250 -0.7215
16345TIP3    H170526   1.104   0.379   3.402  0.1276  0.3706  0.7296
16345TIP3    H270527   1.146   0.320   3.534  1.1762 -2.1659 -0.6763
16346TIP3   OH270528   4.329   6.565   1.819  0.4093  0.1803 -0.3764
16346TIP3    H170529   4.326   6.529   1.730 -0.4172  0.7951 -0.6165
16346TIP3    H270530   4.251   6.621   1.824 -0.2639 -0.8333  1.1617
16347TIP3   OH270531   4.233   5.374   3.724 -0.5110 -0.0114  0.0691
16347TIP3    H170532   4.297   5.307   3.750  0.0221  0.1246 -0.8443
16347TIP3    H270533   4.285   5.453   3.712 -0.6955 -0.1106 -1.5615
16348TIP3   OH270534   1.710   1.246   0.523 -0.5020 -0.0274 -0.1660
16348TIP3    H170535   1.763   1.192   0.465 -1.6408 -1.3218 -0.0649
16348TIP3    H270536   1.638   1.277   0.468 -0.6801  0.1292  0.1469
16349TIP3   OH270537   6.664   0.826  12.375  0.6469  0.0726 -0.1587
16349TIP3    H170538   6.599   0.885  12.413  0.2797 -0.9133  0.7720
16349TIP3    H270539   6.672   0.855  12.284 -1.6686 -0.2611 -0.5206
16350TIP3   OH270540   3.680   1.352   4.035  0.4062  0.3942 -0.0357
16350TIP3    H170541   3.598   1.317   3.999  0.3900  0.7095 -0.3162
16350TIP3    H270542   3.669   1.447   4.028  0.3955  0.4621  0.8266
16351TIP3   OH270543   2.117   2.808  14.882 -0.5424 -0.0138 -0.1147
16351TIP3    H170544   2.035   2.763  14.860  0.4055 -1.1790 -1.4102
16351TIP3    H270545   2.112   2.890  14.834 -1.0232  0.0100 -0.0350
16352TIP3   OH270546   5.730   3.864  13.247  0.5258  0.2120  0.5062
16352TIP3    H170547   5.777   3.781  13.237  0.8808  0.3107  1.2724
16352TIP3    H270548   5.754   3.915  13.170 -1.0563 -1.0182 -0.8894
16353TIP3   OH270549   2.080   1.683   1.633 -0.1330 -0.2011 -0.6181
16353TIP3    H170550   2.159   1.643   1.598  0.1184  0.5690 -0.9419
16353TIP3    H270551   2.047   1.738   1.562  0.6647  1.7859  0.4675
16354TIP3   OH270552   6.557   3.166   1.499  0.5660  0.5929 -0.2852
16354TIP3    H170553   6.618   3.239   1.511  0.7924  0.2923  0.4305
16354TIP3    H270554   6.587   3.123   1.418  1.3477  0.4189  0.0860
16355TIP3   OH270555   6.468   0.505  12.480  0.6800 -0.1373  0.0442
16355TIP3    H170556   6.390   0.523  12.428  1.1996  1.6689 -0.1928
16355TIP3    H270557   6.517   0.441  12.430 -0.0742 -0.3785 -0.3947
16356TIP3   OH270558   4.369   3.539  12.680 -0.1104  0.1586 -0.0739
16356TIP3    H170559   4.404   3.577  12.599 -1.4217  1.8397  0.0763
16356TIP3    H270560   4.363   3.445  12.662  2.1628  0.1176 -0.9170
16357TIP3   OH270561   6.293   1.548   4.828  0.3642 -0.2540 -0.0057
16357TIP3    H170562   6.372   1.496   4.842  1.6482  2.0847  2.4691
16357TIP3    H270563   6.325   1.638   4.820 -1.9292  0.5357 -0.9913
16358TIP3   OH270564   5.777   5.437  14.434  0.0305 -0.4101  0.3241
16358TIP3    H170565   5.698   5.476  14.398  0.2594 -0.8138 -0.6387
16358TIP3    H270566   5.848   5.475  14.382  0.5848  0.7126  1.8095
16359TIP3   OH270567   2.245   3.674  11.308  0.6650  0.2506  0.0067
16359TIP3    H170568   2.192   3.608  11.353  2.0676 -0.3674  0.8327
16359TIP3    H270569   2.319   3.625  11.273  0.7240  1.0925 -1.0778
16360TIP3   OH270570   5.736   1.535   3.736 -0.7463  0.2343  0.4580
16360TIP3    H170571   5.781   1.579   3.664  0.2494 -1.2770  0.1073
16360TIP3    H270572   5.804   1.483   3.778 -1.2175  1.3400  2.7578
16361TIP3   OH270573   0.976   5.391  14.644 -0.7585  0.6244 -1.0112
16361TIP3    H170574   1.023   5.322  14.692 -1.6202  0.3424 -0.5599
16361TIP3    H270575   0.885   5.362  14.643 -0.7493  0.5238 -2.9891
16362TIP3   OH270576   5.672   1.047   3.795 -0.4504  0.1369 -0.1003
16362TIP3    H170577   5.760   1.084   3.799  0.8855 -2.7346 -0.7263
16362TIP3    H270578   5.661   1.001   3.878 -0.6569 -0.9774 -0.7359
16363TIP3   OH270579   5.417   6.712   6.552  0.3274  1.1421  0.1175
16363TIP3    H170580   5.451   6.662   6.626  1.5440  1.2872 -0.3109
16363TIP3    H270581   5.494   6.756   6.515 -0.4084  1.8456 -0.6451
16364TIP3   OH270582   5.907   0.896   0.564 -0.4009  0.1535 -0.3767
16364TIP3    H170583   5.961   0.902   0.484 -0.4926 -0.8615 -0.5257
16364TIP3    H270584   5.971   0.894   0.635 -0.3252  1.4359 -0.3729
16365TIP3   OH270585   5.090   2.011  11.988  0.0096 -0.0040  0.4569
16365TIP3    H170586   5.111   2.094  11.946 -0.2993 -0.7634 -1.2898
16365TIP3    H270587   4.995   2.003  11.980  0.2992 -1.8977 -2.2434
16366TIP3   OH270588   1.990   2.367  16.670  0.2526 -0.1401 -0.3237
16366TIP3    H170589   2.019   2.339  16.757 -0.4393  1.3701  0.4323
16366TIP3    H270590   2.051   2.436  16.646  0.7657 -0.9045 -1.3056
16367TIP3   OH270591   3.294   5.985  14.977 -0.1270  0.2428 -0.1483
16367TIP3    H170592   3.289   5.924  14.904 -2.9055  0.3720 -0.1747
16367TIP3    H270593   3.205   6.017  14.988  0.3883  1.0267  2.6451
16368TIP3   OH270594   3.730   1.358   3.547  0.2095  0.1911 -0.5597
16368TIP3    H170595   3.693   1.300   3.614 -0.1886  0.2384 -0.7347
16368TIP3    H270596   3.694   1.444   3.568  0.3327  0.2654 -0.6522
16369TIP3   OH270597   5.751   2.077  10.910  0.4636  0.2457  0.4458
16369TIP3    H170598   5.834   2.048  10.873  0.9449  1.4552  0.5108
16369TIP3    H270599   5.706   2.120  10.837 -0.2297 -0.6293  0.3455
16370TIP3   OH270600   6.547   2.141  16.902 -0.0427  0.2050 -0.0385
16370TIP3    H170601   6.482   2.103  16.960  2.8302 -2.3955  1.7458
16370TIP3    H270602   6.530   2.101  16.817 -0.0683 -1.4556  0.7069
16371TIP3   OH270603   5.467   2.722   2.913  0.6397 -0.1426  0.2066
16371TIP3    H170604   5.534   2.669   2.957  1.0247  0.7396  0.7144
16371TIP3    H270605   5.505   2.743   2.828  0.3370 -0.9602 -0.1428
16372TIP3   OH270606   5.318   4.348  16.635  0.2756  0.0242 -0.1528
16372TIP3    H170607   5.412   4.349  16.651  0.3690  1.3391 -0.6920
16372TIP3    H270608   5.307   4.385  16.548 -0.8595  1.7482  0.6747
16373TIP3   OH270609   5.592   3.424   0.360  0.1559  0.5515 -0.4249
16373TIP3    H170610   5.667   3.455   0.410 -1.3115  3.9381 -0.0020
16373TIP3    H270611   5.517   3.438   0.418 -1.1646  0.6154 -2.0627
16374TIP3   OH270612   4.586   0.780   0.374 -0.3366 -0.1902 -0.5637
16374TIP3    H170613   4.541   0.849   0.326  2.1274  1.7727 -0.2650
16374TIP3    H270614   4.670   0.770   0.329  0.2458 -1.4520  0.7103
16375TIP3   OH270615   2.996   1.317   5.728  0.1299 -0.1900 -0.3570
16375TIP3    H170616   3.001   1.361   5.813  1.4619 -0.5098 -0.2448
16375TIP3    H270617   3.060   1.247   5.734 -1.0282 -1.3344 -1.0106
16376TIP3   OH270618   5.148   1.939  14.350  0.2918 -0.2700  0.2485
16376TIP3    H170619   5.242   1.953  14.337  0.1529  1.7851  1.1197
16376TIP3    H270620   5.140   1.917  14.442 -0.0811 -0.2980  0.2071
16377TIP3   OH270621   2.287   5.949  10.554 -0.2862  0.6515 -0.3553
16377TIP3    H170622   2.299   6.043  10.544 -1.1740  0.7666 -0.4447
16377TIP3    H270623   2.337   5.926  10.633 -1.8576  1.5979  0.9814
16378TIP3   OH270624   4.658   1.022   0.783  0.6060 -0.2245 -0.0895
16378TIP3    H170625   4.689   0.932   0.774  1.4122 -0.0894  1.1326
16378TIP3    H270626   4.583   1.028   0.724  0.0132 -1.9393  0.4383
16379TIP3   OH270627   4.061   5.010   6.023  0.3011 -0.6913  0.0999
16379TIP3    H170628   4.066   5.102   6.048  1.5736 -1.3683  2.6819
16379TIP3    H270629   4.138   4.996   5.967  0.7456 -0.4168  0.6337
16380TIP3   OH270630   6.414   2.008  12.639  0.7004  0.3095 -0.7404
16380TIP3    H170631   6.497   1.960  12.639  1.0173  0.8376 -0.1063
16380TIP3    H270632   6.368   1.977  12.717  0.4980  0.3482 -0.8432
16381TIP3   OH270633   4.594   3.023   1.201 -0.1262 -0.3329  1.0096
16381TIP3    H170634   4.540   2.954   1.240 -0.2224 -1.1184 -0.4299
16381TIP3    H270635   4.532   3.091   1.176 -0.0644  0.1657  2.1877
16382TIP3   OH270636   3.499   6.366  17.188 -0.2853 -0.2417 -0.6461
16382TIP3    H170637   3.432   6.362  17.120 -0.6589  0.3209 -0.3159
16382TIP3    H270638   3.581   6.361  17.140 -0.5548 -1.4017 -1.0264
16383TIP3   OH270639   5.693   0.643   4.519 -0.0550 -0.0975 -0.7423
16383TIP3    H170640   5.615   0.611   4.473 -1.3397  0.6675  0.7981
16383TIP3    H270641   5.700   0.734   4.492 -1.4983  0.7008  1.3127
16384TIP3   OH270642   2.126   3.323   2.016 -0.6763  0.2767  0.3959
16384TIP3    H170643   2.160   3.411   2.032 -1.0154  0.3312  0.8536
16384TIP3    H270644   2.169   3.295   1.935 -0.1855  0.6652  0.5128
16385TIP3   OH270645   4.063   1.378   1.826 -0.2891  0.2495 -0.1808
16385TIP3    H170646   4.043   1.428   1.905  1.4423 -1.0857  1.1676
16385TIP3    H270647   3.984   1.325   1.811 -0.6936  0.6228  0.5479
16386TIP3   OH270648   3.540   6.171  13.219 -0.3208  0.1588  0.2640
16386TIP3    H170649   3.584   6.100  13.267  1.5255 -0.2154 -1.8410
16386TIP3    H270650   3.471   6.126  13.170  0.2334 -0.0402 -0.3365
16387TIP3   OH270651   2.526   2.944   5.865  0.0925 -0.1574  0.2726
16387TIP3    H170652   2.465   2.978   5.800  2.3248  2.3036 -0.7174
16387TIP3    H270653   2.541   2.853   5.840 -0.0484  0.3935 -1.9656
16388TIP3   OH270654   5.320   1.285  10.735  0.2360  0.3725  0.4382
16388TIP3    H170655   5.261   1.360  10.736  0.6278  0.6922 -0.1248
16388TIP3    H270656   5.328   1.261  10.643  1.3493  0.6267  0.4491
16389TIP3   OH270657   3.939   3.722  15.281  0.0971 -0.4631  0.3748
16389TIP3    H170658   3.975   3.773  15.353  0.4569 -0.2629  0.0566
16389TIP3    H270659   4.009   3.662  15.256  1.3429  1.8071 -2.0952
16390TIP3   OH270660   3.870   3.616   3.014  0.4179  0.5128 -0.0607
16390TIP3    H170661   3.820   3.597   2.934 -2.0919  0.6963  1.3371
16390TIP3    H270662   3.934   3.546   3.019  2.3553  1.7979 -3.4280
16391TIP3   OH270663   5.477   1.828   3.338  0.6465  0.5950  0.6428
16391TIP3    H170664   5.461   1.911   3.293 -1.9523  0.6254  1.4289
16391TIP3    H270665   5.399   1.775   3.319  2.4643 -1.9425 -0.2909
16392TIP3   OH270666   1.376   0.223   4.749 -0.3674 -0.2892 -0.1413
16392TIP3    H170667   1.449   0.180   4.794  1.2526  1.6727 -0.7406
16392TIP3    H270668   1.394   0.211   4.656 -0.9898 -0.0462 -0.3025
16393TIP3   OH270669   5.301   3.955  11.315  0.0175 -0.1219 -0.1009
16393TIP3    H170670   5.281   4.037  11.270 -0.3506 -0.7253 -1.0645
16393TIP3    H270671   5.390   3.934  11.288  0.1066 -0.0520  0.1343
16394TIP3   OH270672   2.225   3.510  12.204  0.3342  0.1011  0.1052
16394TIP3    H170673   2.169   3.465  12.267  1.1176 -1.2584 -0.1305
16394TIP3    H270674   2.264   3.582  12.253 -1.5677  1.0829  0.2779
16395TIP3   OH270675   2.027   1.067  17.044  0.6609 -0.3423  0.6563
16395TIP3    H170676   2.102   1.086  17.101  0.1952 -1.9998  1.9261
16395TIP3    H270677   1.953   1.110  17.086  0.3279 -1.5126  1.3115
16396TIP3   OH270678   3.115   6.555   0.790 -0.3256 -0.4603  0.4113
16396TIP3    H170679   3.114   6.464   0.820 -0.6928 -0.7930 -0.5594
16396TIP3    H270680   3.033   6.592   0.821 -0.4160 -0.6144  0.3549
16397TIP3   OH270681   5.215   2.469   5.434  0.0150  0.2019  0.1776
16397TIP3    H170682   5.170   2.448   5.516 -1.2970  0.7070 -0.3941
16397TIP3    H270683   5.222   2.385   5.389  0.3051  0.0019  0.5839
16398TIP3   OH270684   6.264   4.277  12.429  0.1611 -0.0632  0.1624
16398TIP3    H170685   6.278   4.340  12.500  1.3708 -2.1293  1.8772
16398TIP3    H270686   6.319   4.202  12.452 -2.7682 -2.6756 -0.6077
16399TIP3   OH270687   2.489   3.942   5.138  0.1817  0.1028  0.0007
16399TIP3    H170688   2.506   4.034   5.119  0.7365  0.1584  0.7421
16399TIP3    H270689   2.527   3.894   5.064 -0.7418  0.4952 -0.7497
16400TIP3   OH270690   4.074   2.927   5.090  0.4899  0.0841 -0.1971
16400TIP3    H170691   4.160   2.921   5.047 -0.0931  0.5871 -1.4944
16400TIP3    H270692   4.012   2.938   5.018 -0.7449 -0.8857  0.6782
16401TIP3   OH270693   0.810   3.926  11.526  1.0493 -0.0350  0.8520
16401TIP3    H170694   0.743   3.977  11.481  0.5938 -1.0851  0.3045
16401TIP3    H270695   0.761   3.857  11.572  1.7780 -1.3480 -0.2542
16402TIP3   OH270696   2.321   5.600   5.739 -0.2120  0.3076  0.5821
16402TIP3    H170697   2.302   5.533   5.805  0.5106  0.0607  0.5475
16402TIP3    H270698   2.254   5.588   5.672 -0.4727  0.0403  0.8864
16403TIP3   OH270699   2.674   2.398  13.052 -0.5351 -0.0767 -0.5111
16403TIP3    H170700   2.602   2.411  12.989  0.4422 -2.2003 -2.1996
16403TIP3    H270701   2.643   2.327  13.108  0.2335 -1.1060 -1.3408
16404TIP3   OH270702   0.673   4.362   3.325 -0.1930  0.0450 -0.3081
16404TIP3    H170703   0.750   4.416   3.343  0.3611  0.0679 -2.4630
16404TIP3    H270704   0.610   4.424   3.286 -0.7492 -0.2696  0.0781
16405TIP3   OH270705   1.268   4.843  14.497 -0.3611 -0.7320  0.4126
16405TIP3    H170706   1.192   4.875  14.448 -1.3007  1.2724  2.9908
16405TIP3    H270707   1.269   4.748  14.480 -0.3620 -0.1660 -3.6373
16406TIP3   OH270708   5.769   0.176   4.710 -0.0623 -0.2248 -0.0416
16406TIP3    H170709   5.713   0.137   4.643 -3.2156  0.3360  2.0193
16406TIP3    H270710   5.806   0.101   4.757 -1.1056 -0.6988  0.0645
16407TIP3   OH270711   6.733   2.112   2.446  0.5632 -0.3358  0.2816
16407TIP3    H170712   6.705   2.198   2.415  1.0507 -0.2599  0.0421
16407TIP3    H270713   6.713   2.052   2.373 -0.6090 -0.5877  0.7879
16408TIP3   OH270714   3.660   1.432  15.955  0.2933  0.5863 -0.4760
16408TIP3    H170715   3.683   1.365  15.890 -0.9519  0.1774 -0.5115
16408TIP3    H270716   3.715   1.507  15.932  0.8713 -0.0223 -1.1491
16409TIP3   OH270717   1.446   5.491   1.190  0.0492 -0.8063 -0.1894
16409TIP3    H170718   1.363   5.463   1.229  0.0957 -2.7642 -1.3219
16409TIP3    H270719   1.423   5.568   1.137 -0.8794 -0.8261  0.1662
16410TIP3   OH270720   3.489   1.541  13.280  0.1582 -0.1441  0.1364
16410TIP3    H170721   3.448   1.531  13.366  1.6685 -1.2314  0.7792
16410TIP3    H270722   3.465   1.629  13.252  2.6592  1.8219  3.3930
16411TIP3   OH270723   5.039   6.041   1.134 -0.1651  0.2727 -0.0402
16411TIP3    H170724   5.119   6.013   1.088 -0.7124 -0.4175 -0.5979
16411TIP3    H270725   5.048   6.135   1.143 -0.5870  0.6435 -2.6982
16412TIP3   OH270726   5.728   4.694  13.264 -0.2381  0.2525 -0.4586
16412TIP3    H170727   5.693   4.782  13.281 -1.9601 -0.5678  0.5361
16412TIP3    H270728   5.760   4.698  13.174 -1.7810  1.4647 -1.0069
16413TIP3   OH270729   3.586   4.587   2.513  0.3755  0.3156  0.0171
16413TIP3    H170730   3.525   4.516   2.531  0.1771  0.7203  1.0130
16413TIP3    H270731   3.593   4.589   2.417 -1.8286  0.8142 -0.1718
16414TIP3   OH270732   4.525   2.405   3.673  0.0179 -0.0405 -0.0286
16414TIP3    H170733   4.454   2.467   3.691  0.2396  0.0183  0.7119
16414TIP3    H270734   4.500   2.362   3.592 -0.3644  0.7024 -0.3141
16415TIP3   OH270735   6.381   0.879  14.853  0.0982 -0.5029  0.1360
16415TIP3    H170736   6.446   0.840  14.794  1.5403 -1.7965  2.4325
16415TIP3    H270737   6.404   0.845  14.939 -3.3290 -0.5678  1.1516
16416TIP3   OH270738   4.160   4.953   2.057 -0.2201 -0.4767  0.3704
16416TIP3    H170739   4.253   4.970   2.043 -0.2971  0.2679  0.7464
16416TIP3    H270740   4.115   5.027   2.016 -0.5763  0.0017  1.5850
16417TIP3   OH270741   5.191   4.782  14.789  0.2663 -0.4445 -0.5617
16417TIP3    H170742   5.250   4.805  14.861 -1.5156  0.1440  0.7714
16417TIP3    H270743   5.204   4.851  14.724  3.2153 -1.9126 -1.7645
16418TIP3   OH270744   5.936   3.748  14.993 -0.1983 -0.2151  0.3843
16418TIP3    H170745   5.951   3.831  14.946 -0.7572  0.4155  1.2937
16418TIP3    H270746   5.895   3.691  14.929 -0.4864  0.4630 -0.0409
16419TIP3   OH270747   5.302   0.123   5.320 -0.1067 -0.3092  0.7358
16419TIP3    H170748   5.260   0.172   5.250 -2.8141 -1.7157  1.2496
16419TIP3    H270749   5.230   0.080   5.366  1.8977 -2.8255  1.7812
16420TIP3   OH270750   0.202   6.298  10.486 -0.3518  0.5146 -0.2031
16420TIP3    H170751   0.171   6.212  10.513  0.1508  0.1747 -0.7004
16420TIP3    H270752   0.287   6.308  10.528 -0.8653  1.2204  0.7144
16421TIP3   OH270753   4.558   4.347   5.075  0.1797  0.0081 -0.3288
16421TIP3    H170754   4.470   4.355   5.112  0.4577  0.1659  0.3205
16421TIP3    H270755   4.569   4.425   5.021  0.2183  0.4035  0.2441
16422TIP3   OH270756   4.695   2.127   6.116  0.4741  0.6038 -0.2041
16422TIP3    H170757   4.602   2.151   6.109  0.2116 -0.3381 -0.0429
16422TIP3    H270758   4.729   2.185   6.184  0.5601  2.5306 -1.7784
16423TIP3   OH270759   5.362   5.997   5.929 -0.1322 -0.5856  0.2208
16423TIP3    H170760   5.279   6.033   5.961  0.2290  2.6570 -2.0480
16423TIP3    H270761   5.422   6.005   6.003 -0.8845  0.6856  0.7316
16424TIP3   OH270762   0.928   4.492   6.397 -0.1487 -0.4534  0.3441
16424TIP3    H170763   0.996   4.553   6.426 -0.5821  0.5270 -0.6260
16424TIP3    H270764   0.864   4.547   6.353 -0.6117 -1.6074 -0.4730
16425TIP3   OH270765   4.884   6.715  14.458 -0.0475  0.4069 -0.2770
16425TIP3    H170766   4.894   6.682  14.368 -1.9236 -0.7608 -0.1113
16425TIP3    H270767   4.853   6.639  14.508  0.3114  1.2148  1.2300
16426TIP3   OH270768   2.572   5.203   0.104 -0.6615 -0.1325 -0.9989
16426TIP3    H170769   2.611   5.171   0.185 -1.5667  0.6588 -0.2301
16426TIP3    H270770   2.619   5.156   0.035 -0.7953 -1.8739  0.0176
16427TIP3   OH270771   5.570   2.885   0.825  0.2869  0.3977 -0.2613
16427TIP3    H170772   5.528   2.912   0.907 -1.5313 -0.2914 -0.9249
16427TIP3    H270773   5.637   2.822   0.852 -1.1257 -0.7820  0.6341
16428TIP3   OH270774   6.723   2.459   0.556  0.0153 -0.4319  0.0656
16428TIP3    H170775   6.812   2.455   0.591  0.5750  1.5971 -0.9499
16428TIP3    H270776   6.731   2.432   0.465 -0.4305 -0.3841  0.0103
16429TIP3   OH270777   1.007   6.282   0.389 -0.1991  0.7023  0.3041
16429TIP3    H170778   1.095   6.261   0.418  0.0071 -2.6083 -2.1417
16429TIP3    H270779   1.019   6.339   0.313 -0.1890  0.5494  0.1912
16430TIP3   OH270780   0.260   0.538   1.634  0.1324  0.1601 -0.0501
16430TIP3    H170781   0.191   0.605   1.639  1.0142  1.0155  1.2517
16430TIP3    H270782   0.255   0.492   1.718 -1.2857 -2.3445 -1.3859
16431TIP3   OH270783   5.596   2.108   5.112 -0.3513 -0.1494  0.1941
16431TIP3    H170784   5.668   2.045   5.099 -1.6533 -1.5188 -0.7787
16431TIP3    H270785   5.592   2.121   5.206  2.8450  2.0412  0.1601
16432TIP3   OH270786   0.391   0.297   5.030  0.0126  0.6980  0.1949
16432TIP3    H170787   0.380   0.388   5.057  2.3505  1.1408 -0.1003
16432TIP3    H270788   0.486   0.283   5.031 -0.3173 -2.2378  1.7519
16433TIP3   OH270789   5.354   0.878  12.314 -0.1666  0.1043  0.6432
16433TIP3    H170790   5.412   0.807  12.285  0.7007  1.6043 -1.6567
16433TIP3    H270791   5.311   0.845  12.392 -1.0521 -3.6142 -1.1912
16434TIP3   OH270792   5.250   0.815  11.492  0.2243 -0.6384  0.2942
16434TIP3    H170793   5.290   0.777  11.571  0.6587  1.5732  1.2236
16434TIP3    H270794   5.262   0.909  11.503 -1.1366 -0.1835 -1.6891
16435TIP3   OH270795   1.625   0.067  13.336 -0.2531 -0.0604  0.1199
16435TIP3    H170796   1.657  -0.013  13.296 -1.5681 -0.9262  0.7279
16435TIP3    H270797   1.547   0.040  13.386  0.8111  1.0770  2.5760
16436TIP3   OH270798   5.600   3.783  14.640  0.0034  0.2286  0.2004
16436TIP3    H170799   5.611   3.877  14.649 -1.4992  0.4060  0.5569
16436TIP3    H270800   5.597   3.769  14.545 -2.1474  0.9208  0.1002
16437TIP3   OH270801   1.281   4.960  15.198 -0.3024 -0.8392  0.5509
16437TIP3    H170802   1.221   5.011  15.143  1.7428 -0.7789 -1.8526
16437TIP3    H270803   1.283   4.874  15.157 -0.7005 -1.6508  2.1857
16438TIP3   OH270804   6.085   0.931  15.370 -0.5915 -0.3720 -0.1229
16438TIP3    H170805   6.160   0.872  15.368  0.3046  0.7400 -0.1744
16438TIP3    H270806   6.042   0.917  15.286  0.1145 -0.3105 -0.4979
16439TIP3   OH270807   0.132   3.063   1.503  0.0564  0.7476 -0.0248
16439TIP3    H170808   0.099   3.115   1.576 -1.5709  0.6771 -0.6706
16439TIP3    H270809   0.111   2.973   1.528  0.7124  0.5977  0.0072
16440TIP3   OH270810   5.459   4.905  13.772 -0.7778  0.0612  0.1025
16440TIP3    H170811   5.552   4.891  13.788 -0.0418  2.2725 -1.6463
16440TIP3    H270812   5.415   4.832  13.816  1.8200 -1.5320  0.2491
16441TIP3   OH270813   0.473   1.034  13.118 -0.6744 -0.0860 -0.0421
16441TIP3    H170814   0.538   1.075  13.175  0.8032 -0.9629 -1.0175
16441TIP3    H270815   0.433   0.966  13.173  0.2579 -0.4802  0.1877
16442TIP3   OH270816   3.991   2.110  12.848 -0.2708  0.6962 -0.3196
16442TIP3    H170817   4.041   2.038  12.807  0.4082  1.3730 -0.7084
16442TIP3    H270818   4.057   2.161  12.895 -0.7660  1.0047  0.0515
16443TIP3   OH270819   5.817   5.851   0.624 -0.2415 -0.7715  0.5119
16443TIP3    H170820   5.841   5.942   0.604  1.1127 -1.0108  0.9215
16443TIP3    H270821   5.886   5.799   0.583  0.4709 -1.4736  2.4687
16444TIP3   OH270822   0.567   2.565   3.070 -0.2152 -0.2099  0.3703
16444TIP3    H170823   0.504   2.618   3.022  0.7942 -0.1656 -0.9958
16444TIP3    H270824   0.650   2.613   3.062  0.0088 -0.2089  2.2015
16445TIP3   OH270825   1.218   2.611   2.085 -0.0125 -0.1909 -0.0477
16445TIP3    H170826   1.258   2.576   2.005  0.0430 -3.0783  1.1145
16445TIP3    H270827   1.290   2.621   2.146 -0.4277 -1.0158  0.6007
16446TIP3   OH270828   1.177   0.752  16.125 -0.1771 -0.1818 -0.5160
16446TIP3    H170829   1.112   0.696  16.166  0.5431  0.0914  1.0657
16446TIP3    H270830   1.184   0.828  16.183  0.1123  0.7468 -1.7139
16447TIP3   OH270831   2.725   2.946  15.986 -0.1473  0.0452 -0.3500
16447TIP3    H170832   2.686   2.998  15.916  0.1593 -0.0530 -0.5976
16447TIP3    H270833   2.817   2.972  15.986 -0.1439  0.0389  0.0145
16448TIP3   OH270834   0.274   5.135  13.319 -0.2572  0.8488  0.2130
16448TIP3    H170835   0.201   5.108  13.263  0.7383  0.2387 -0.8215
16448TIP3    H270836   0.240   5.128  13.408 -1.4135  0.4438 -0.2464
16449TIP3   OH270837   4.971   4.211  14.307  0.0247  0.1174  0.2983
16449TIP3    H170838   4.946   4.283  14.365 -0.7983  1.0466 -1.1670
16449TIP3    H270839   5.066   4.202  14.319  0.1864  1.6477  0.2707
16450TIP3   OH270840   3.025   4.727   3.401 -0.3167 -0.3193  0.3008
16450TIP3    H170841   2.975   4.664   3.349  1.6902 -1.4512 -0.3244
16450TIP3    H270842   3.009   4.701   3.492 -1.3823 -0.2333  0.1538
16451TIP3   OH270843   2.882   2.955  14.858 -0.2029  0.4215  0.3803
16451TIP3    H170844   2.822   2.953  14.932  2.0501  1.3940  2.3681
16451TIP3    H270845   2.957   3.005  14.889  2.7806 -2.7460 -1.0011
16452TIP3   OH270846   5.594   4.424  15.155  0.0184 -0.1577 -0.1021
16452TIP3    H170847   5.636   4.509  15.170  0.7570 -1.0002  3.5050
16452TIP3    H270848   5.509   4.446  15.117  1.0730  1.9715 -1.4990
16453TIP3   OH270849   5.515   0.627  11.278 -0.2703 -0.3835  0.1664
16453TIP3    H170850   5.513   0.559  11.211 -0.2019 -1.5819  1.3178
16453TIP3    H270851   5.423   0.642  11.300 -0.3032  0.1721 -0.3581
16454TIP3   OH270852   1.082   0.841  14.382 -0.0851  0.3586 -0.0723
16454TIP3    H170853   1.123   0.805  14.303  1.2505  2.0094 -0.1802
16454TIP3    H270854   1.144   0.822  14.452 -0.2401  0.8007  0.1896
16455TIP3   OH270855   2.783   3.159   4.589 -0.5332 -0.0253 -0.1449
16455TIP3    H170856   2.774   3.063   4.586  0.2620 -0.1011 -0.3894
16455TIP3    H270857   2.733   3.190   4.514 -0.3182 -0.2933 -0.4032
16456TIP3   OH270858   2.453   2.814  15.993 -0.1588 -0.0168 -0.2340
16456TIP3    H170859   2.452   2.757  15.916  1.2014  1.3046 -1.2731
16456TIP3    H270860   2.543   2.847  15.998  0.0533 -0.7125  2.4366
16457TIP3   OH270861   0.305   6.181  16.373 -0.5267  0.4677  0.2608
16457TIP3    H170862   0.322   6.223  16.458  0.8022  0.9551 -0.2204
16457TIP3    H270863   0.369   6.220  16.314 -1.4941  0.1984 -1.0071
16458TIP3   OH270864   4.422   5.604   1.515 -0.2717  0.1049  0.2255
16458TIP3    H170865   4.504   5.580   1.473 -0.2959  1.8001 -0.8901
16458TIP3    H270866   4.355   5.553   1.469 -0.0237  0.0394 -0.0596
16459TIP3   OH270867   5.428   1.066   4.946  0.9652  0.5024 -0.7900
16459TIP3    H170868   5.340   1.065   4.985  1.8106  0.2486  1.2097
16459TIP3    H270869   5.449   0.974   4.933  1.8348  0.3946  1.0081
16460TIP3   OH270870   2.460   0.652   5.248  0.0623 -0.2377 -0.2560
16460TIP3    H170871   2.545   0.611   5.234 -0.0053 -0.3764 -0.2691
16460TIP3    H270872   2.459   0.673   5.342 -0.0851 -0.6893 -0.1548
16461TIP3   OH270873   5.784   0.808  13.126 -0.5480  0.5314  0.6005
16461TIP3    H170874   5.865   0.757  13.134 -2.0545 -1.9586  1.2821
16461TIP3    H270875   5.774   0.850  13.211 -0.6792 -0.3453  1.0293
16462TIP3   OH270876   0.030   3.902  16.067  0.0637 -0.5973 -0.6503
16462TIP3    H170877   0.073   3.866  16.144 -1.9291 -0.8907  0.3777
16462TIP3    H270878  -0.006   3.986  16.095  0.9364  0.2060 -1.8226
16463TIP3   OH270879   4.935   1.537  16.732 -0.1822  0.4184  0.7254
16463TIP3    H170880   4.851   1.533  16.777 -0.8184  0.0461 -0.4710
16463TIP3    H270881   4.984   1.604  16.780 -0.9180  0.2069  1.8156
16464TIP3   OH270882   6.355   1.754  12.252  0.0322 -0.4054 -0.1257
16464TIP3    H170883   6.322   1.821  12.312  0.3767  0.4802 -0.9013
16464TIP3    H270884   6.277   1.721  12.207 -0.0190  0.4613 -0.7146
16465TIP3   OH270885   2.451   4.362   5.527  0.3368 -0.1938  0.5242
16465TIP3    H170886   2.494   4.425   5.469 -1.2149 -0.5401 -1.0781
16465TIP3    H270887   2.494   4.279   5.509  1.4034  0.0976  1.5888
16466TIP3   OH270888   0.294   3.426  13.184  0.7734  0.5137  0.4473
16466TIP3    H170889   0.222   3.364  13.172  1.2111  0.2907 -1.1446
16466TIP3    H270890   0.338   3.396  13.264  1.1441 -1.3845 -0.4302
16467TIP3   OH270891   0.996   2.670   6.560  0.6138 -0.3123  0.4042
16467TIP3    H170892   1.025   2.598   6.504  0.2045 -0.1920  0.0264
16467TIP3    H270893   0.910   2.694   6.525  1.0632  0.8568  0.0324
16468TIP3   OH270894   6.769   1.375  13.022 -0.3386 -0.4096 -0.3899
16468TIP3    H170895   6.766   1.422  13.105 -1.2497 -0.9085 -0.1262
16468TIP3    H270896   6.846   1.410  12.977 -1.6483  2.2966 -0.7577
16469TIP3   OH270897   1.091   2.996  12.861 -0.1474  0.4464  0.0221
16469TIP3    H170898   1.021   3.031  12.806 -0.9402 -0.6562  0.2753
16469TIP3    H270899   1.044   2.943  12.927  0.9686 -1.0720 -0.3587
16470TIP3   OH270900   4.757   3.295  14.298  0.5571 -0.2885 -0.6296
16470TIP3    H170901   4.724   3.312  14.387 -1.5384  1.3150 -1.6291
16470TIP3    H270902   4.722   3.208  14.276 -3.2667  1.2603 -1.5838
16471TIP3   OH270903   4.189   4.803   1.485  0.2560  0.6347  0.3298
16471TIP3    H170904   4.144   4.868   1.538  0.8861  1.4799 -0.1505
16471TIP3    H270905   4.281   4.808   1.513  0.4837  0.6488 -0.3868
16472TIP3   OH270906   2.672   6.282  11.456  0.0610  0.3477 -0.3322
16472TIP3    H170907   2.600   6.283  11.520  1.1195 -2.1411  1.0364
16472TIP3    H270908   2.697   6.190  11.450  2.4087  1.0001 -1.6331
16473TIP3   OH270909   3.971   3.124  13.246 -0.0405 -0.4431 -0.1014
16473TIP3    H170910   4.040   3.176  13.287 -0.3172 -0.0884 -0.0729
16473TIP3    H270911   3.895   3.183  13.245 -0.4317 -0.9320  0.1621
16474TIP3   OH270912   1.794   4.768  11.737  0.1482  0.5064  0.2170
16474TIP3    H170913   1.846   4.690  11.756 -2.1919 -1.4596 -0.9506
16474TIP3    H270914   1.811   4.788  11.646  1.1579  1.7662  0.6507
16475TIP3   OH270915   4.806   1.588   0.110  0.1503  0.0805 -0.3085
16475TIP3    H170916   4.846   1.654   0.053 -0.2480  0.3387 -0.2877
16475TIP3    H270917   4.730   1.631   0.149 -0.9112 -0.7809 -1.3257
16476TIP3   OH270918   6.112   0.244   2.578 -0.0152  0.8642  0.0476
16476TIP3    H170919   6.180   0.300   2.541  0.4728  0.2906  0.0639
16476TIP3    H270920   6.121   0.161   2.532 -1.4954  1.1348 -0.8130
16477TIP3   OH270921   2.143   2.741  15.375 -0.2832  0.5648  0.0920
16477TIP3    H170922   2.202   2.743  15.300 -0.2285 -0.2572  0.1073
16477TIP3    H270923   2.201   2.723  15.450 -0.3301  1.4245  0.3474
16478TIP3   OH270924   1.828   4.903  12.285  0.1925  1.0693 -0.2881
16478TIP3    H170925   1.754   4.880  12.229  0.1093  1.1738 -0.2214
16478TIP3    H270926   1.842   4.996  12.271 -1.2544  1.6122  1.5061
16479TIP3   OH270927   6.637   6.366  12.069 -0.3046 -0.2366  0.1520
16479TIP3    H170928   6.624   6.310  12.146 -0.7924  1.9512  1.7626
16479TIP3    H270929   6.678   6.309  12.005 -0.0952 -2.2382  1.9439
16480TIP3   OH270930   3.252   3.954  14.262 -0.1895 -0.1512  0.1425
16480TIP3    H170931   3.182   3.890  14.275  0.5268 -0.6650  1.6451
16480TIP3    H270932   3.315   3.936  14.332  1.8718 -0.2406 -1.6547
16481TIP3   OH270933   5.234   2.133  17.134  0.0066  0.2142  0.5607
16481TIP3    H170934   5.294   2.129  17.059 -1.7439  0.4046 -0.9032
16481TIP3    H270935   5.286   2.098  17.207  1.1613 -1.8582 -1.1185
16482TIP3   OH270936   5.878   5.166  13.993 -0.1696  0.2104  0.1652
16482TIP3    H170937   5.824   5.154  13.915 -0.9942  0.3144  0.7110
16482TIP3    H270938   5.820   5.209  14.056  1.5315  3.6119 -0.4011
16483TIP3   OH270939   1.295   3.304   0.943 -0.0612 -0.0194 -0.1224
16483TIP3    H170940   1.248   3.315   0.860  1.5828  1.0658 -0.9753
16483TIP3    H270941   1.351   3.381   0.948  1.7603 -1.3433  0.7303
16484TIP3   OH270942   0.807   0.354   2.245 -0.1374  0.3324 -0.0017
16484TIP3    H170943   0.889   0.341   2.294 -0.3585 -2.0139 -0.1541
16484TIP3    H270944   0.836   0.384   2.159  0.5719 -0.3481 -0.0128
16485TIP3   OH270945   0.265   4.955   2.495 -0.4515  0.0880  0.8012
16485TIP3    H170946   0.222   4.990   2.417  0.3152  0.1125  0.3797
16485TIP3    H270947   0.297   5.032   2.542 -0.0225  0.0289  0.6114
16486TIP3   OH270948   2.337   4.855  17.292  0.5285  0.2403 -0.7340
16486TIP3    H170949   2.395   4.875  17.218  0.3878  0.2324 -0.8471
16486TIP3    H270950   2.249   4.860  17.255  0.5018 -1.0756 -0.8850
16487TIP3   OH270951   2.075   0.058  12.527 -0.2011  0.1178  0.0652
16487TIP3    H170952   2.110  -0.029  12.549 -0.2907 -0.2295 -1.0940
16487TIP3    H270953   1.986   0.058  12.562 -0.5298 -0.6224 -0.7408
16488TIP3   OH270954   1.780   3.752  14.514 -0.1169  0.1927  0.1114
16488TIP3    H170955   1.839   3.677  14.524 -0.4652  0.0331  1.0872
16488TIP3    H270956   1.776   3.767  14.420  2.2290  0.8124  0.0420
16489TIP3   OH270957   2.770   4.775   3.668 -0.0757  0.1860 -0.2588
16489TIP3    H170958   2.741   4.857   3.626  0.7611 -0.1852 -1.6549
16489TIP3    H270959   2.733   4.706   3.612 -0.5655 -0.4002  0.7658
16490TIP3   OH270960   5.596   6.539  10.590 -0.3999  0.2006  0.7730
16490TIP3    H170961   5.510   6.511  10.560 -0.4439  0.4067  0.6995
16490TIP3    H270962   5.588   6.548  10.685 -0.8889  1.6282  0.6273
16491TIP3   OH270963   5.033   3.999  13.782  0.4717  0.0174 -0.3715
16491TIP3    H170964   4.938   4.004  13.793  0.4780  0.8814 -0.6224
16491TIP3    H270965   5.045   3.958  13.696  0.3092  0.5655 -0.6591
16492TIP3   OH270966   1.974   0.869  11.452  0.4905 -0.0606 -0.0928
16492TIP3    H170967   1.974   0.937  11.385  2.5527 -0.6703 -0.7853
16492TIP3    H270968   1.913   0.901  11.519 -2.3773  0.1336 -2.5831
16493TIP3   OH270969   0.557   0.133  10.917  0.4120 -0.3775  0.3265
16493TIP3    H170970   0.605   0.052  10.934  0.4808 -0.1338  1.4070
16493TIP3    H270971   0.562   0.181  11.000 -0.9772  0.0159  0.2142
16494TIP3   OH270972   5.721   6.173  12.227  0.1634 -0.0471  0.1136
16494TIP3    H170973   5.780   6.115  12.275  2.4833  2.6862  0.8673
16494TIP3    H270974   5.656   6.200  12.292  1.0268  0.6665  0.7098
16495TIP3   OH270975   4.019   2.179  12.505 -0.4095 -0.1233 -0.1717
16495TIP3    H170976   3.977   2.187  12.419 -1.9248  3.2978  0.7238
16495TIP3    H270977   3.954   2.132  12.558  1.3755 -4.1554 -1.2252
16496TIP3   OH270978   2.696   0.013   3.057 -0.0608 -0.0546  0.2361
16496TIP3    H170979   2.625  -0.051   3.050  0.6381 -0.9247  0.8473
16496TIP3    H270980   2.716   0.016   3.151  0.3613  0.5813  0.1345
16497TIP3   OH270981   1.142   3.205  11.685  0.1708 -0.4436  0.7913
16497TIP3    H170982   1.228   3.192  11.644 -0.0090  1.3321 -0.2654
16497TIP3    H270983   1.086   3.139  11.645  0.1671  0.8236 -1.4299
16498TIP3   OH270984   3.718   6.694   3.367  0.4145 -0.1580  0.0421
16498TIP3    H170985   3.698   6.688   3.460  2.2046 -0.0757  0.4654
16498TIP3    H270986   3.683   6.613   3.330  0.2701 -0.4983  0.8976
16499TIP3   OH270987   5.352   2.604   5.695 -0.1688 -1.2538 -0.0283
16499TIP3    H170988   5.333   2.518   5.658  2.9951 -0.9589 -2.8144
16499TIP3    H270989   5.438   2.595   5.735  1.4964  1.0328 -2.6759
16500TIP3   OH270990   0.197   1.466  16.915 -0.0980 -0.1284 -0.4150
16500TIP3    H170991   0.168   1.498  17.001 -0.5783  0.1665 -0.6834
16500TIP3    H270992   0.160   1.528  16.853 -0.9929 -1.1439 -0.9447
16501TIP3   OH270993   3.916   2.553  14.794  0.2982 -0.2281 -0.2159
16501TIP3    H170994   3.838   2.517  14.835  0.3795  1.3235  1.4408
16501TIP3    H270995   3.986   2.537  14.857  0.9159  0.1858 -0.7811
16502TIP3   OH270996   5.100   5.826   4.038  0.0888 -0.0669 -0.2901
16502TIP3    H170997   5.030   5.885   4.007 -0.8303 -1.2733 -0.5807
16502TIP3    H270998   5.059   5.775   4.107  0.3901 -1.4392 -1.0942
16503TIP3   OH270999   5.475   5.797  14.333 -0.0474 -0.0610 -0.4681
16503TIP3    H171000   5.396   5.808  14.387  0.9424  0.3840  0.9526
16503TIP3    H271001   5.450   5.831  14.247 -0.8588  1.8703  0.4615
16504TIP3   OH271002   5.532   6.785   5.330 -0.2648  0.4173  0.5740
16504TIP3    H171003   5.457   6.838   5.303  0.4684  0.7289 -0.9735
16504TIP3    H271004   5.608   6.843   5.317  0.6040 -1.0487 -1.5666
16505TIP3   OH271005   3.849   0.044  12.815 -0.1356 -0.8499  0.1181
16505TIP3    H171006   3.859  -0.038  12.864 -0.1725  0.8516  3.2294
16505TIP3    H271007   3.931   0.091  12.830  0.0690 -0.4408 -2.0078
16506TIP3   OH271008   0.241   4.238   5.110 -0.3386 -0.1416 -0.3208
16506TIP3    H171009   0.335   4.227   5.125  0.1028  0.5631 -2.2477
16506TIP3    H271010   0.217   4.166   5.052 -0.9334 -0.1773 -0.0373
16507TIP3   OH271011   1.993   1.682  12.812 -0.5083  0.4881  0.1097
16507TIP3    H171012   1.991   1.591  12.782  1.6065  0.6471 -0.6883
16507TIP3    H271013   1.953   1.732  12.741 -1.7147  0.2267  0.5675
16508TIP3   OH271014   3.223   0.259   4.897 -0.0610 -0.3743  0.0542
16508TIP3    H171015   3.209   0.190   4.962  1.0571 -0.3084  0.4034
16508TIP3    H271016   3.299   0.230   4.847  0.7447  0.8106  0.5252
16509TIP3   OH271017   5.414   1.059  16.545 -0.2058  0.3634 -0.2856
16509TIP3    H171018   5.361   1.069  16.624 -0.5527 -0.2665 -0.4345
16509TIP3    H271019   5.372   1.116  16.481 -0.2969  0.3902 -0.2032
16510TIP3   OH271020   1.471   5.405  12.734 -0.8004  0.0584  0.0120
16510TIP3    H171021   1.377   5.418  12.722 -0.6664  0.6362 -0.5100
16510TIP3    H271022   1.508   5.418  12.646 -0.3753 -1.6390 -0.0961
16511TIP3   OH271023   3.772   3.506  13.853 -1.0189  0.1861  0.1326
16511TIP3    H171024   3.804   3.582  13.804  1.6688 -0.7150  0.3704
16511TIP3    H271025   3.840   3.440  13.843 -0.7745 -0.4230  4.1394
16512TIP3   OH271026   2.156   2.640  13.619  0.3376  0.1491  0.1767
16512TIP3    H171027   2.089   2.575  13.639  0.1152 -0.1637 -1.4082
16512TIP3    H271028   2.108   2.713  13.580  0.6285  1.1248  1.5926
16513TIP3   OH271029   1.456   6.614   2.399 -0.5275  0.0566  0.3275
16513TIP3    H171030   1.451   6.637   2.307  2.3517 -0.4016 -0.0222
16513TIP3    H271031   1.438   6.696   2.445  0.8585  0.9762 -0.7208
16514TIP3   OH271032   2.910   1.308   2.469  0.0014  0.2568 -0.0136
16514TIP3    H171033   2.949   1.395   2.454  0.3803  0.1069  0.0896
16514TIP3    H271034   2.951   1.252   2.402 -0.2987  0.1732 -0.1286
16515TIP3   OH271035   5.646   6.170   5.972  0.8734 -0.2058  0.1008
16515TIP3    H171036   5.700   6.213   6.039  1.4285 -1.5815  0.5721
16515TIP3    H271037   5.696   6.181   5.891  1.0562 -0.0496  0.2318
16516TIP3   OH271038   3.525   1.671   2.646 -0.5678 -0.3351  0.5077
16516TIP3    H171039   3.469   1.627   2.710 -1.1320  0.1583  0.3620
16516TIP3    H271040   3.464   1.707   2.582 -0.1473  0.9575  0.8133
16517TIP3   OH271041   3.507   1.002  17.154 -0.0358  0.5147  0.0053
16517TIP3    H171042   3.472   0.943  17.087  0.6757 -0.3607  0.3932
16517TIP3    H271043   3.573   1.054  17.107 -0.4623  0.8260 -0.2670
16518TIP3   OH271044   1.897   3.501   4.358 -0.2195  0.2246  0.2206
16518TIP3    H171045   1.831   3.562   4.325  0.4889  0.9849  0.1456
16518TIP3    H271046   1.962   3.558   4.401  0.6047 -0.4544 -0.0894
16519TIP3   OH271047   1.002   0.142   2.056  0.0126  0.7089 -0.0496
16519TIP3    H171048   1.073   0.114   2.112  0.6488 -0.3600 -1.3364
16519TIP3    H271049   1.040   0.145   1.968 -1.0155  2.0531 -0.4923
16520TIP3   OH271050   1.698   3.326  12.932 -0.3831 -1.3514 -0.3234
16520TIP3    H171051   1.788   3.358  12.943 -1.3661  2.2242 -1.6717
16520TIP3    H271052   1.705   3.259  12.864  1.3146 -1.6470  0.0809
16521TIP3   OH271053   0.446   0.618  14.680 -0.2821 -0.1317  0.7084
16521TIP3    H171054   0.381   0.648  14.744  0.1048  0.4672  0.8353
16521TIP3    H271055   0.407   0.541  14.640 -1.3645  0.6050  0.3049
16522TIP3   OH271056   2.080   2.365   2.130 -0.0954 -0.4546  0.0841
16522TIP3    H171057   2.162   2.405   2.157  0.6377 -1.5525 -0.3981
16522TIP3    H271058   2.058   2.408   2.047 -0.3762  0.3226  0.5616
16523TIP3   OH271059   6.063   2.341  13.164  0.3848 -0.1741 -0.3404
16523TIP3    H171060   6.080   2.247  13.169 -0.9656 -0.4419 -0.4767
16523TIP3    H271061   6.131   2.381  13.218  0.0518 -1.3401  0.9748
16524TIP3   OH271062   1.609   1.338   3.023 -0.4539 -0.0680  0.6071
16524TIP3    H171063   1.584   1.283   2.949 -1.0648 -1.2353  1.6410
16524TIP3    H271064   1.549   1.412   3.020 -1.6400 -0.9945  0.9347
16525TIP3   OH271065   3.157   3.246  15.383  0.1759  0.3503 -0.6005
16525TIP3    H171066   3.136   3.203  15.466 -0.0705 -2.1963 -1.8605
16525TIP3    H271067   3.091   3.314  15.374 -2.8338 -2.3090 -0.7660
16526TIP3   OH271068   3.965   6.307   2.280  0.1981  0.0491  0.3558
16526TIP3    H171069   3.957   6.227   2.227  3.4295 -0.5392  0.5786
16526TIP3    H271070   3.981   6.377   2.216  0.6781 -0.0635  0.3515
16527TIP3   OH271071   0.061   0.209   1.965  0.1187  0.0827  0.0147
16527TIP3    H171072   0.024   0.129   2.001 -0.3134  0.7429  1.0908
16527TIP3    H271073   0.008   0.279   2.002 -0.0398  0.8462 -1.5547
16528TIP3   OH271074   1.332   5.848   0.540 -0.2408 -0.1525 -0.3819
16528TIP3    H171075   1.335   5.925   0.483 -1.1550 -0.2450 -0.5827
16528TIP3    H271076   1.241   5.846   0.572  0.3688  0.1910  1.5071
16529TIP3   OH271077   1.247   4.993  14.105  0.4792 -0.3329  0.5364
16529TIP3    H171078   1.333   5.020  14.073  0.2276 -1.7148 -1.5368
16529TIP3    H271079   1.199   5.075  14.118  0.8441  0.3968 -2.1431
16530TIP3   OH271080   1.212   2.256   4.495 -0.4898 -0.1473 -0.1386
16530TIP3    H171081   1.243   2.265   4.585  0.9437 -0.8904 -0.5353
16530TIP3    H271082   1.223   2.163   4.474  0.7524  0.2791 -1.5917
16531TIP3   OH271083   0.523   0.012  11.869  0.0572 -0.0380 -0.4504
16531TIP3    H171084   0.431   0.036  11.879 -0.4403 -1.9511  0.0119
16531TIP3    H271085   0.564   0.044  11.950 -0.8041 -1.6067  0.6706
16532TIP3   OH271086   5.423   3.092   1.856 -0.4438 -0.2501  0.1831
16532TIP3    H171087   5.437   3.164   1.794  0.1112  1.1157  1.7868
16532TIP3    H271088   5.474   3.019   1.821  0.5699  0.7599 -0.5320
16533TIP3   OH271089   3.902   0.876  15.134 -0.3064  0.0453 -0.2070
16533TIP3    H171090   3.907   0.938  15.061  2.6182 -1.6620 -1.6468
16533TIP3    H271091   3.980   0.821  15.124 -0.7466 -1.4458  3.2004
16534TIP3   OH271092   2.491   4.866  10.910  0.2130  0.1670  0.4714
16534TIP3    H171093   2.569   4.838  10.959  0.3041 -0.0918  0.1780
16534TIP3    H271094   2.519   4.947  10.867  0.1298  0.4004  0.8555
16535TIP3   OH271095   6.340   6.397   4.484 -0.1221 -0.2429  0.4103
16535TIP3    H171096   6.338   6.310   4.524 -0.3231 -0.4870 -0.1240
16535TIP3    H271097   6.348   6.457   4.558  2.5901 -0.8104  0.7084
16536TIP3   OH271098   3.112   1.176  13.283  0.1132 -0.2146  0.0070
16536TIP3    H171099   3.033   1.122  13.274  0.1626 -0.3974  0.6297
16536TIP3    H271100   3.109   1.208  13.373 -0.8116  2.2604 -0.8427
16537TIP3   OH271101   5.926   3.314   0.488 -0.2849 -0.2366 -0.0057
16537TIP3    H171102   5.850   3.303   0.544 -0.8807 -1.1435 -0.9370
16537TIP3    H271103   5.944   3.225   0.455  0.4275  0.1616 -0.7394
16538TIP3   OH271104   6.600   0.904   0.631  0.3984 -0.1599  0.2252
16538TIP3    H171105   6.645   0.826   0.599 -0.5013 -0.9817  0.9273
16538TIP3    H271106   6.624   0.909   0.723  1.2699  0.9942 -0.0379
16539TIP3   OH271107   6.202   2.441   4.858 -0.5327  0.1687 -0.5572
16539TIP3    H171108   6.136   2.421   4.925 -0.2186  0.0906 -0.2679
16539TIP3    H271109   6.175   2.525   4.821 -1.1156 -0.1374 -0.8447
16540TIP3   OH271110   0.507   0.114   3.842  0.2706  0.0689 -0.6579
16540TIP3    H171111   0.523   0.039   3.785 -1.1602 -0.0946 -0.8748
16540TIP3    H271112   0.564   0.099   3.918 -1.5709 -2.4269  0.3727
16541TIP3   OH271113   4.804   3.268  10.775  0.0835 -0.0421  0.4054
16541TIP3    H171114   4.783   3.336  10.839 -1.5333 -0.3792  0.2716
16541TIP3    H271115   4.806   3.314  10.691  0.1816  0.0382  0.4506
16542TIP3   OH271116   6.043   1.935  11.226 -0.4801  0.5876 -0.5717
16542TIP3    H171117   6.112   1.987  11.186  2.1711 -1.0484  1.5267
16542TIP3    H271118   6.035   1.970  11.315  1.7736 -2.6286  1.1058
16543TIP3   OH271119   3.431   2.945   2.380  0.0051 -0.6357 -0.1809
16543TIP3    H171120   3.447   2.874   2.318  1.5725  0.4291 -1.0443
16543TIP3    H271121   3.517   2.984   2.394 -0.5103 -0.1137  1.7907
16544TIP3   OH271122   6.312   1.382  14.856  0.3539 -0.2241  0.1280
16544TIP3    H171123   6.393   1.331  14.859 -0.1531 -1.0348  0.4554
16544TIP3    H271124   6.259   1.339  14.789  0.2843  0.4541 -0.2625
16545TIP3   OH271125   3.419   5.115   3.781  0.1270  0.4800 -0.2492
16545TIP3    H171126   3.335   5.121   3.736  0.1036  1.5499 -0.0775
16545TIP3    H271127   3.399   5.128   3.873  0.1332 -2.0249  0.1785
16546TIP3   OH271128   4.487   2.339   0.686 -0.2292 -0.6660  0.3698
16546TIP3    H171129   4.571   2.354   0.643  1.2216 -0.3374  3.0971
16546TIP3    H271130   4.473   2.245   0.680 -0.2445 -0.5946 -1.0224
16547TIP3   OH271131   1.666   0.673   0.704 -0.3690 -0.2235 -0.4715
16547TIP3    H171132   1.640   0.614   0.633 -1.1026 -0.3325 -0.1252
16547TIP3    H271133   1.644   0.760   0.671  0.0283 -0.2051 -0.6905
16548TIP3   OH271134   5.973   0.379   5.149 -0.2655 -0.3935 -0.2007
16548TIP3    H171135   5.919   0.452   5.118 -0.1936 -1.2194 -2.4633
16548TIP3    H271136   5.930   0.301   5.115  1.7868 -1.1406 -1.2350
16549TIP3   OH271137   2.928   5.785   5.294  0.0294  0.2529  0.3730
16549TIP3    H171138   2.972   5.700   5.291  1.1810  0.6620  2.8975
16549TIP3    H271139   2.857   5.773   5.356 -0.2253  0.9593  0.2283
16550TIP3   OH271140   5.694   6.058   0.425 -0.2201 -0.0310  0.5118
16550TIP3    H171141   5.730   6.113   0.495  0.1835  1.1152 -0.5735
16550TIP3    H271142   5.633   6.115   0.379 -0.8222 -0.9179  0.1925
16551TIP3   OH271143   2.706   4.589   0.108  0.4441  0.0043 -0.5049
16551TIP3    H171144   2.708   4.592   0.204 -3.2247  1.7458 -0.3402
16551TIP3    H271145   2.724   4.679   0.080 -1.5983  0.2214 -1.2503
16552TIP3   OH271146   6.672   0.113  16.539 -0.1336 -0.0180 -0.4026
16552TIP3    H171147   6.619   0.078  16.467 -1.5700  1.6946 -0.2368
16552TIP3    H271148   6.659   0.208  16.534  0.1971  0.1838  1.7717
16553TIP3   OH271149   6.122   2.994   2.727 -0.2994  0.2319  0.0369
16553TIP3    H171150   6.180   3.070   2.734  0.3560 -0.1842 -0.7733
16553TIP3    H271151   6.169   2.923   2.771 -1.1676  0.4211  1.3154
16554TIP3   OH271152   4.390   6.360   4.515  0.1379  0.0985 -0.2972
16554TIP3    H171153   4.463   6.410   4.478  0.3584 -0.4771 -0.6426
16554TIP3    H271154   4.312   6.405   4.484  0.3387  0.5742 -0.1250
16555TIP3   OH271155   3.845   1.863  11.492  0.1200 -0.1093  0.5547
16555TIP3    H171156   3.757   1.884  11.460  1.3015  0.3024 -2.8107
16555TIP3    H271157   3.831   1.831  11.581 -3.5434 -1.0900 -0.2119
16556TIP3   OH271158   4.652   2.260  14.641  0.1618 -0.3744 -0.3119
16556TIP3    H171159   4.619   2.227  14.557  0.8020  1.9827 -1.5590
16556TIP3    H271160   4.573   2.283  14.690 -0.1844  0.2705 -1.1488
16557TIP3   OH271161   1.189   6.379  11.521  0.2328  0.6901  0.2752
16557TIP3    H171162   1.175   6.340  11.434  0.3780  0.6425  0.2725
16557TIP3    H271163   1.245   6.316  11.566  1.2184  1.3220 -0.0452
16558TIP3   OH271164   4.634   1.799  12.958  0.4403 -0.4119 -0.4964
16558TIP3    H171165   4.582   1.857  13.013 -0.2152 -0.9083 -0.5846
16558TIP3    H271166   4.573   1.768  12.891  1.4151  0.8290 -2.0359
16559TIP3   OH271167   4.852   4.529  12.402 -0.4715  0.3274  0.1003
16559TIP3    H171168   4.832   4.576  12.483 -0.2524 -0.5660  0.6862
16559TIP3    H271169   4.787   4.560  12.340  0.2572  2.1316  0.1731
16560TIP3   OH271170   4.453   0.804  16.880 -0.1057  0.4489 -0.2187
16560TIP3    H171171   4.426   0.728  16.829  0.1388  0.4885 -0.4113
16560TIP3    H271172   4.373   0.833  16.924  0.3429 -1.6574  2.1723
16561TIP3   OH271173   0.551   5.367   0.674  0.0105  0.6080  0.2584
16561TIP3    H171174   0.622   5.412   0.629  1.0785 -0.2849  1.0048
16561TIP3    H271175   0.546   5.281   0.631  1.9949 -0.8210  2.6439
16562TIP3   OH271176   3.759   5.665  11.799  0.3858 -0.1401 -0.1872
16562TIP3    H171177   3.692   5.730  11.778 -0.1755 -0.6128  0.1107
16562TIP3    H271178   3.715   5.580  11.788  0.8822 -0.4557  0.1826
16563TIP3   OH271179   5.021   3.090  10.881  0.6597  0.4393 -0.4747
16563TIP3    H171180   5.001   3.180  10.853 -0.9777  0.5498  0.8929
16563TIP3    H271181   4.995   3.035  10.808 -0.1491  0.9638 -0.5909
16564TIP3   OH271182   0.233   2.245  16.980 -0.1086 -0.1398  0.4303
16564TIP3    H171183   0.321   2.217  17.005  0.2951  0.5995 -0.1186
16564TIP3    H271184   0.233   2.242  16.884 -0.9872 -1.0312  0.4439
16565TIP3   OH271185   2.604   1.012   5.370 -0.6493 -0.2991 -0.0473
16565TIP3    H171186   2.629   1.102   5.350 -1.4084 -0.3476 -1.3014
16565TIP3    H271187   2.548   1.020   5.448  1.4017  0.0099  1.4792
16566TIP3   OH271188   5.998   4.489  15.508  0.2915  0.2459 -0.0151
16566TIP3    H171189   5.993   4.500  15.413  2.0495  1.5923 -0.0129
16566TIP3    H271190   5.907   4.486  15.537 -0.2820  0.6777 -1.6464
16567TIP3   OH271191   2.525   3.224   6.135 -0.0307  0.1193 -0.9387
16567TIP3    H171192   2.597   3.175   6.096  1.9660  1.3156  0.9799
16567TIP3    H271193   2.549   3.316   6.121 -0.2687  0.5582  1.1701
16568TIP3   OH271194   2.111   6.469   2.463 -0.1222 -0.2067  0.1851
16568TIP3    H171195   2.110   6.378   2.433 -2.6780 -0.4103  0.6280
16568TIP3    H271196   2.048   6.514   2.406 -1.0199  0.6112  1.7530
16569TIP3   OH271197   2.365   1.066   4.185  0.3142  0.0230 -0.3477
16569TIP3    H171198   2.295   1.041   4.245  1.4971 -1.4091  0.5087
16569TIP3    H271199   2.418   0.987   4.176  0.9294  0.5935 -2.2526
16570TIP3   OH271200   2.211   0.845   4.427 -0.2128 -0.1698  0.0935
16570TIP3    H171201   2.185   0.915   4.487 -0.6316 -1.7399  1.8447
16570TIP3    H271202   2.153   0.772   4.449  1.7617 -1.8442  0.0204
16571TIP3   OH271203   5.906   5.731   1.702  0.0153  0.3159 -0.5122
16571TIP3    H171204   5.846   5.686   1.762  1.2722 -1.5868 -0.5904
16571TIP3    H271205   5.966   5.779   1.760 -0.1560  0.3225 -0.3402
16572TIP3   OH271206   2.440   5.225   1.449  0.0089  0.2694  0.9683
16572TIP3    H171207   2.451   5.245   1.542 -0.9966  0.6233  1.0208
16572TIP3    H271208   2.387   5.297   1.415  0.8448  0.4533 -0.0193
16573TIP3   OH271209   4.573   2.017  12.581  0.2953  0.4164  0.2766
16573TIP3    H171210   4.665   1.991  12.577  0.7439  2.0359 -0.9297
16573TIP3    H271211   4.546   2.026  12.489 -1.1471 -0.2466  0.5993
16574TIP3   OH271212   5.928   5.855   2.386  0.0610 -0.0232 -0.4743
16574TIP3    H171213   5.868   5.914   2.431  0.4518 -0.3325  0.4851
16574TIP3    H271214   5.987   5.912   2.337 -0.7772  0.2936 -1.1419
16575TIP3   OH271215   4.782   4.100   4.712 -0.5054 -0.3840  0.2225
16575TIP3    H171216   4.779   4.182   4.662 -0.5451  0.2231  1.1911
16575TIP3    H271217   4.738   4.036   4.657  0.4295 -0.0027 -1.0096
16576TIP3   OH271218   2.677   3.980  10.652  0.5291  0.2075 -0.2003
16576TIP3    H171219   2.668   3.885  10.651  0.4860  0.2112 -0.1504
16576TIP3    H271220   2.741   3.997  10.722 -0.3578  0.2930  0.6095
16577TIP3   OH271221   4.134   4.496   6.463  0.0999  0.2739 -0.2946
16577TIP3    H171222   4.195   4.488   6.537  0.8072 -0.6132 -0.9531
16577TIP3    H271223   4.119   4.406   6.435 -1.3996  0.4941 -0.2626
16578TIP3   OH271224   5.401   3.104  12.257  0.1208  0.2220 -0.3280
16578TIP3    H171225   5.438   3.049  12.326 -0.8651 -1.7398 -1.2742
16578TIP3    H271226   5.360   3.176  12.304 -0.2062 -0.8656  1.1444
16579TIP3   OH271227   0.116   6.819  12.895  0.2113 -0.4958 -0.3937
16579TIP3    H171228   0.108   6.912  12.912 -1.0006 -0.9197  1.7174
16579TIP3    H271229   0.155   6.813  12.808  2.4933  1.9745  0.3534
16580TIP3   OH271230   2.518   0.996   3.038  0.0662  0.1984 -0.0664
16580TIP3    H171231   2.606   0.966   3.057  0.4613  0.5090 -1.3314
16580TIP3    H271232   2.517   1.087   3.067  0.1322  0.1714  0.0219
16581TIP3   OH271233   6.368   1.913  15.327 -0.0136 -0.0555 -0.0883
16581TIP3    H171234   6.330   1.909  15.239  0.8365 -0.8392 -0.4361
16581TIP3    H271235   6.450   1.960  15.315  0.7411 -1.3007  0.0350
16582TIP3   OH271236   2.084   2.162   2.667 -0.0773 -0.3484  0.3051
16582TIP3    H171237   2.054   2.245   2.629 -0.8844 -0.9852 -0.4890
16582TIP3    H271238   2.114   2.111   2.592  0.0180 -0.9357  0.7365
16583TIP3   OH271239   5.948   5.988  13.383  0.1286  0.1232 -0.0604
16583TIP3    H171240   5.899   6.050  13.438  2.9570  1.4169  1.1921
16583TIP3    H271241   6.023   6.038  13.351 -0.5509 -1.0494 -3.9806
16584TIP3   OH271242   4.709   0.120  14.280 -0.4693 -0.4274  0.1197
16584TIP3    H171243   4.742   0.030  14.278 -0.9777 -0.6118 -1.5292
16584TIP3    H271244   4.627   0.115  14.327 -1.1053 -1.0773 -1.0132
16585TIP3   OH271245   4.610   5.120   4.750 -0.0566  0.0056  0.2619
16585TIP3    H171246   4.615   5.124   4.846 -0.8989 -1.9114  0.4477
16585TIP3    H271247   4.690   5.075   4.724 -1.0845 -2.0460  0.3878
16586TIP3   OH271248   6.628   6.526   4.802 -0.2526 -0.0246  0.0406
16586TIP3    H171249   6.534   6.544   4.796 -0.2958  0.1619  1.0695
16586TIP3    H271250   6.656   6.515   4.712 -1.0756  0.8946 -0.3414
16587TIP3   OH271251   4.762   4.203   5.477  0.3231 -0.2033  0.7304
16587TIP3    H171252   4.741   4.116   5.443 -1.5477  0.6842 -0.5221
16587TIP3    H271253   4.847   4.224   5.440 -1.1875  0.3321 -2.8749
16588TIP3   OH271254   3.108   4.644  10.996  0.2723 -0.1271 -0.0158
16588TIP3    H171255   3.160   4.609  10.924 -1.4743  0.0898 -1.4417
16588TIP3    H271256   3.020   4.656  10.959 -0.1426  2.1019  1.5027
16589TIP3   OH271257   0.006   1.200  12.151 -0.0280 -0.2545 -0.3797
16589TIP3    H171258  -0.087   1.185  12.170  0.2179 -0.5805  0.6133
16589TIP3    H271259   0.023   1.147  12.074 -0.7324  0.0288 -0.7458
16590TIP3   OH271260   4.669   3.398  16.487 -0.2089 -0.6146 -0.4646
16590TIP3    H171261   4.662   3.304  16.500  0.7123 -0.6324 -0.0014
16590TIP3    H271262   4.664   3.410  16.392 -2.3406 -0.9219 -0.4324
16591TIP3   OH271263   2.680   5.149  15.459  0.1158  0.2239  0.1492
16591TIP3    H171264   2.720   5.100  15.531  0.1771  0.3649  0.2114
16591TIP3    H271265   2.619   5.209  15.501 -0.2308 -0.0524  0.0496
16592TIP3   OH271266   2.229   0.948   0.786 -0.2904 -0.2842 -0.2672
16592TIP3    H171267   2.218   0.918   0.695  2.4181  0.0471 -0.7778
16592TIP3    H271268   2.157   1.010   0.799 -0.4245  0.0941 -2.3772
16593TIP3   OH271269   2.554   6.215   0.171  0.3465  0.2157 -0.1976
16593TIP3    H171270   2.552   6.125   0.138  3.1638  0.0862 -0.3039
16593TIP3    H271271   2.562   6.268   0.092 -0.4612  0.4997 -0.0900
16594TIP3   OH271272   0.432   3.415  11.945  0.8155  0.3680 -0.3435
16594TIP3    H171273   0.514   3.367  11.960  0.5033 -0.1414 -0.2432
16594TIP3    H271274   0.375   3.352  11.901  0.5926  0.8318 -0.7211
16595TIP3   OH271275   4.222   5.751   5.385  0.4522 -0.0653  0.0035
16595TIP3    H171276   4.214   5.833   5.434  0.8954  0.7490 -1.2370
16595TIP3    H271277   4.208   5.776   5.294 -2.1363 -1.8246 -0.1873
16596TIP3   OH271278   0.738   0.677   1.253 -0.3870 -0.2662  0.2445
16596TIP3    H171279   0.702   0.589   1.262 -0.4757 -0.0646  2.3490
16596TIP3    H271280   0.694   0.728   1.321  0.1429  1.2496 -0.5061
16597TIP3   OH271281   3.685   3.233  14.604  0.8205  0.4182 -0.3725
16597TIP3    H171282   3.650   3.200  14.522 -0.5991  2.7684 -0.8117
16597TIP3    H271283   3.713   3.323  14.584 -0.5808  1.4557  1.9004
16598TIP3   OH271284   3.970   3.236   2.250  1.1108 -0.1117 -0.2181
16598TIP3    H171285   4.015   3.211   2.331  2.0563  1.0498 -0.3469
16598TIP3    H271286   3.962   3.331   2.256  0.0596 -0.1398 -0.9392
16599TIP3   OH271287   3.737   2.416  10.952  0.3199  0.4421 -0.3877
16599TIP3    H171288   3.672   2.477  10.989  0.7657  0.4922  0.3478
16599TIP3    H271289   3.731   2.429  10.858 -1.7574 -0.5889 -0.4498
16600TIP3   OH271290   0.376   5.183   0.327  0.0265 -0.6299 -0.0767
16600TIP3    H171291   0.414   5.205   0.412 -0.2967 -1.1748  0.2174
16600TIP3    H271292   0.282   5.172   0.345  0.0055 -1.0795 -0.4310
16601TIP3   OH271293   5.941   2.994   6.042 -0.3234 -0.1687  0.3597
16601TIP3    H171294   5.915   3.085   6.054  0.9095  0.0523  1.6122
16601TIP3    H271295   5.957   2.961   6.130 -1.3068 -1.7909 -0.0195
16602TIP3   OH271296   5.495   0.821  12.645 -0.6548  0.0218  0.2800
16602TIP3    H171297   5.546   0.812  12.726  0.6743 -0.5017 -0.5708
16602TIP3    H271298   5.464   0.732  12.627 -0.5609  0.0505 -0.0227
16603TIP3   OH271299   2.768   2.369  16.847  0.0671  0.8411 -0.3338
16603TIP3    H171300   2.739   2.458  16.864 -1.0306  0.1646  1.6280
16603TIP3    H271301   2.854   2.362  16.889  0.7253  1.2886 -1.5467
16604TIP3   OH271302   1.108   5.173  14.773  0.0957  0.4593 -0.2949
16604TIP3    H171303   1.157   5.247  14.808 -0.4782  0.6025  0.2363
16604TIP3    H271304   1.172   5.101  14.772  0.1338  0.4334  1.1398
16605TIP3   OH271305   5.159   0.411  14.773  0.5675 -0.7355  0.0186
16605TIP3    H171306   5.157   0.375  14.862  1.1373 -0.3113  0.2098
16605TIP3    H271307   5.229   0.477  14.775 -0.8194  0.8098 -0.1536
16606TIP3   OH271308   4.008   5.941   0.038 -0.8802 -0.0502 -0.1262
16606TIP3    H171309   4.017   5.900  -0.048  1.5840 -0.5115  0.2600
16606TIP3    H271310   4.028   6.033   0.024 -1.6976  0.1169 -0.2290
16607TIP3   OH271311   6.170   3.058  12.777 -0.2003 -0.5730  0.2333
16607TIP3    H171312   6.138   2.985  12.725  0.6913 -0.8260  0.0259
16607TIP3    H271313   6.219   3.112  12.715  0.1213 -0.4072  0.6255
16608TIP3   OH271314   3.272   2.354  12.439 -0.8711 -0.1349  0.1838
16608TIP3    H171315   3.285   2.373  12.346 -0.3153  0.4789  0.3835
16608TIP3    H271316   3.299   2.434  12.484  0.7399 -1.0987  0.9950
16609TIP3   OH271317   1.681   0.536   4.779 -0.8561  0.3105 -0.6823
16609TIP3    H171318   1.711   0.574   4.861 -0.6999  0.4984 -0.8254
16609TIP3    H271319   1.616   0.598   4.746  0.8868  1.5610 -1.9537
16610TIP3   OH271320   5.207   0.220  16.024  0.4026 -0.6826  0.1593
16610TIP3    H171321   5.172   0.136  16.054  2.1362 -1.4342  0.1835
16610TIP3    H271322   5.197   0.279  16.098  0.0105 -1.1139  0.4533
16611TIP3   OH271323   0.427   5.913  15.113  0.6788  0.0366 -0.6822
16611TIP3    H171324   0.426   5.952  15.200  1.5302 -0.3404 -0.4856
16611TIP3    H271325   0.346   5.942  15.072  0.2607  0.2054  0.2411
16612TIP3   OH271326   2.221   2.986  16.320  0.2247  0.1547  0.1963
16612TIP3    H171327   2.303   2.981  16.369  0.1387  0.1697  0.3418
16612TIP3    H271328   2.235   2.928  16.245  0.7897  1.0226 -0.4035
16613TIP3   OH271329   1.737   4.616   2.236  0.0788  0.5215 -0.1275
16613TIP3    H171330   1.755   4.706   2.210  1.6332 -0.2331 -1.8860
16613TIP3    H271331   1.787   4.604   2.316  1.6883  0.6114 -1.0773
16614TIP3   OH271332   5.542   1.231   4.704 -0.0293  0.2092  0.0304
16614TIP3    H171333   5.496   1.232   4.621 -0.1217  0.4853  0.0831
16614TIP3    H271334   5.478   1.199   4.767  0.3189 -0.8943 -0.1615
16615TIP3   OH271335   3.768   4.510  15.945 -0.1599  0.0135  0.0349
16615TIP3    H171336   3.697   4.501  16.009 -0.0340  2.4251  0.5824
16615TIP3    H271337   3.847   4.507  15.998 -0.0812  3.3708  0.3048
16616TIP3   OH271338   3.573   0.352  11.638  0.0176  0.3735 -0.2795
16616TIP3    H171339   3.656   0.391  11.608  0.5223 -1.4000 -1.3442
16616TIP3    H271340   3.509   0.422  11.626  1.1582  1.4252 -0.5230
16617TIP3   OH271341   3.534   3.705   1.660  0.1767  0.0290  0.1087
16617TIP3    H171342   3.544   3.617   1.695  0.3985  0.5767  1.4908
16617TIP3    H271343   3.564   3.763   1.730  0.4008  1.2016 -0.9052
16618TIP3   OH271344   1.206   1.299  10.893 -0.2090  0.2483  0.2912
16618TIP3    H171345   1.149   1.353  10.838  0.3586  0.9042  0.3378
16618TIP3    H271346   1.160   1.216  10.900 -0.0743 -0.0404 -1.5839
16619TIP3   OH271347   2.716   4.989  15.676 -0.2682 -0.1813 -0.2644
16619TIP3    H171348   2.795   5.010  15.725  0.9950 -2.1761 -1.3552
16619TIP3    H271349   2.658   4.948  15.740  0.5169 -0.8346  0.0336
16620TIP3   OH271350   3.509   5.191  10.905  0.1816  0.1424  0.0099
16620TIP3    H171351   3.595   5.169  10.940  0.4341  1.5712  0.3580
16620TIP3    H271352   3.520   5.278  10.865 -0.8104 -0.1697 -1.0219
16621TIP3   OH271353   4.855   0.719  13.609  0.0169  0.3076  0.1773
16621TIP3    H171354   4.915   0.645  13.593  0.0941  0.1768  1.0270
16621TIP3    H271355   4.873   0.780  13.537  1.4520  0.4473  0.6099
16622TIP3   OH271356   3.219   1.844  11.566 -0.0740  0.2687  0.5104
16622TIP3    H171357   3.242   1.854  11.473  0.3612 -0.6055  0.5145
16622TIP3    H271358   3.258   1.920  11.609  1.9418 -0.5988  0.3486
16623TIP3   OH271359   0.522   4.806   2.769  0.1398  0.5422  0.3800
16623TIP3    H171360   0.428   4.807   2.788  0.3315  0.1956  1.4545
16623TIP3    H271361   0.554   4.726   2.812  0.3204 -1.5871 -3.3118
16624TIP3   OH271362   2.564   3.700   4.914  0.5475 -0.5442  0.4614
16624TIP3    H171363   2.486   3.647   4.899 -0.5455  1.5687 -2.2798
16624TIP3    H271364   2.635   3.650   4.873 -0.2683 -0.4433 -1.1673
16625TIP3   OH271365   3.000   2.000  14.239  0.0857 -0.0272  0.3236
16625TIP3    H171366   3.063   1.942  14.281 -0.0548 -1.4104 -1.2535
16625TIP3    H271367   3.021   2.088  14.272  1.8586 -0.6579  0.9493
16626TIP3   OH271368   0.337   5.463   3.272 -0.0493 -0.4605 -0.1833
16626TIP3    H171369   0.390   5.452   3.193  0.0150 -0.2568 -0.1700
16626TIP3    H271370   0.395   5.506   3.334 -0.9608  2.2033 -1.0314
16627TIP3   OH271371   6.418   1.615  12.776 -0.2301 -0.7160  0.1960
16627TIP3    H171372   6.471   1.688  12.808 -0.4629 -1.1659  1.6891
16627TIP3    H271373   6.351   1.657  12.721 -0.2294  0.1825  0.8498
16628TIP3   OH271374   1.529   3.978   4.152  0.0089  0.0027  0.2682
16628TIP3    H171375   1.618   3.967   4.119 -0.4144  0.0833 -0.9452
16628TIP3    H271376   1.526   4.070   4.181 -0.1811  0.5503 -1.3661
16629TIP3   OH271377   5.744   6.774   2.526  0.1160 -0.0087 -0.4393
16629TIP3    H171378   5.748   6.868   2.507  4.1486  0.0589 -0.0434
16629TIP3    H271379   5.759   6.768   2.620  0.8668 -1.0852 -0.6175
16630TIP3   OH271380   5.610   2.205  14.293  0.1224  0.1413  0.3299
16630TIP3    H171381   5.609   2.257  14.213 -2.3493 -0.9092 -0.4358
16630TIP3    H271382   5.526   2.224  14.335  0.7103 -0.5121  1.8790
16631TIP3   OH271383   4.205   1.596  13.973  0.2184 -0.0019 -0.2946
16631TIP3    H171384   4.155   1.603  13.891  0.5462 -2.5964 -0.8130
16631TIP3    H271385   4.142   1.620  14.041 -0.8309 -0.2556 -1.1398
16632TIP3   OH271386   6.047   0.307   4.758  0.3590  0.3736  0.2101
16632TIP3    H171387   6.083   0.272   4.839 -0.3751  1.5532  1.0716
16632TIP3    H271388   5.954   0.322   4.778  0.0578  0.2493 -0.9990
16633TIP3   OH271389   3.133   3.028   4.987  0.1990  0.0960 -0.6677
16633TIP3    H171390   3.195   2.999   5.054 -2.8196 -0.8688  1.9228
16633TIP3    H271391   3.144   3.123   4.985  0.2993  0.1793  1.3759
16634TIP3   OH271392   6.324   4.104  10.550  0.0669  0.4169 -0.3619
16634TIP3    H171393   6.286   4.095  10.637 -1.2564  0.9733 -0.8664
16634TIP3    H271394   6.418   4.092  10.564 -0.2646 -0.8731  0.9198
16635TIP3   OH271395   3.735   3.140  14.867 -0.1759  0.0549  0.0368
16635TIP3    H171396   3.680   3.210  14.903  2.2684  1.9290  0.4623
16635TIP3    H271397   3.748   3.165  14.775  0.3559 -0.0570  0.0773
16636TIP3   OH271398   3.438   5.624   0.110  0.2631 -0.5511  0.1824
16636TIP3    H171399   3.424   5.629   0.016  0.9186  0.0394  0.1054
16636TIP3    H271400   3.351   5.620   0.148 -0.0744  0.9460 -0.3626
16637TIP3   OH271401   4.136   4.045   4.087 -0.4594 -0.5572  0.3046
16637TIP3    H171402   4.079   4.046   4.010  0.8159  0.1111 -0.6593
16637TIP3    H271403   4.218   4.085   4.057 -0.0502  0.0240  2.1012
16638TIP3   OH271404   6.603   4.159   4.691 -0.1243  0.5256  0.3943
16638TIP3    H171405   6.531   4.217   4.666 -1.3528 -0.8216  0.6995
16638TIP3    H271406   6.598   4.086   4.630  2.6355  1.5808 -1.2832
16639TIP3   OH271407   2.048   1.309   1.215  0.3031  0.2405  0.1630
16639TIP3    H171408   2.017   1.387   1.261  0.9999  0.2155  0.6903
16639TIP3    H271409   1.971   1.254   1.206 -0.0963  0.7915  0.2016
16640TIP3   OH271410   1.957   4.200   3.056  0.3898 -0.3418 -0.8728
16640TIP3    H171411   1.887   4.140   3.031  0.5107 -1.0674  0.4280
16640TIP3    H271412   2.037   4.152   3.036  0.4871 -0.6672  0.1919
16641TIP3   OH271413   1.219   4.302  11.440 -0.2677 -0.1734  0.2551
16641TIP3    H171414   1.225   4.359  11.517  2.5827  0.6806 -0.4651
16641TIP3    H271415   1.231   4.214  11.476 -3.1551 -0.2665  1.1936
16642TIP3   OH271416   6.459   1.255  11.689 -0.1188  0.0117 -0.0840
16642TIP3    H171417   6.398   1.327  11.668 -1.2671 -1.3866 -1.8632
16642TIP3    H271418   6.544   1.288  11.661 -1.0033 -0.1978 -3.4892
16643TIP3   OH271419   5.449   3.990  15.909  0.2279 -0.3304 -0.5222
16643TIP3    H171420   5.416   3.905  15.936 -0.3594  0.4894  1.5564
16643TIP3    H271421   5.544   3.983  15.918  0.1777 -0.7514 -0.2999
16644TIP3   OH271422   3.657   5.021  16.854 -0.5335  0.4693  0.0687
16644TIP3    H171423   3.579   5.009  16.908  0.2597 -1.0350  0.9637
16644TIP3    H271424   3.719   5.067  16.912 -0.6258  1.3700 -0.5276
16645TIP3   OH271425   1.689   1.819   0.587  0.2283  0.4602 -0.5285
16645TIP3    H171426   1.784   1.811   0.580  0.5324  2.2861  0.7381
16645TIP3    H271427   1.674   1.911   0.607 -1.8910  0.4105 -1.5956
16646TIP3   OH271428   2.328   3.087   1.818  0.5489 -0.3484 -0.0643
16646TIP3    H171429   2.402   3.107   1.761  2.3306 -1.3307  1.8044
16646TIP3    H271430   2.292   3.006   1.783  0.6802 -0.1570 -0.6532
16647TIP3   OH271431   2.438   6.570   0.848  0.1217 -0.4019  0.2833
16647TIP3    H171432   2.453   6.512   0.773  0.7084  2.4029 -1.9795
16647TIP3    H271433   2.345   6.592   0.843  0.1359 -0.3079  0.4424
16648TIP3   OH271434   4.801   5.684   2.447 -0.4692  0.0825 -0.0406
16648TIP3    H171435   4.719   5.693   2.398  1.0514 -0.0887 -2.8411
16648TIP3    H271436   4.832   5.596   2.427  1.6123  0.9995 -1.2573
16649TIP3   OH271437   2.790   2.182   2.231 -0.0489  0.0947 -0.0939
16649TIP3    H171438   2.754   2.184   2.142 -1.5323  1.8339  0.4894
16649TIP3    H271439   2.871   2.231   2.225 -0.6514  1.0918 -0.3139
16650TIP3   OH271440   2.138   4.233   0.971  0.3265  0.0309  0.6751
16650TIP3    H171441   2.105   4.158   0.922 -1.4362 -0.3055  2.3120
16650TIP3    H271442   2.131   4.208   1.063 -2.6300  3.0027  1.4331
16651TIP3   OH271443   3.029   5.237  15.170 -0.3674  0.3004  0.1123
16651TIP3    H171444   3.123   5.252  15.164 -0.4181  0.2830 -0.8766
16651TIP3    H271445   2.990   5.318  15.138 -0.6767 -0.1477 -0.6648
16652TIP3   OH271446   4.480   2.354   5.941 -0.2528 -0.4182  0.2635
16652TIP3    H171447   4.557   2.411   5.938 -0.3932 -0.2388  0.0883
16652TIP3    H271448   4.494   2.299   6.019 -0.0445 -0.2511  0.3448
16653TIP3   OH271449   4.842   3.249   6.032 -0.1971  0.1396  0.3462
16653TIP3    H171450   4.816   3.174   5.978 -1.6991 -0.4132  1.7637
16653TIP3    H271451   4.801   3.324   5.990 -0.0471 -0.0548 -0.1578
16654TIP3   OH271452   1.673   4.503  12.462  0.4564 -0.1444  0.2559
16654TIP3    H171453   1.592   4.546  12.432 -0.1721 -0.1797  1.8196
16654TIP3    H271454   1.736   4.520  12.392 -0.3045  1.7122 -0.0280
16655TIP3   OH271455   5.512   1.295   1.310  0.0347  0.3216 -0.0941
16655TIP3    H171456   5.464   1.249   1.379 -0.5330  0.2900 -0.5094
16655TIP3    H271457   5.541   1.377   1.351 -0.8247  0.5784  0.0044
16656TIP3   OH271458   3.674   0.778   3.952  0.0821  0.3389  0.2782
16656TIP3    H171459   3.719   0.802   4.033  1.6976 -0.7104 -0.2432
16656TIP3    H271460   3.737   0.801   3.883 -0.9440  0.4845 -0.6304
16657TIP3   OH271461   3.191   1.950  15.330  0.1004  0.1895 -0.1260
16657TIP3    H171462   3.197   1.950  15.425  0.3586  1.7787 -0.1129
16657TIP3    H271463   3.134   2.024  15.310  1.9990  1.4297 -1.2836
16658TIP3   OH271464   5.182   2.305  15.090 -0.6036  0.3296  0.1115
16658TIP3    H171465   5.200   2.251  15.167 -0.3792 -0.9912 -0.8334
16658TIP3    H271466   5.089   2.288  15.071 -0.9538  1.4635  0.6665
16659TIP3   OH271467   4.233   0.082  14.938  0.1809 -0.0654 -0.3234
16659TIP3    H171468   4.291   0.092  15.013 -0.1613  0.2881 -0.0994
16659TIP3    H271469   4.198  -0.007  14.946 -0.4940  0.2527  0.4138
16660TIP3   OH271470   0.205   3.209  15.729 -0.0949 -0.5139 -0.4692
16660TIP3    H171471   0.185   3.134  15.786 -1.3976 -1.2172 -1.7626
16660TIP3    H271472   0.260   3.172  15.660  0.5194  0.0683 -0.2946
16661TIP3   OH271473   2.480   2.027  12.250  0.3644 -0.0782  0.3311
16661TIP3    H171474   2.452   1.947  12.205 -0.1138  1.0868 -1.5414
16661TIP3    H271475   2.559   2.055  12.202  0.0586  0.9949  0.4282
16662TIP3   OH271476   2.512   0.853   0.163  0.1560  0.0610  0.3589
16662TIP3    H171477   2.586   0.912   0.176 -0.7183  1.4971 -0.9455
16662TIP3    H271478   2.455   0.868   0.239  0.0328  0.7901  0.1335
16663TIP3   OH271479   5.458   6.572   2.203  0.2251  0.1452 -0.7365
16663TIP3    H171480   5.392   6.600   2.267 -0.4435  0.7071 -1.6395
16663TIP3    H271481   5.469   6.649   2.146  2.1017  0.2654 -0.2642
16664TIP3   OH271482   1.947   5.547   2.514 -0.4428  0.1166  0.0720
16664TIP3    H171483   1.923   5.636   2.488  1.4138  0.5803 -0.2064
16664TIP3    H271484   2.003   5.559   2.591 -0.4583 -0.8483  0.2461
16665TIP3   OH271485   2.979   4.407  10.672  0.3163 -0.1389  0.3194
16665TIP3    H171486   3.049   4.369  10.619 -0.4461 -0.9284 -0.1483
16665TIP3    H271487   2.899   4.366  10.639 -0.4710  1.3654  0.2737
16666TIP3   OH271488   4.218   3.977   6.251  0.4637 -0.1300 -0.2503
16666TIP3    H171489   4.160   4.008   6.320  0.6418 -0.8106  0.2174
16666TIP3    H271490   4.301   3.959   6.295  0.1535 -1.9638 -0.3357
16667TIP3   OH271491   2.375   5.843  13.757  0.1317  0.2323 -0.0228
16667TIP3    H171492   2.321   5.780  13.710 -0.2603 -0.0322  0.7623
16667TIP3    H271493   2.354   5.828  13.849  3.0384 -1.3636  0.5220
16668TIP3   OH271494   5.998   3.709   6.056  0.3801  0.2592 -0.1719
16668TIP3    H171495   5.929   3.698   5.991 -0.9516  2.1227  0.8281
16668TIP3    H271496   5.979   3.644   6.124 -1.9259  2.2294  1.2502
16669TIP3   OH271497   0.511   2.773  11.411 -0.0430 -0.4479  0.2232
16669TIP3    H171498   0.425   2.811  11.391  0.6418  1.2053  0.2814
16669TIP3    H271499   0.501   2.680  11.390 -2.3805 -0.6829  1.9473
16670TIP3   OH271500   5.943   6.118   2.026  0.0053  0.2955 -0.1591
16670TIP3    H171501   5.854   6.124   1.992 -0.0903  1.0960  0.2191
16670TIP3    H271502   5.997   6.162   1.961 -0.0953  1.2609  0.4000
16671TIP3   OH271503   2.152   1.243   3.420 -0.3580  0.0794  0.7086
16671TIP3    H171504   2.191   1.325   3.451  0.4444 -0.3285  0.7772
16671TIP3    H271505   2.201   1.221   3.341  0.2574 -0.9800  1.3671
16672TIP3   OH271506   0.079   5.526   1.285  0.4026  0.4271  0.2067
16672TIP3    H171507   0.064   5.466   1.358  1.3655  1.7698  1.5596
16672TIP3    H271508  -0.002   5.576   1.277  0.6238  0.9342  1.0173
16673TIP3   OH271509   1.568   5.006  15.171  0.3597 -0.0982 -0.4758
16673TIP3    H171510   1.582   4.978  15.081 -0.9864 -1.6417 -0.2502
16673TIP3    H271511   1.473   5.008  15.181  0.4822  0.6874  0.7220
16674TIP3   OH271512   2.386   0.088   2.681  0.2628 -0.3472 -0.3619
16674TIP3    H171513   2.391   0.107   2.588  0.4650 -1.2811 -0.5572
16674TIP3    H271514   2.340   0.004   2.686  1.0013 -0.7297  0.3165
16675TIP3   OH271515   5.493   5.031   3.936 -0.0197  0.2720  0.2921
16675TIP3    H171516   5.492   5.086   4.014 -1.5509 -0.2247  0.6618
16675TIP3    H271517   5.579   4.988   3.938 -0.4024 -0.5298  2.2901
16676TIP3   OH271518   1.033   2.369  14.074  0.0172 -0.2661 -0.3226
16676TIP3    H171519   1.033   2.277  14.048 -0.9444 -0.3156 -0.1647
16676TIP3    H271520   1.069   2.369  14.162  0.3133 -0.4505 -0.4395
16677TIP3   OH271521   2.681   3.289  12.190 -0.4365  0.2152 -0.2068
16677TIP3    H171522   2.598   3.327  12.159 -1.1780  0.1409  1.5601
16677TIP3    H271523   2.660   3.197  12.204  0.7398 -0.4245 -2.3516
16678TIP3   OH271524   3.799   3.070   6.701  0.2286 -0.2395  0.1924
16678TIP3    H171525   3.803   3.052   6.608  0.3107 -1.8163  0.4773
16678TIP3    H271526   3.889   3.087   6.727  0.1281  0.8518 -0.1091
16679TIP3   OH271527   0.335   5.706   1.342  0.2027  0.1224 -0.5279
16679TIP3    H171528   0.248   5.665   1.335  1.0628 -2.0406  0.3957
16679TIP3    H271529   0.350   5.716   1.436  0.2216  2.2983 -0.7113
16680TIP3   OH271530   1.589   6.710   5.817 -0.2120 -0.2682 -0.7298
16680TIP3    H171531   1.522   6.766   5.858 -0.0273 -0.2799 -0.4049
16680TIP3    H271532   1.667   6.723   5.871  0.4055  0.6820 -1.8089
16681TIP3   OH271533   4.336   1.103  12.447  0.0257  0.0614 -0.0160
16681TIP3    H171534   4.322   1.012  12.421  0.2999 -0.2070  0.7588
16681TIP3    H271535   4.417   1.102  12.497  1.7815  1.2584 -2.6590
16682TIP3   OH271536   1.118   1.994   0.032 -0.4388 -0.0182 -0.4163
16682TIP3    H171537   1.148   1.986   0.123 -1.1929  1.1447 -0.0460
16682TIP3    H271538   1.057   1.921   0.021 -0.8087  0.1896  0.2072
16683TIP3   OH271539   6.428   4.843  10.426  0.1129  0.7497  0.6227
16683TIP3    H171540   6.499   4.805  10.478  0.3061  0.5173  0.2018
16683TIP3    H271541   6.348   4.808  10.465  0.3214 -1.1381 -0.5178
16684TIP3   OH271542   3.614   3.481   0.696  0.2056  0.7259 -0.2404
16684TIP3    H171543   3.683   3.522   0.749  0.1149  0.3887  0.1313
16684TIP3    H271544   3.534   3.494   0.746  0.3138 -0.7419  0.3341
16685TIP3   OH271545   5.779   3.073   4.677 -0.0904 -0.1405 -0.9424
16685TIP3    H171546   5.753   2.996   4.626  1.3986 -1.5767  0.3683
16685TIP3    H271547   5.874   3.074   4.673 -0.0587  1.2442 -0.3429
16686TIP3   OH271548   4.255   3.980  14.234  0.0194 -0.7623 -1.0338
16686TIP3    H171549   4.269   3.901  14.286  2.6037  0.4815  0.3247
16686TIP3    H271550   4.327   3.981  14.171  0.8512  1.1335 -0.1380
16687TIP3   OH271551   3.696   2.810  13.168 -0.1516  0.7391 -0.1156
16687TIP3    H171552   3.727   2.765  13.090  0.6971 -0.3151  0.7938
16687TIP3    H271553   3.602   2.824  13.152 -0.4109 -1.2080 -0.5256
16688TIP3   OH271554   5.163   2.914  14.602 -0.2827  0.9220 -0.1676
16688TIP3    H171555   5.215   2.972  14.547  0.7266  1.6593  1.4846
16688TIP3    H271556   5.185   2.939  14.692 -0.6534 -1.2903  0.6140
16689TIP3   OH271557   4.213   0.406  15.163  0.1351 -0.2520 -0.3170
16689TIP3    H171558   4.217   0.373  15.073  0.5438  0.6382 -0.6344
16689TIP3    H271559   4.163   0.487  15.157  2.0903  1.0244 -0.1488
16690TIP3   OH271560   3.422   3.895   5.574 -0.0890  0.0950  0.5353
16690TIP3    H171561   3.475   3.834   5.523 -1.9833 -0.3784 -0.9828
16690TIP3    H271562   3.486   3.953   5.616  1.6430 -1.1608 -0.2407
16691TIP3   OH271563   5.151   5.060   4.495 -0.1121  0.5340  0.3073
16691TIP3    H171564   5.242   5.032   4.484 -0.3874 -1.2875  2.0535
16691TIP3    H271565   5.114   5.056   4.407  0.9463 -0.8991 -0.1132
16692TIP3   OH271566   3.144   2.135   2.726 -0.0705 -0.7924  0.0757
16692TIP3    H171567   3.159   2.045   2.755  0.3252 -0.4864  0.8313
16692TIP3    H271568   3.051   2.138   2.707  0.2485 -1.9795 -2.1347
16693TIP3   OH271569   5.355   2.374   1.865  0.0497  0.5793 -0.3322
16693TIP3    H171570   5.323   2.438   1.801  0.4867 -0.1030 -1.2577
16693TIP3    H271571   5.281   2.360   1.924 -0.1835  1.6344 -0.3491
16694TIP3   OH271572   5.756   3.968   5.101  0.7272  0.8528 -0.2621
16694TIP3    H171573   5.716   3.923   5.175 -0.6554  0.9958 -0.8971
16694TIP3    H271574   5.845   3.988   5.131  1.0987 -1.4390  0.3703
16695TIP3   OH271575   1.550   3.244   2.516 -0.2102 -0.0708  0.6538
16695TIP3    H171576   1.541   3.291   2.433 -1.0861  0.4645  1.0525
16695TIP3    H271577   1.473   3.188   2.520  0.7718 -1.5125  0.2251
16696TIP3   OH271578   6.557   1.220  12.111 -0.3389  0.0802  0.5393
16696TIP3    H171579   6.505   1.299  12.095  1.2996  0.8117 -1.6133
16696TIP3    H271580   6.501   1.149  12.078 -1.0507  0.5406  0.7138
16697TIP3   OH271581   2.453   2.964  15.129  0.6928 -0.6398 -0.4249
16697TIP3    H171582   2.396   2.889  15.108  0.3227 -0.3577 -0.4477
16697TIP3    H271583   2.422   2.994  15.214  0.9333 -0.5987 -0.3521
16698TIP3   OH271584   1.086   6.602  13.357  0.3221 -0.0445 -0.0410
16698TIP3    H171585   1.005   6.607  13.408 -0.2005 -2.2212 -0.5485
16698TIP3    H271586   1.143   6.546  13.409  0.8346  0.0226 -0.5343
16699TIP3   OH271587   6.673   0.078   2.534  0.0058  0.7915  0.2597
16699TIP3    H171588   6.667   0.156   2.480  2.6770  2.2236  1.8060
16699TIP3    H271589   6.611   0.091   2.605 -0.0872  1.1567  0.1087
16700TIP3   OH271590   2.331   6.185   3.977 -0.3555  0.0380  0.2494
16700TIP3    H171591   2.298   6.123   4.042 -0.0304 -0.5173 -0.1092
16700TIP3    H271592   2.342   6.267   4.026 -1.1202 -0.0863  0.6454
16701TIP3   OH271593   6.733   6.197   6.032 -0.8987 -0.1446 -0.2808
16701TIP3    H171594   6.769   6.124   6.082  0.2282 -0.3109 -1.2890
16701TIP3    H271595   6.759   6.275   6.080  1.0560 -0.2516 -1.0845
16702TIP3   OH271596   0.794   6.264  17.090 -0.0654 -0.0011 -0.4944
16702TIP3    H171597   0.828   6.312  17.165  0.4580 -0.5434 -0.3664
16702TIP3    H271598   0.734   6.324  17.047  1.9952  1.5019 -1.4372
16703TIP3   OH271599   4.288   1.381  12.047  0.1637 -0.2079  0.0927
16703TIP3    H171600   4.246   1.299  12.072 -0.2606  0.0648  0.2769
16703TIP3    H271601   4.314   1.367  11.956  0.6090 -0.7523  0.2973
16704TIP3   OH271602   2.133   6.456  17.182 -0.3699 -0.0197  0.6101
16704TIP3    H171603   2.045   6.420  17.172 -0.2243 -0.1446 -0.3494
16704TIP3    H271604   2.153   6.495  17.096  0.8037 -0.6921  0.5553
16705TIP3   OH271605   4.606   0.992  14.366 -0.1912 -0.0781 -0.4984
16705TIP3    H171606   4.605   0.936  14.444  1.4689  1.1207  0.4517
16705TIP3    H271607   4.514   1.000  14.342 -0.9137  0.4876  2.1030
16706TIP3   OH271608   0.333   0.225  13.680 -0.1049 -0.2811 -0.1982
16706TIP3    H171609   0.367   0.257  13.597  1.1554 -1.4001 -0.1324
16706TIP3    H271610   0.408   0.183  13.723 -0.7806  0.0426  1.3974
16707TIP3   OH271611   4.225   3.559   4.199  0.2966  0.6961 -0.5563
16707TIP3    H171612   4.238   3.653   4.207  0.2352  0.8310 -1.8910
16707TIP3    H271613   4.312   3.521   4.211  0.2186  0.8511  0.6475
16708TIP3   OH271614   0.661   1.185  15.800  0.4380 -0.8011  0.7359
16708TIP3    H171615   0.750   1.216  15.815  0.1455  0.5260 -0.0418
16708TIP3    H271616   0.646   1.201  15.706 -1.2302  0.7361  1.2114
16709TIP3   OH271617   0.651   2.902  14.610 -0.3424 -0.0647 -0.1304
16709TIP3    H171618   0.746   2.911  14.609 -0.3106 -0.2617 -1.3609
16709TIP3    H271619   0.619   2.976  14.660  0.5309 -1.0550  1.9981
16710TIP3   OH271620   4.404   4.173   1.905  0.2988  0.2989  0.5444
16710TIP3    H171621   4.462   4.237   1.944 -0.2134  1.7860 -1.0069
16710TIP3    H271622   4.317   4.194   1.939  0.1856  0.1918  0.3290
16711TIP3   OH271623   2.196   0.340   0.188  0.2988  0.1649 -0.1422
16711TIP3    H171624   2.259   0.409   0.211 -0.7856  0.9204  0.6690
16711TIP3    H271625   2.240   0.289   0.121  1.7412  0.7328  0.3273
16712TIP3   OH271626   2.461   3.243  16.633 -0.0290  0.1951  0.0344
16712TIP3    H171627   2.518   3.297  16.579 -1.1363  2.6324  1.1270
16712TIP3    H271628   2.435   3.171  16.576 -0.3137  2.0560 -2.3654
16713TIP3   OH271629   0.555   1.227  16.981 -0.4922  0.5486  0.0883
16713TIP3    H171630   0.550   1.321  16.965 -2.9811  0.5633  0.6248
16713TIP3    H271631   0.474   1.206  17.027  1.0339 -1.4841  2.0654
16714TIP3   OH271632   4.797   5.292  17.234 -0.1742 -0.3777 -0.4109
16714TIP3    H171633   4.845   5.356  17.287  0.2920 -0.0549 -1.1987
16714TIP3    H271634   4.707   5.325  17.232  0.3346  1.0932 -2.0027
16715TIP3   OH271635   2.870   6.148   3.558  0.6906 -0.1350 -0.2494
16715TIP3    H171636   2.942   6.209   3.541  0.2196  0.2991 -0.7394
16715TIP3    H271637   2.893   6.106   3.641  0.9645  0.7977  0.1558
16716TIP3   OH271638   2.689   1.208  10.575  0.7897 -0.2402 -0.2365
16716TIP3    H171639   2.616   1.200  10.637  1.8532 -0.3942  1.0637
16716TIP3    H271640   2.648   1.210  10.489 -0.6432 -2.7450  0.2743
16717TIP3   OH271641   2.405   0.682  15.179 -0.0385  0.4300 -0.4702
16717TIP3    H171642   2.325   0.734  15.182 -0.5479 -0.3551  1.8622
16717TIP3    H271643   2.474   0.743  15.206 -0.5559  0.1425  1.7353
16718TIP3   OH271644   0.012   5.927  15.552 -0.1393 -0.1132 -0.3087
16718TIP3    H171645   0.038   5.849  15.602 -0.5091 -0.3388 -0.4662
16718TIP3    H271646   0.053   6.000  15.599  1.7992 -0.5398 -1.2085
16719TIP3   OH271647   2.339   0.255  11.365 -0.0169  0.1800  0.1370
16719TIP3    H171648   2.358   0.163  11.346 -1.6920 -0.0427 -0.7371
16719TIP3    H271649   2.404   0.304  11.315 -0.4270 -0.5353 -1.1505
16720TIP3   OH271650   5.762   5.013  13.073 -0.1266 -0.0887 -0.0526
16720TIP3    H171651   5.836   5.013  13.133  0.3520  1.0249 -0.6119
16720TIP3    H271652   5.789   4.956  13.001 -0.7420 -1.5085  0.7968
16721TIP3   OH271653   4.009   1.548  11.693 -0.5098  0.2996 -0.0464
16721TIP3    H171654   4.032   1.469  11.741 -0.8981  0.5363  0.5389
16721TIP3    H271655   3.978   1.516  11.608 -1.8254 -0.2810  0.6113
16722TIP3   OH271656   4.826   0.999  10.746  1.1167 -0.0518  0.2229
16722TIP3    H171657   4.847   1.015  10.654 -0.7037  1.2622 -0.0243
16722TIP3    H271658   4.859   1.077  10.792 -1.7311  1.4435 -0.0067
16723TIP3   OH271659   3.872   0.865  17.148  0.8023  0.3203  0.0597
16723TIP3    H171660   3.959   0.836  17.177  0.1143 -2.5268 -0.4331
16723TIP3    H271661   3.833   0.905  17.225  1.4526 -1.1027  1.1697
16724TIP3   OH271662   2.445   5.726  13.079 -0.1155  0.5111  0.0396
16724TIP3    H171663   2.456   5.821  13.083 -0.7036  0.6362 -0.8924
16724TIP3    H271664   2.405   5.703  13.163 -0.1260  1.1172  0.2075
16725TIP3   OH271665   0.787   5.122   2.122 -0.4728 -0.2130 -0.5526
16725TIP3    H171666   0.752   5.167   2.045 -0.0175  0.8932 -0.1328
16725TIP3    H271667   0.712   5.078   2.161 -0.3516 -2.7971 -2.9020
16726TIP3   OH271668   2.004   3.196  13.005  0.1705  0.1746 -0.0109
16726TIP3    H171669   2.097   3.216  12.990  0.0975 -0.2702 -1.2174
16726TIP3    H271670   1.961   3.282  13.001  0.3489  0.2367 -1.0718
16727TIP3   OH271671   3.242   3.925   6.032  0.0015  0.5707  0.2261
16727TIP3    H171672   3.331   3.943   6.003  0.0026  0.8314  0.3859
16727TIP3    H271673   3.205   3.869   5.963  0.2452  0.5705  0.0957
16728TIP3   OH271674   0.250   2.261   2.158  0.4269  0.6207 -0.4100
16728TIP3    H171675   0.328   2.266   2.102  0.7712 -1.2637 -0.1693
16728TIP3    H271676   0.256   2.175   2.200 -3.5488 -1.2924 -3.1007
16729TIP3   OH271677   5.333   0.407   5.704 -0.0222 -0.3222 -0.0621
16729TIP3    H171678   5.381   0.350   5.644  0.9177  0.6371 -0.2517
16729TIP3    H271679   5.381   0.399   5.787 -0.5601 -0.6671  0.2175
16730TIP3   OH271680   1.832   5.407  12.566  0.2422 -0.1886 -0.5692
16730TIP3    H171681   1.805   5.445  12.650 -0.4252 -1.9052  0.0381
16730TIP3    H271682   1.750   5.401  12.516  0.5414  0.2650 -1.1275
16731TIP3   OH271683   4.478   1.717  13.241  0.1749  0.5264  0.1571
16731TIP3    H171684   4.565   1.757  13.234  1.5198 -2.0469  0.7957
16731TIP3    H271685   4.473   1.659  13.165 -0.9455  0.5293  0.2211
16732TIP3   OH271686   4.862   0.463   2.577 -0.2362  0.0553  0.9501
16732TIP3    H171687   4.908   0.388   2.540 -1.7096 -0.6858  0.5788
16732TIP3    H271688   4.857   0.527   2.506 -0.1049 -0.0069  0.8859
16733TIP3   OH271689   6.806   0.744  13.241  0.4656 -0.6352  0.0338
16733TIP3    H171690   6.752   0.790  13.306 -0.6832 -1.6392 -0.1712
16733TIP3    H271691   6.788   0.651  13.257  1.5620 -0.9628 -0.5559
16734TIP3   OH271692   1.333   5.654   6.182 -0.3974 -0.2682  0.2448
16734TIP3    H171693   1.422   5.674   6.210 -0.4333  1.2045 -0.5899
16734TIP3    H271694   1.278   5.716   6.230 -0.5230  1.8183 -2.3126
16735TIP3   OH271695   3.632   4.232  11.710 -0.2732 -0.1342  0.3788
16735TIP3    H171696   3.654   4.321  11.737  2.2043 -0.4062 -0.4924
16735TIP3    H271697   3.668   4.177  11.780  2.1506 -0.6014 -1.1205
16736TIP3   OH271698   2.271   6.535   4.973  0.2026  0.3391  0.0654
16736TIP3    H171699   2.365   6.522   4.969  0.2858  0.8770  0.1536
16736TIP3    H271700   2.258   6.590   5.051 -0.2525 -0.3287  0.4731
16737TIP3   OH271701   5.903   2.507   0.609 -0.0422  0.0498 -0.0338
16737TIP3    H171702   5.808   2.495   0.614 -0.1412  1.0917  1.2438
16737TIP3    H271703   5.914   2.594   0.570  0.4092 -0.2744 -0.6474
16738TIP3   OH271704   3.515   2.025   6.400  0.4343 -0.2384 -0.3723
16738TIP3    H171705   3.517   2.106   6.349 -1.6161 -1.3489 -2.3572
16738TIP3    H271706   3.438   2.034   6.456  0.2578 -0.7708 -0.5281
16739TIP3   OH271707   0.762   5.802  13.493  0.6386  0.0606  0.3547
16739TIP3    H171708   0.801   5.795  13.407 -1.3962  0.3870 -0.6617
16739TIP3    H271709   0.671   5.773  13.481 -0.7187  3.2852  1.5734
16740TIP3   OH271710   4.286   2.296  13.716 -0.1768 -0.1756  0.2871
16740TIP3    H171711   4.292   2.213  13.668 -0.5078 -1.0064  1.6323
16740TIP3    H271712   4.219   2.346  13.670 -0.2019 -0.7774 -0.3447
16741TIP3   OH271713   1.869   6.432   5.520 -0.7736  0.0138 -0.0626
16741TIP3    H171714   1.935   6.483   5.568  0.2224  1.0719 -2.3985
16741TIP3    H271715   1.787   6.480   5.534 -0.7007 -0.2080  1.2593
16742TIP3   OH271716   1.085   0.284  15.590  0.1578  0.1800 -0.3721
16742TIP3    H171717   1.004   0.330  15.611  1.0918  1.7036 -0.0041
16742TIP3    H271718   1.104   0.308  15.499 -0.0895 -0.6682 -0.6670
16743TIP3   OH271719   0.378   4.779  17.253 -0.2024  0.0370  0.6353
16743TIP3    H171720   0.308   4.727  17.215  0.5062 -2.0732  2.0830
16743TIP3    H271721   0.363   4.776  17.347  1.7901 -0.4424  0.9875
16744TIP3   OH271722   4.534   2.530  14.530 -0.4147 -0.5885  0.1165
16744TIP3    H171723   4.585   2.504  14.454  0.5413  1.7283 -0.1170
16744TIP3    H271724   4.592   2.588  14.580 -1.7841 -0.2688  1.4352
16745TIP3   OH271725   6.246   3.611   1.205 -0.9634  0.1507  0.6382
16745TIP3    H171726   6.166   3.578   1.163 -1.7043  1.1826  1.1984
16745TIP3    H271727   6.250   3.703   1.179 -0.0559  0.1555  0.7833
16746TIP3   OH271728   6.789   0.560  14.300  0.2616 -0.1447 -0.2653
16746TIP3    H171729   6.758   0.527  14.385 -1.8481  2.1173 -0.0417
16746TIP3    H271730   6.739   0.510  14.235 -0.6953  0.4697 -0.0267
16747TIP3   OH271731   0.480   2.120  12.224 -0.2280 -0.8330 -0.2635
16747TIP3    H171732   0.530   2.198  12.199 -2.3012  0.2209 -1.4029
16747TIP3    H271733   0.466   2.073  12.141 -1.5405 -0.8166 -0.0742
16748TIP3   OH271734   3.178   1.663  10.415 -0.3996  0.2086 -0.0324
16748TIP3    H171735   3.180   1.568  10.427  3.9965  0.0917 -0.0711
16748TIP3    H271736   3.198   1.699  10.501  0.1712  0.9703 -0.4697
16749TIP3   OH271737   5.378   5.099   5.339 -0.1684  0.1216 -0.0486
16749TIP3    H171738   5.380   5.043   5.417 -1.7295 -0.8575 -0.6803
16749TIP3    H271739   5.461   5.081   5.295  0.6521  0.5443  1.2588
16750TIP3   OH271740   2.598   5.108   4.886 -0.8702  0.9613 -0.4659
16750TIP3    H171741   2.578   5.032   4.831  0.1717  0.1828  0.1884
16750TIP3    H271742   2.631   5.174   4.824 -1.5300  0.7962 -1.0041
16751TIP3   OH271743   1.492   3.479   6.122 -0.9088  0.3585 -0.6576
16751TIP3    H171744   1.553   3.522   6.063 -1.6721 -0.0032 -1.7479
16751TIP3    H271745   1.531   3.488   6.209  1.0080 -0.4312 -1.3951
16752TIP3   OH271746   5.792   3.864  15.184 -0.2531  0.3676  0.3550
16752TIP3    H171747   5.807   3.810  15.107  0.8731  1.4450 -0.2148
16752TIP3    H271748   5.879   3.877  15.222 -0.5181  1.5995  0.5944
16753TIP3   OH271749   3.664   2.224   4.975  0.2893 -0.3792  0.0064
16753TIP3    H171750   3.696   2.170   5.047 -0.2539 -0.3514  0.2782
16753TIP3    H271751   3.625   2.300   5.019  2.3589  0.9803 -0.4130
16754TIP3   OH271752   4.826   3.925  16.827  0.6196 -0.1850  0.1226
16754TIP3    H171753   4.794   3.970  16.905  1.2023  0.4121  0.0327
16754TIP3    H271754   4.880   3.854  16.861 -2.4795 -2.6163  0.3295
16755TIP3   OH271755   0.298   3.840   0.179 -0.2486 -0.6837  0.6516
16755TIP3    H171756   0.262   3.910   0.234 -2.2090 -0.9592 -0.2078
16755TIP3    H271757   0.392   3.859   0.176 -0.7535  2.2176  0.0480
16756TIP3   OH271758   4.980   0.923   0.747 -0.0065 -0.3595 -0.0201
16756TIP3    H171759   4.951   0.832   0.746  0.0586 -0.3814 -1.2952
16756TIP3    H271760   5.045   0.928   0.678 -0.6719  0.8610 -0.5862
16757TIP3   OH271761   3.899   4.186   2.642  0.4477 -0.0720 -0.2237
16757TIP3    H171762   3.831   4.247   2.611  0.1132 -0.2820  0.0871
16757TIP3    H271763   3.895   4.113   2.580  0.8054  0.1926 -0.5595
16758TIP3   OH271764   1.038   2.216  12.270 -0.3827  0.4099  1.0066
16758TIP3    H171765   1.065   2.303  12.300 -1.1182  0.7365  0.7214
16758TIP3    H271766   1.047   2.161  12.348  0.6409  0.6098  1.0440
16759TIP3   OH271767   0.301   3.291  14.060  0.2512 -0.1447 -0.3486
16759TIP3    H171768   0.358   3.331  13.994  0.4124 -0.1453 -0.2128
16759TIP3    H271769   0.255   3.221  14.014 -0.2455  0.3805 -0.6610
16760TIP3   OH271770   4.956   1.590   1.452  0.2973  0.0880 -0.4335
16760TIP3    H171771   4.866   1.559   1.455  0.2860  0.0741 -0.8624
16760TIP3    H271772   4.960   1.659   1.518  0.8620 -2.1799  2.1047
16761TIP3   OH271773   6.351   0.949   2.745 -0.2025  0.1550  0.4560
16761TIP3    H171774   6.294   0.942   2.669 -0.6414  0.7143  0.7305
16761TIP3    H271775   6.291   0.956   2.819  0.2241  1.0656  0.7213
16762TIP3   OH271776   2.122   1.804  11.898  0.5226  0.0040 -0.3895
16762TIP3    H171777   2.182   1.782  11.827 -0.4330 -1.2883 -0.8369
16762TIP3    H271778   2.080   1.721  11.920  0.8709  0.3425  1.7858
16763TIP3   OH271779   5.155   5.195   3.719  0.0317  0.7126  0.9116
16763TIP3    H171780   5.079   5.253   3.729 -1.4323 -0.2927 -2.5642
16763TIP3    H271781   5.230   5.253   3.724 -1.1387  2.2628  1.4597
16764TIP3   OH271782   1.754   0.699  11.783  0.2249  0.2874 -0.4359
16764TIP3    H171783   1.815   0.771  11.769 -0.3920  1.0440  0.5752
16764TIP3    H271784   1.668   0.742  11.791 -0.2753 -0.6432 -0.7042
16765TIP3   OH271785   2.757   1.242   5.051  0.1063  0.6553  0.0966
16765TIP3    H171786   2.668   1.212   5.032 -0.0739  1.5624 -0.5544
16765TIP3    H271787   2.802   1.237   4.967  0.4332  0.9829  0.2486
16766TIP3   OH271788   2.652   5.622  17.028 -0.0887  0.2316  0.3485
16766TIP3    H171789   2.580   5.604  16.968 -0.9027  0.4734  1.2132
16766TIP3    H271790   2.711   5.547  17.018 -0.5479 -0.0596 -0.2503
16767TIP3   OH271791   0.891   5.975  14.875 -0.7318 -0.0214 -0.1037
16767TIP3    H171792   0.809   6.017  14.900 -1.0576  0.9003 -2.4709
16767TIP3    H271793   0.866   5.886  14.848 -0.8053 -0.0449  0.0419
16768TIP3   OH271794   6.324   2.102   4.329 -0.1912 -0.2357 -0.1974
16768TIP3    H171795   6.314   2.011   4.302 -0.4130  0.2787 -1.9517
16768TIP3    H271796   6.419   2.115   4.337 -0.1811 -0.7858  0.7555
16769TIP3   OH271797   0.613   2.026   2.935 -0.4265  0.2621 -0.2475
16769TIP3    H171798   0.609   2.115   2.971 -0.4766  1.0101 -1.9778
16769TIP3    H271799   0.701   1.995   2.957 -0.3510  0.8133  0.2407
16770TIP3   OH271800   6.217   2.271  13.495  0.2612 -0.3310  0.3646
16770TIP3    H171801   6.268   2.242  13.420 -1.3389 -0.2362 -0.8227
16770TIP3    H271802   6.168   2.347  13.463  0.6078  0.6037  1.9416
16771TIP3   OH271803   2.063   1.132   0.178  1.0705 -0.2869 -0.1971
16771TIP3    H171804   1.971   1.111   0.192  0.2510  3.1469  0.4936
16771TIP3    H271805   2.109   1.083   0.246 -0.5895 -0.0658  1.1586
16772TIP3   OH271806   3.118   0.655   4.412  0.2345  0.5264 -0.0733
16772TIP3    H171807   3.029   0.688   4.408 -0.2551 -0.2793  2.2471
16772TIP3    H271808   3.108   0.563   4.437  1.6898  0.1240 -0.8491
16773TIP3   OH271809   5.403   4.264   2.871  0.7898  0.1305  0.4640
16773TIP3    H171810   5.481   4.292   2.920  1.5581 -0.4028 -0.4179
16773TIP3    H271811   5.345   4.226   2.938  1.4425  0.2021  1.0836
16774TIP3   OH271812   4.249   2.995  11.000 -0.1430  0.0855  0.0911
16774TIP3    H171813   4.333   2.952  11.017 -0.3682 -0.0406  0.9513
16774TIP3    H271814   4.227   3.038  11.083 -1.0580 -0.1195 -0.0345
16775TIP3   OH271815   4.700   0.120  17.221 -0.4560 -0.2549 -0.1832
16775TIP3    H171816   4.773   0.058  17.214 -0.2031 -0.1506  1.3019
16775TIP3    H271817   4.664   0.105  17.308 -1.3916  0.6011 -0.4070
16776TIP3   OH271818   5.748   0.232   2.465 -0.3616  0.3248  0.3611
16776TIP3    H171819   5.660   0.249   2.499 -0.8930 -2.4131  0.5920
16776TIP3    H271820   5.806   0.272   2.529 -1.4156  1.6854  0.5153
16777TIP3   OH271821   4.123   4.250   4.354 -0.1484  0.0544 -0.5102
16777TIP3    H171822   4.085   4.200   4.282 -0.4545 -0.8875  0.2799
16777TIP3    H271823   4.122   4.341   4.324 -0.6398 -0.2769 -1.5242
16778TIP3   OH271824   1.057   6.638   5.763  0.1946  0.2063 -0.0444
16778TIP3    H171825   1.145   6.622   5.798 -0.1354 -0.1339  0.6513
16778TIP3    H271826   1.031   6.722   5.800  0.4530  0.5987 -0.7284
16779TIP3   OH271827   0.406   1.215   0.889  0.8310 -0.0298  0.1828
16779TIP3    H171828   0.360   1.279   0.943 -1.2740 -1.9036  0.7580
16779TIP3    H271829   0.447   1.156   0.951  1.5832 -0.0695 -0.3325
16780TIP3   OH271830   5.953   3.975   5.278  0.1341  1.6435  0.3811
16780TIP3    H171831   5.942   3.896   5.331  2.8096  1.5564  0.9693
16780TIP3    H271832   6.045   3.973   5.251 -0.1855  3.6526 -1.0960
16781TIP3   OH271833   2.846   5.534   2.708 -0.4838  0.2109 -0.0571
16781TIP3    H171834   2.769   5.523   2.651  0.0094  0.4303 -0.7829
16781TIP3    H271835   2.908   5.467   2.677 -0.6891 -0.5431  1.0818
16782TIP3   OH271836   3.145   5.135   2.496  0.3732 -0.1367  0.8601
16782TIP3    H171837   3.106   5.075   2.561 -1.0516  0.6771  0.8002
16782TIP3    H271838   3.102   5.112   2.414  2.1027 -1.0983  0.1662
16783TIP3   OH271839   4.056   2.621  17.024  0.4266 -0.1932 -0.4473
16783TIP3    H171840   4.127   2.682  17.045  0.6454 -0.0744 -1.4806
16783TIP3    H271841   4.066   2.550  17.087  0.2960  0.7352  0.6440
16784TIP3   OH271842   0.661   0.720   0.181  0.2987 -0.4934 -0.3982
16784TIP3    H171843   0.639   0.676   0.264 -0.7530  0.7448  0.0084
16784TIP3    H271844   0.710   0.654   0.132 -0.8637 -1.9989  0.3559
16785TIP3   OH271845   0.248   3.320   6.320  0.4336 -0.3047  0.0583
16785TIP3    H171846   0.249   3.351   6.410  1.7648 -0.4469  0.1039
16785TIP3    H271847   0.317   3.254   6.316 -1.3156 -2.2364 -0.4028
16786TIP3   OH271848   2.001   5.763  14.612  0.0196 -0.2972  0.4070
16786TIP3    H171849   1.927   5.718  14.572 -0.3821  0.0277  0.7912
16786TIP3    H271850   2.061   5.692  14.636 -0.4470 -0.6083  0.6727
16787TIP3   OH271851   6.029   6.428   4.019  0.7389 -0.3139  0.1162
16787TIP3    H171852   5.986   6.376   3.952 -1.8949 -1.0116  2.1740
16787TIP3    H271853   6.109   6.379   4.040  2.5532  0.7518 -3.4417
16788TIP3   OH271854   1.141   1.793   2.367  0.2585  0.0435 -0.0153
16788TIP3    H171855   1.128   1.729   2.297  0.3079  0.6079 -0.5477
16788TIP3    H271856   1.189   1.745   2.435  1.4189 -0.1397 -0.9391
16789TIP3   OH271857   5.543   6.679  16.646 -0.2284  0.0974 -0.2455
16789TIP3    H171858   5.613   6.620  16.617 -0.0320 -0.0469  0.4839
16789TIP3    H271859   5.492   6.697  16.568 -0.6326 -1.4964 -0.3804
16790TIP3   OH271860   0.379   5.107  12.558  0.2716  0.1653  0.3667
16790TIP3    H171861   0.295   5.139  12.592  0.3716  0.3394  0.4516
16790TIP3    H271862   0.368   5.012  12.551 -0.1472  0.2565 -0.2180
16791TIP3   OH271863   5.408   0.525   3.268 -0.4712 -0.2361 -0.4869
16791TIP3    H171864   5.389   0.510   3.176 -0.2212 -1.1553 -0.3977
16791TIP3    H271865   5.501   0.550   3.270 -0.6722  0.5263 -0.5542
16792TIP3   OH271866   2.089   1.201   5.220  0.1394 -0.2735  0.1517
16792TIP3    H171867   1.998   1.169   5.217  0.0602  0.0087 -2.5003
16792TIP3    H271868   2.082   1.289   5.257 -0.8764  0.2218 -1.1130
16793TIP3   OH271869   3.553   1.794   6.294  0.5801  0.2120  0.1893
16793TIP3    H171870   3.554   1.751   6.380  3.0502  1.9807  1.1788
16793TIP3    H271871   3.524   1.884   6.313 -0.3655  0.2041 -1.1167
16794TIP3   OH271872   0.630   5.852   3.622 -0.0594 -0.1228  0.3370
16794TIP3    H171873   0.697   5.904   3.666 -0.3742  1.1799 -0.6817
16794TIP3    H271874   0.677   5.774   3.592  0.7615  0.2770  0.5525
16795TIP3   OH271875   5.570   3.425   3.699 -0.2693  0.1963 -0.2932
16795TIP3    H171876   5.591   3.469   3.782  0.1533  0.2818 -0.4406
16795TIP3    H271877   5.642   3.363   3.686 -1.2654 -1.1172  0.3045
16796TIP3   OH271878   0.565   3.256   4.715  0.1839 -0.4066  0.6919
16796TIP3    H171879   0.511   3.227   4.789 -0.5579 -2.3656 -0.5332
16796TIP3    H271880   0.528   3.211   4.639  2.1284  0.0061 -0.5770
16797TIP3   OH271881   2.989   4.655  13.438  0.1403  0.2656  0.0077
16797TIP3    H171882   3.048   4.618  13.503  0.7932  1.0643 -0.1204
16797TIP3    H271883   2.976   4.745  13.466  0.6911  0.7219 -1.1389
16798TIP3   OH271884   5.042   1.030  12.429 -0.4029  0.0274  0.5092
16798TIP3    H171885   4.991   1.064  12.355 -1.7960  2.4408  2.4256
16798TIP3    H271886   5.102   1.101  12.451  0.6793 -1.0403  1.1292
16799TIP3   OH271887   3.680   4.026  12.775  0.2438  0.3026 -0.3458
16799TIP3    H171888   3.681   3.987  12.688  1.6381 -1.4470  0.3806
16799TIP3    H271889   3.772   4.023  12.803  0.0581  2.1817  0.6256
16800TIP3   OH271890   5.109   5.592   2.840  0.1957  0.6705  0.4380
16800TIP3    H171891   5.179   5.531   2.818  1.4877  2.1321  0.3957
16800TIP3    H271892   5.098   5.645   2.761 -0.5111  0.8918  0.6759
16801TIP3   OH271893   1.388   3.455   0.701 -0.2560 -0.1268  0.0871
16801TIP3    H171894   1.482   3.446   0.692 -0.4218 -1.7349 -0.2365
16801TIP3    H271895   1.372   3.549   0.690  1.1596 -0.0049 -1.1986
16802TIP3   OH271896   3.330   0.951   3.480  0.0486 -0.8099 -0.5401
16802TIP3    H171897   3.266   0.959   3.550 -0.5532  1.0982 -1.2282
16802TIP3    H271898   3.278   0.933   3.402  0.6533 -2.2771 -0.6328
16803TIP3   OH271899   5.198   2.597  13.260  0.0363 -0.4587 -0.0666
16803TIP3    H171900   5.144   2.634  13.191 -1.0662  0.2222  1.1074
16803TIP3    H271901   5.248   2.671  13.294  0.5698 -0.7856 -0.1236
16804TIP3   OH271902   5.620   1.129   0.176  0.4375 -0.1390 -0.0366
16804TIP3    H171903   5.596   1.120   0.084  0.5776  1.1499 -0.2115
16804TIP3    H271904   5.630   1.038   0.207 -1.2793 -0.6414 -0.8298
16805TIP3   OH271905   3.721   5.506  15.303 -0.4636 -0.0920  0.8017
16805TIP3    H171906   3.723   5.460  15.387  0.1050 -1.1140  0.2511
16805TIP3    H271907   3.721   5.599  15.326  1.8838 -0.3032  1.9445
16806TIP3   OH271908   2.417   5.905   2.146 -0.1956 -0.2650 -0.3870
16806TIP3    H171909   2.346   5.967   2.131 -1.2857 -1.3457  0.1832
16806TIP3    H271910   2.414   5.846   2.071  0.8651  0.3536 -0.9466
16807TIP3   OH271911   0.997   4.537  11.521 -0.1416  0.1511 -0.3546
16807TIP3    H171912   0.976   4.593  11.446  0.0513  0.0121 -0.5139
16807TIP3    H271913   1.008   4.450  11.483 -2.8621 -0.5246  0.2004
16808TIP3   OH271914   1.147   6.043   3.802 -0.8590 -0.5342 -0.3611
16808TIP3    H171915   1.101   6.097   3.738 -0.4440  2.8791  1.9600
16808TIP3    H271916   1.239   6.053   3.780 -0.7521  0.1930  0.3525
16809TIP3   OH271917   6.353   4.954   5.982 -0.1494 -0.6920 -0.0204
16809TIP3    H171918   6.323   4.980   5.895 -0.9673  0.0646  0.4783
16809TIP3    H271919   6.350   5.035   6.033  2.3906 -0.6442  0.1690
16810TIP3   OH271920   2.673   6.589  14.979  0.1462 -0.4508 -0.5421
16810TIP3    H171921   2.581   6.588  15.006  0.2483 -1.4814 -0.2090
16810TIP3    H271922   2.721   6.557  15.055  0.9106  1.1021 -0.3209
16811TIP3   OH271923   6.702   4.803   6.215 -0.1692 -0.1880 -0.0832
16811TIP3    H171924   6.664   4.890   6.212 -0.6833 -0.4321 -1.9358
16811TIP3    H271925   6.795   4.818   6.235  0.3734  1.0560 -3.0865
16812TIP3   OH271926   6.054   3.961  15.858  0.2442  0.0600 -0.2575
16812TIP3    H171927   6.137   4.005  15.872 -0.3092  0.5438  1.9322
16812TIP3    H271928   6.015   4.005  15.783  1.0588  1.2136 -0.0285
16813TIP3   OH271929   2.339   1.313  14.555  0.2052 -0.0104  0.0416
16813TIP3    H171930   2.420   1.305  14.606 -0.2241 -0.0981  0.7207
16813TIP3    H271931   2.283   1.242  14.587  0.2853 -0.6842 -1.2449
16814TIP3   OH271932   3.950   4.334   1.154 -0.2315 -0.2859  0.1459
16814TIP3    H171933   3.960   4.365   1.064 -0.2758 -2.6440 -0.7426
16814TIP3    H271934   3.855   4.328   1.167 -0.2226 -0.2505  0.2234
16815TIP3   OH271935   3.598   1.761  15.043  0.3984 -0.3946  0.1791
16815TIP3    H171936   3.569   1.806  15.122 -2.4207 -1.5659 -0.0760
16815TIP3    H271937   3.629   1.675  15.074 -0.9087 -0.9357  0.0219
16816TIP3   OH271938   5.146   0.446   2.203 -0.2518  0.6464 -0.3606
16816TIP3    H171939   5.142   0.536   2.172 -0.4383  1.1724  1.1254
16816TIP3    H271940   5.057   0.413   2.192 -0.0318  0.3877 -1.5554
16817TIP3   OH271941   1.031   3.434   3.268 -0.2418 -0.1716  0.0046
16817TIP3    H171942   1.035   3.509   3.327 -0.0094 -0.7035  0.6741
16817TIP3    H271943   0.941   3.401   3.276  0.0264 -0.7572  0.7212
16818TIP3   OH271944   5.776   4.408  12.544 -0.0825  0.1190  0.1810
16818TIP3    H171945   5.819   4.486  12.509 -0.0731  0.6171  1.2781
16818TIP3    H271946   5.687   4.436  12.565  0.6635  0.6065  3.0602
16819TIP3   OH271947   1.070   1.000  11.188  0.3650 -0.2208  0.5832
16819TIP3    H171948   1.092   0.909  11.170 -0.3440 -0.2562 -0.1548
16819TIP3    H271949   1.148   1.035  11.230  0.7476 -1.0946  0.6284
16820TIP3   OH271950   1.175   4.281   3.746 -0.5930  0.1217  0.1648
16820TIP3    H171951   1.263   4.262   3.713 -0.8079 -2.1963  0.7478
16820TIP3    H271952   1.122   4.293   3.668  0.3507  2.4797 -0.1997
16821TIP3   OH271953   4.329   2.779   3.156  0.2838  0.2547 -0.3690
16821TIP3    H171954   4.246   2.735   3.137 -0.2601  0.9409  0.3643
16821TIP3    H271955   4.392   2.735   3.100 -0.2072 -1.5675  0.4501
16822TIP3   OH271956   3.074   1.353  11.511 -0.1818 -0.0483  0.5324
16822TIP3    H171957   3.073   1.316  11.423  2.2891 -0.2940  0.5229
16822TIP3    H271958   3.065   1.448  11.498  0.3462 -0.0685 -0.0257
16823TIP3   OH271959   0.305   5.940  13.535 -0.5115 -0.1321 -0.5425
16823TIP3    H171960   0.315   6.033  13.555  0.7910 -0.2740 -0.4425
16823TIP3    H271961   0.211   5.927  13.528 -0.6858  1.3244 -1.1784
16824TIP3   OH271962   3.333   2.932   3.267 -0.2486 -0.2711 -0.3763
16824TIP3    H171963   3.328   2.888   3.181  0.7734 -0.2026 -0.4815
16824TIP3    H271964   3.242   2.935   3.297 -0.4558 -1.6807 -0.7659
16825TIP3   OH271965   4.324   5.094   4.721  0.2665  0.6552 -0.1648
16825TIP3    H171966   4.309   5.041   4.643  1.7101 -1.3917  0.8503
16825TIP3    H271967   4.415   5.124   4.712  0.9247 -0.7685  1.3255
16826TIP3   OH271968   1.717   2.107  11.314  0.3830  0.2284 -0.0571
16826TIP3    H171969   1.724   2.073  11.225  0.8596  0.6963 -0.2047
16826TIP3    H271970   1.786   2.061  11.363  0.4175  0.2991 -0.0387
16827TIP3   OH271971   0.294   1.186  12.798  0.0955  0.0003  0.4976
16827TIP3    H171972   0.209   1.164  12.759  0.1336 -0.8200  0.8497
16827TIP3    H271973   0.273   1.216  12.886  0.1981 -0.7082  0.7720
16828TIP3   OH271974   0.977   4.544   0.509  0.0606 -0.5098  0.8421
16828TIP3    H171975   1.071   4.552   0.495 -0.0007 -1.8785 -0.5680
16828TIP3    H271976   0.966   4.461   0.556 -0.4317 -0.1216  1.4482
16829TIP3   OH271977   4.533   0.687   3.776 -0.3857  0.1429 -0.3640
16829TIP3    H171978   4.439   0.669   3.774 -0.4456  0.3362  0.3878
16829TIP3    H271979   4.572   0.606   3.808 -0.3361  0.1901 -0.3041
16830TIP3   OH271980   4.965   6.665   5.195  0.4254 -0.9281 -0.4521
16830TIP3    H171981   4.922   6.653   5.279  0.0058 -2.6912 -0.8674
16830TIP3    H271982   5.050   6.622   5.205  0.1163 -1.7262 -1.0990
16831TIP3   OH271983   4.332   4.418   1.641 -0.3849 -0.3923 -0.3637
16831TIP3    H171984   4.344   4.324   1.629  1.5192 -0.1313 -0.8578
16831TIP3    H271985   4.379   4.438   1.723  0.9236  0.4066 -1.2740
16832TIP3   OH271986   1.795   3.305   3.146 -0.2573 -0.4031  0.2147
16832TIP3    H171987   1.741   3.253   3.087 -2.1801  1.7180 -0.0528
16832TIP3    H271988   1.758   3.292   3.233  0.2351 -0.6675  0.3905
16833TIP3   OH271989   2.383   2.596   4.541 -0.0525  0.5906 -0.3388
16833TIP3    H171990   2.456   2.541   4.512  0.4409  1.1268 -0.1452
16833TIP3    H271991   2.350   2.636   4.461 -2.7764 -2.6910 -1.0514
16834TIP3   OH271992   5.826   0.980  11.893 -0.0807 -0.2808 -0.1100
16834TIP3    H171993   5.751   1.006  11.947 -0.5788  0.1796 -1.0124
16834TIP3    H271994   5.897   1.036  11.923  0.4555 -1.9492  2.0300
16835TIP3   OH271995   5.939   0.840  15.991 -0.3092  0.2109  0.3446
16835TIP3    H171996   6.032   0.841  16.015  0.2510  0.2202 -1.6685
16835TIP3    H271997   5.893   0.849  16.074  1.4758 -0.5482  1.4655
16836TIP3   OH271998   2.387   6.571   4.648  0.5116  0.0200  0.2318
16836TIP3    H171999   2.330   6.644   4.673  1.9655  1.4491 -0.4432
16836TIP3    H272000   2.354   6.497   4.699 -2.0953  0.6957 -0.3424
16837TIP3   OH272001   2.059   1.727  14.173  0.2825 -0.1420  0.7379
16837TIP3    H172002   2.083   1.817  14.148 -0.7853  0.4939  1.8931
16837TIP3    H272003   2.039   1.733  14.266  0.5523 -1.6818  0.9224
16838TIP3   OH272004   0.962   0.618  10.529  0.6616  0.0070  0.1348
16838TIP3    H172005   0.932   0.538  10.572  0.9150 -0.3334 -0.3121
16838TIP3    H272006   0.882   0.668  10.513  0.3819 -0.6465 -0.5581
16839TIP3   OH272007   5.036   2.776   0.454  0.1260  0.3623 -0.0819
16839TIP3    H172008   4.975   2.708   0.483  0.6792 -0.6655 -1.2033
16839TIP3    H272009   5.073   2.741   0.373  1.1050  1.6245 -0.2091
16840TIP3   OH272010   4.773   4.900   0.181 -0.1543  0.0787  0.3349
16840TIP3    H172011   4.679   4.918   0.187 -0.7064 -2.2030 -0.3008
16840TIP3    H272012   4.780   4.806   0.199  1.9083  0.0382 -0.4523
16841TIP3   OH272013   4.078   0.191  12.823 -0.7066  0.1247  0.4464
16841TIP3    H172014   4.124   0.204  12.740 -0.4153  1.0412  0.7423
16841TIP3    H272015   4.146   0.195  12.890 -1.1391  1.0728  0.8552
16842TIP3   OH272016   0.180   2.668  11.121  0.2006 -0.5384  0.5676
16842TIP3    H172017   0.264   2.645  11.082 -0.0670  0.0339 -0.3779
16842TIP3    H272018   0.128   2.587  11.115 -0.3280 -0.1221 -1.6545
16843TIP3   OH272019   4.391   5.163  14.099  0.7641  1.1538  0.2537
16843TIP3    H172020   4.351   5.135  14.181 -0.1716  1.0464 -0.2133
16843TIP3    H272021   4.460   5.223  14.124  2.8454 -1.4953  1.3067
16844TIP3   OH272022   0.925   4.340   5.359 -0.0082 -0.0372 -0.9830
16844TIP3    H172023   0.948   4.429   5.329  3.4716  0.1292  1.5512
16844TIP3    H272024   0.987   4.283   5.313 -1.2592 -1.0358 -1.4857
16845TIP3   OH272025   4.179   4.967   2.420  0.1319 -0.1370 -0.0548
16845TIP3    H172026   4.204   4.896   2.479  1.2691  0.7700  0.5900
16845TIP3    H272027   4.259   4.989   2.372  0.8514  2.9490  2.1951
16846TIP3   OH272028   5.343   4.517   1.748 -0.5871 -0.5535  0.5164
16846TIP3    H172029   5.437   4.516   1.767 -0.5246 -0.7789  0.2052
16846TIP3    H272030   5.324   4.428   1.719 -0.8120 -0.3887  0.1579
16847TIP3   OH272031   5.974   4.974  14.349  0.6703 -0.0250 -0.5568
16847TIP3    H172032   6.024   5.013  14.277  1.6958  0.0189  0.1557
16847TIP3    H272033   5.995   5.029  14.425 -1.8464  1.0673 -0.5758
16848TIP3   OH272034   1.148   6.168  15.569 -0.3466  0.4181 -0.2788
16848TIP3    H172035   1.135   6.112  15.646  1.6875 -1.5255 -1.2646
16848TIP3    H272036   1.089   6.133  15.503 -0.1766  0.4050 -0.4254
16849TIP3   OH272037   3.255   5.162   4.160  0.3708 -0.3500 -0.2417
16849TIP3    H172038   3.326   5.105   4.131  0.3813  1.1283 -3.6411
16849TIP3    H272039   3.266   5.242   4.108 -1.0653  1.8442  2.5194
16850TIP3   OH272040   6.517   5.527  11.130 -0.1779  0.0263 -0.4648
16850TIP3    H172041   6.533   5.468  11.203  2.3521  0.2998 -0.7100
16850TIP3    H272042   6.519   5.471  11.052  2.5058  0.3259 -0.7242
16851TIP3   OH272043   6.461   1.336   5.182  0.1201  0.9918 -0.1181
16851TIP3    H172044   6.421   1.389   5.251 -0.3702  1.1466 -0.5108
16851TIP3    H272045   6.433   1.379   5.100  1.2681  1.2294 -0.4041
16852TIP3   OH272046   0.639   6.770   4.011  0.1899  0.0702  0.1083
16852TIP3    H172047   0.576   6.698   4.010  1.4690 -1.1043  1.3219
16852TIP3    H272048   0.676   6.769   4.099  1.0322  1.5284 -0.1983
16853TIP3   OH272049   4.645   5.319  13.811  0.0754 -0.1348  0.3279
16853TIP3    H172050   4.706   5.246  13.797  0.2870  0.2439 -0.8646
16853TIP3    H272051   4.615   5.308  13.901  1.2741 -0.8120  0.6725
16854TIP3   OH272052   1.672   2.855   0.221  0.7070 -0.2183  0.1876
16854TIP3    H172053   1.644   2.917   0.154 -0.6194  0.0703  0.9701
16854TIP3    H272054   1.730   2.794   0.175 -1.0416 -0.7072 -1.5100
16855TIP3   OH272055   3.530   0.904   0.944  0.0091  0.2788  0.5108
16855TIP3    H172056   3.610   0.952   0.963  0.7863 -0.7398 -0.0836
16855TIP3    H272057   3.497   0.941   0.862  0.8437 -0.4657 -0.1793
16856TIP3   OH272058   6.403   2.195   0.752  0.0411 -0.3634  0.3546
16856TIP3    H172059   6.352   2.114   0.747  1.9573 -1.6560  1.0622
16856TIP3    H272060   6.492   2.170   0.727  0.4046  1.8408 -0.8899
16857TIP3   OH272061   5.530   3.045   2.867 -0.6399 -0.0079  0.2097
16857TIP3    H172062   5.492   3.095   2.795 -1.6253 -2.0710 -0.7638
16857TIP3    H272063   5.497   3.088   2.946 -1.7262  0.6697 -0.5882
16858TIP3   OH272064   1.645   3.140   4.059  0.2311  0.4243 -0.5935
16858TIP3    H172065   1.622   3.181   4.142  0.3487  0.0481 -0.3745
16858TIP3    H272066   1.736   3.164   4.044  0.0112  1.0694 -0.9614
16859TIP3   OH272067   6.115   5.900   6.514 -0.2538  0.1891  0.1320
16859TIP3    H172068   6.030   5.910   6.558 -1.0409 -0.1167 -1.2702
16859TIP3    H272069   6.112   5.813   6.475  0.4085  0.4595 -0.5393
16860TIP3   OH272070   1.335   4.715   5.252  0.3859 -0.9997  0.0677
16860TIP3    H172071   1.300   4.763   5.177 -0.1550  0.0674  0.9676
16860TIP3    H272072   1.427   4.699   5.229  1.6242  3.4411  1.0007
16861TIP3   OH272073   5.917   1.790  14.198  0.0427  0.9852  0.3917
16861TIP3    H172074   5.923   1.755  14.109 -1.3307  0.8324  0.3495
16861TIP3    H272075   5.914   1.885  14.187  2.3428  1.1277  0.4363
16862TIP3   OH272076   6.673   6.297   3.362 -0.2449 -0.3218  0.4189
16862TIP3    H172077   6.698   6.236   3.293 -0.5015 -0.8289  0.7683
16862TIP3    H272078   6.597   6.257   3.404  1.9861 -1.8821  3.3502
16863TIP3   OH272079   5.858   4.840  16.479  0.0087 -0.4659  0.2897
16863TIP3    H172080   5.887   4.929  16.462 -0.5247 -0.4502 -0.5737
16863TIP3    H272081   5.937   4.794  16.509  0.8063 -0.2778 -1.4216
16864TIP3   OH272082   6.060   0.763  14.913 -0.4116 -0.2337  0.0846
16864TIP3    H172083   6.141   0.813  14.910 -0.4868 -0.1463 -0.5613
16864TIP3    H272084   6.080   0.688  14.969  0.4212 -0.7597 -0.8996
16865TIP3   OH272085   2.060   1.295  16.104  0.5511  0.0760 -0.1580
16865TIP3    H172086   2.004   1.366  16.134 -1.0588 -0.4937 -1.6850
16865TIP3    H272087   2.130   1.291  16.170 -0.7348  1.3275  1.3800
16866TIP3   OH272088   4.401   1.749  14.660  0.1945 -0.0946  0.3398
16866TIP3    H172089   4.480   1.717  14.616  0.2900 -0.7543  0.9831
16866TIP3    H272090   4.404   1.844  14.648  0.1539 -0.2527 -1.1871
16867TIP3   OH272091   0.998   4.391  14.141  0.5661  0.4175 -0.0368
16867TIP3    H172092   0.977   4.297  14.137  1.2566  0.2714 -0.6915
16867TIP3    H272093   0.968   4.426  14.057 -1.7355  1.2727  1.0764
16868TIP3   OH272094   5.529   1.854   5.697 -0.2911  0.4659 -0.2556
16868TIP3    H172095   5.567   1.941   5.693 -0.2604  0.4058 -1.6291
16868TIP3    H272096   5.586   1.799   5.643 -0.0092 -0.5418  1.0045
16869TIP3   OH272097   6.805   3.422   6.263  0.5238  0.3587  0.0872
16869TIP3    H172098   6.816   3.487   6.194  0.2008 -0.3015 -0.5980
16869TIP3    H272099   6.889   3.377   6.267  0.6198  0.5534  0.2926
16870TIP3   OH272100   3.908   0.536   0.041 -0.4147  0.4824  0.1382
16870TIP3    H172101   3.933   0.449   0.072 -1.1624 -0.4698 -1.7645
16870TIP3    H272102   3.911   0.529  -0.055  2.6000  3.4621 -0.1847
16871TIP3   OH272103   0.428   3.060   1.512 -0.4563 -0.3334  0.2678
16871TIP3    H172104   0.472   3.072   1.428  0.0128 -2.1389  0.2130
16871TIP3    H272105   0.335   3.063   1.492 -0.3470 -0.3654 -0.2415
16872TIP3   OH272106   4.743   0.809  11.244 -0.1695 -0.2511  0.1424
16872TIP3    H172107   4.796   0.882  11.213  0.8946 -0.2916  1.7209
16872TIP3    H272108   4.658   0.847  11.266 -0.6129 -0.0538 -1.7564
16873TIP3   OH272109   1.973   2.678   6.744  0.0588  0.1292  0.0973
16873TIP3    H172110   1.941   2.668   6.654 -0.3551  1.3872  0.0816
16873TIP3    H272111   2.062   2.643   6.741 -0.8450 -2.3447 -0.1336
16874TIP3   OH272112   0.058   4.741   3.374 -0.3925 -0.0888 -0.5139
16874TIP3    H172113   0.080   4.652   3.401 -0.6280 -0.5829 -1.8567
16874TIP3    H272114   0.099   4.750   3.288 -1.0437  0.8104 -0.7428
16875TIP3   OH272115   3.540   1.157   5.951  0.0069 -0.3709  0.4601
16875TIP3    H172116   3.462   1.102   5.960 -0.6899  0.5075 -0.0390
16875TIP3    H272117   3.522   1.234   6.005 -0.5305  0.9313 -1.4698
16876TIP3   OH272118   3.274   5.695   0.949 -0.5931 -0.5354 -0.1600
16876TIP3    H172119   3.298   5.689   0.857  1.0307  0.1890  0.1817
16876TIP3    H272120   3.249   5.786   0.962  1.3418 -0.0591  0.5572
16877TIP3   OH272121   4.937   1.370   5.466 -0.3264  0.1413  0.2205
16877TIP3    H172122   5.017   1.398   5.423 -0.7214  0.7579 -0.1264
16877TIP3    H272123   4.954   1.279   5.491  0.8735  0.6013  1.1483
16878TIP3   OH272124   6.078   3.195  15.912 -0.5154 -0.6439 -0.0170
16878TIP3    H172125   6.112   3.108  15.930  1.0608 -0.4057 -1.6041
16878TIP3    H272126   6.110   3.249  15.985 -1.1285 -1.2587  0.7305
16879TIP3   OH272127   1.052   4.376   4.908  0.1376 -0.5908 -0.0583
16879TIP3    H172128   0.979   4.315   4.902  0.3043 -0.8434  0.4154
16879TIP3    H272129   1.028   4.448   4.850 -0.1668 -0.9979 -0.4439
16880TIP3   OH272130   4.450   3.962   3.413 -0.0098  0.1267  0.4160
16880TIP3    H172131   4.498   4.003   3.485  0.0376 -0.8544  0.9659
16880TIP3    H272132   4.516   3.910   3.367 -0.3057 -0.3086  0.4766
16881TIP3   OH272133   0.075   0.641   6.177  0.2605 -0.5538 -0.0631
16881TIP3    H172134   0.158   0.648   6.225 -0.0849  0.5887  0.3905
16881TIP3    H272135   0.089   0.692   6.098 -0.1307 -0.0518  0.1891
16882TIP3   OH272136   1.813   4.698   0.663 -0.2411 -0.3021 -0.8752
16882TIP3    H172137   1.753   4.753   0.613  1.3965  0.7301 -1.8051
16882TIP3    H272138   1.857   4.644   0.597  0.6158 -0.2628 -0.3621
16883TIP3   OH272139   6.486   5.792  13.894  0.4466  0.1741 -0.2673
16883TIP3    H172140   6.550   5.806  13.824  0.7601 -0.2693 -0.0798
16883TIP3    H272141   6.524   5.721  13.946  1.1591  1.7450  1.4579
16884TIP3   OH272142   4.550   4.580   4.851 -0.0363 -0.2664 -0.2376
16884TIP3    H172143   4.526   4.496   4.812 -1.5048 -0.5096  1.0783
16884TIP3    H272144   4.527   4.645   4.784  1.2086 -0.8835 -1.3047
16885TIP3   OH272145   2.682   0.221  14.682 -0.2373  0.5735 -0.1427
16885TIP3    H172146   2.668   0.143  14.735 -1.0730  0.2134 -0.8709
16885TIP3    H272147   2.735   0.278  14.737 -2.3081  0.8495  1.7173
16886TIP3   OH272148   3.099   6.025  15.328  0.0767 -0.4266  0.1994
16886TIP3    H172149   3.145   5.962  15.384  1.1737  0.7680  0.7069
16886TIP3    H272150   3.046   6.076  15.388  0.4818  0.2036  0.0369
16887TIP3   OH272151   0.693   2.012   1.863 -0.1634  0.0700  0.0991
16887TIP3    H172152   0.780   2.029   1.827  0.6058 -2.5382  0.4776
16887TIP3    H272153   0.637   2.004   1.785  0.7547 -1.9323 -0.4299
16888TIP3   OH272154   4.443   2.970  16.503  0.2177  0.0283  0.0118
16888TIP3    H172155   4.456   2.896  16.562 -0.0642 -0.4568 -0.5212
16888TIP3    H272156   4.402   2.931  16.426 -0.7857  0.8860  0.0947
16889TIP3   OH272157   1.562   6.194  15.534 -0.1297  0.4624  0.3275
16889TIP3    H172158   1.600   6.139  15.603 -1.9938 -1.6377 -0.2049
16889TIP3    H272159   1.498   6.248  15.581 -0.8256 -0.3980  0.4064
16890TIP3   OH272160   2.864   6.192  16.974 -0.8404 -0.1308 -0.2427
16890TIP3    H172161   2.879   6.097  16.972 -1.1371 -0.1807 -0.2007
16890TIP3    H272162   2.888   6.218  17.062 -0.7893 -0.1718 -0.2456
16891TIP3   OH272163   0.487   1.984   2.693  0.2811  0.0059  0.4880
16891TIP3    H172164   0.520   1.981   2.783 -0.6639  0.4807  0.8699
16891TIP3    H272165   0.392   1.994   2.703  0.2744  1.1974 -0.5546
16892TIP3   OH272166   5.981   0.261   0.581  0.0145 -0.2802 -0.3230
16892TIP3    H172167   5.888   0.270   0.600  0.0884  0.3530 -0.2208
16892TIP3    H272168   5.985   0.244   0.487 -0.1693  0.6564 -0.5099
16893TIP3   OH272169   3.457   3.692   2.898 -0.1579 -0.3962 -0.5108
16893TIP3    H172170   3.533   3.635   2.905  0.8658  0.6632 -2.3800
16893TIP3    H272171   3.403   3.669   2.974  2.9982  0.3198  2.1919
16894TIP3   OH272172   3.072   2.127   2.460 -0.0419 -0.5042 -0.4399
16894TIP3    H172173   3.153   2.117   2.509  0.3764  1.3803 -0.6845
16894TIP3    H272174   3.094   2.094   2.372  0.0674 -1.1752 -0.1675
16895TIP3   OH272175   3.007   1.473   2.057 -0.1653 -0.0245 -0.3227
16895TIP3    H172176   2.967   1.390   2.030  0.3978  0.3469 -2.5464
16895TIP3    H272177   2.999   1.528   1.979  1.4624  1.2537  0.3792
16896TIP3   OH272178   5.770   0.712   6.321 -0.1822 -0.9255  0.3574
16896TIP3    H172179   5.748   0.687   6.411  1.9872 -0.4687  1.0808
16896TIP3    H272180   5.860   0.745   6.327 -0.6420  0.9018 -1.6743
16897TIP3   OH272181   4.153   0.191  13.260 -0.0348 -0.6783 -0.5202
16897TIP3    H172182   4.136   0.197  13.354  2.1379  0.4484 -0.1265
16897TIP3    H272183   4.247   0.173  13.254 -0.4511 -2.6012 -2.4822
16898TIP3   OH272184   1.107   0.973   3.130 -0.5731 -0.3291 -0.1036
16898TIP3    H172185   1.105   0.912   3.056  0.0254 -1.0657  0.4683
16898TIP3    H272186   1.113   1.060   3.090  1.3703 -0.7995 -0.9061
16899TIP3   OH272187   6.078   6.224  10.940  0.2614  0.2252  0.0690
16899TIP3    H172188   6.161   6.271  10.949  0.7548 -0.3337 -1.2608
16899TIP3    H272189   6.013   6.285  10.974  1.2392  0.5001  1.5759
16900TIP3   OH272190   2.009   5.275   3.256  0.1496 -0.1131  0.1407
16900TIP3    H172191   2.005   5.366   3.227 -0.1929 -0.3303 -0.5012
16900TIP3    H272192   2.102   5.255   3.261  0.2399 -0.4468 -2.0413
16901TIP3   OH272193   4.331   1.355   3.332  0.2678  0.0491 -0.2452
16901TIP3    H172194   4.282   1.419   3.279 -0.6690  0.4070  1.0117
16901TIP3    H272195   4.328   1.391   3.421  2.6365 -0.0460 -0.0761
16902TIP3   OH272196   4.338   3.439  13.887  0.1322 -0.4333 -0.0857
16902TIP3    H172197   4.309   3.349  13.873  0.0632 -0.3352 -0.6103
16902TIP3    H272198   4.433   3.433  13.898  0.2838 -0.4575 -1.2815
16903TIP3   OH272199   5.976   5.346  15.054  0.6988 -0.5679 -0.4076
16903TIP3    H172200   6.004   5.384  15.137  0.6697  1.2077 -1.1736
16903TIP3    H272201   6.057   5.340  15.002  0.2528  1.7538 -1.5226
16904TIP3   OH272202   6.613   0.041  12.791 -0.0644 -0.6471  0.7085
16904TIP3    H172203   6.653   0.007  12.871  1.7794 -1.1303 -0.3534
16904TIP3    H272204   6.561   0.116  12.820  1.4380 -0.1325  2.2375
16905TIP3   OH272205   4.443   0.638  15.698 -0.6814 -0.1930 -0.4212
16905TIP3    H172206   4.379   0.584  15.744 -1.2128  0.1460 -0.7465
16905TIP3    H272207   4.394   0.717  15.673 -0.3166 -0.2072 -1.2355
16906TIP3   OH272208   4.032   2.991  15.037 -0.9457 -0.1916 -0.2886
16906TIP3    H172209   4.009   2.954  14.952 -1.7826  0.0072 -0.1585
16906TIP3    H272210   3.957   2.971  15.093  0.4349 -2.1117  0.9941
16907TIP3   OH272211   2.454   6.813  11.297 -0.0770 -0.7656  0.1514
16907TIP3    H172212   2.467   6.781  11.208  1.0725  0.8380 -0.3086
16907TIP3    H272213   2.536   6.792  11.342 -0.7695 -1.8571  0.9604
16908TIP3   OH272214   2.056   2.658   1.591  0.1457  0.4949  0.2770
16908TIP3    H172215   1.970   2.619   1.576  0.1663  0.2330  0.8218
16908TIP3    H272216   2.078   2.633   1.680  0.6511  0.8258  0.2457
16909TIP3   OH272217   5.852   4.047  15.406 -0.0191 -0.3548  0.2218
16909TIP3    H172218   5.901   4.127  15.389  3.6286 -2.6816 -1.3684
16909TIP3    H272219   5.802   4.031  15.326  2.2777 -1.5261 -1.0615
16910TIP3   OH272220   3.613   0.598   3.395 -0.6093 -0.3797 -0.0364
16910TIP3    H172221   3.631   0.635   3.308  0.5491 -0.2235  0.2545
16910TIP3    H272222   3.522   0.624   3.413 -1.3016 -1.4381 -1.6943
16911TIP3   OH272223   0.737   0.394  12.518 -0.3580 -0.6088 -0.3947
16911TIP3    H172224   0.806   0.377  12.453  1.2087  0.6381  0.8415
16911TIP3    H272225   0.746   0.488  12.538 -2.3045 -0.4602 -0.0236
16912TIP3   OH272226   2.234   4.812  16.760 -0.0726 -0.4551 -0.2633
16912TIP3    H172227   2.300   4.866  16.717  0.4203 -0.0160  0.9834
16912TIP3    H272228   2.267   4.723  16.754  1.3995 -0.1015  1.5652
16913TIP3   OH272229   6.663   2.266   1.956  0.0850 -0.4831 -0.1820
16913TIP3    H172230   6.740   2.219   1.989 -0.0449 -0.7264 -0.2240
16913TIP3    H272231   6.670   2.353   1.994 -0.3273 -0.9045  0.9042
16914TIP3   OH272232   5.019   2.206   1.683  0.1126 -0.4751 -0.1133
16914TIP3    H172233   4.949   2.145   1.660 -0.4109  0.2400 -0.4990
16914TIP3    H272234   5.099   2.163   1.655 -0.2692 -0.8767 -0.6146
16915TIP3   OH272235   5.380   0.812   6.563  0.6519  0.3046 -0.1602
16915TIP3    H172236   5.435   0.876   6.519  1.7770 -0.0339  0.6943
16915TIP3    H272237   5.423   0.728   6.547  2.3786  0.3522  3.2115
16916TIP3   OH272238   1.685   4.880   2.275 -0.2598 -0.3150  0.1109
16916TIP3    H172239   1.608   4.938   2.282  0.1944  0.2095  0.9037
16916TIP3    H272240   1.753   4.925   2.325  1.1326  0.1465 -2.0808
16917TIP3   OH272241   4.612   6.395  11.125 -0.4901 -0.0390 -0.4900
16917TIP3    H172242   4.668   6.344  11.066 -1.1283  0.4008 -1.5130
16917TIP3    H272243   4.544   6.333  11.153  0.6594 -0.6610  1.0121
16918TIP3   OH272244   2.568   6.266  14.154  0.2058 -0.4861 -0.1739
16918TIP3    H172245   2.654   6.266  14.196 -0.4857  1.7000  1.4572
16918TIP3    H272246   2.551   6.359  14.135 -2.1730 -0.7108  0.4623
16919TIP3   OH272247   5.817   2.476  13.140  0.1161  0.3812  0.1654
16919TIP3    H172248   5.753   2.408  13.119 -0.4162  0.3703  1.7321
16919TIP3    H272249   5.895   2.427  13.168 -0.6970  0.3413  2.5815
16920TIP3   OH272250   0.766   3.849   0.087 -0.5645 -0.4441  0.4913
16920TIP3    H172251   0.858   3.823   0.086  0.0357  1.0397  4.0031
16920TIP3    H272252   0.767   3.943   0.072 -1.4412 -0.3276  1.0737
16921TIP3   OH272253   3.607   6.281   4.247 -0.0515 -0.0113 -0.2018
16921TIP3    H172254   3.531   6.255   4.195  0.2128 -1.4447  0.0831
16921TIP3    H272255   3.654   6.343   4.191 -1.4157  0.9168 -0.3706
16922TIP3   OH272256   6.632   4.326  11.578 -0.5011 -1.0960 -0.2434
16922TIP3    H172257   6.596   4.339  11.665 -0.5823 -0.3560 -0.3830
16922TIP3    H272258   6.679   4.407  11.558 -2.0675 -0.4607 -1.6401
16923TIP3   OH272259   0.197   1.134   3.247  0.4018  0.5422 -0.0038
16923TIP3    H172260   0.145   1.078   3.189  0.2943  1.7818 -1.1733
16923TIP3    H272261   0.147   1.215   3.254 -0.0773  0.1046  2.7010
16924TIP3   OH272262   0.877   5.512   6.685  0.0679 -0.1360 -0.2066
16924TIP3    H172263   0.838   5.432   6.650 -0.4887 -0.0099  0.1257
16924TIP3    H272264   0.810   5.550   6.741 -0.0215  1.0481 -1.0775
16925TIP3   OH272265   0.874   6.060  13.362 -0.3069  0.0578 -0.1378
16925TIP3    H172266   0.901   6.151  13.366  0.5637 -0.0639 -2.0430
16925TIP3    H272267   0.955   6.011  13.346 -1.0612 -0.7281 -1.8995
16926TIP3   OH272268   6.083   0.861   4.480  0.0104 -0.2358 -0.2960
16926TIP3    H172269   6.055   0.849   4.571  0.3594  1.9983  0.1516
16926TIP3    H272270   6.052   0.782   4.435  0.5559 -1.8149  1.9028
16927TIP3   OH272271   5.452   1.311   3.397 -0.4902  0.5338 -0.2072
16927TIP3    H172272   5.508   1.249   3.445 -1.0908 -1.1587 -1.6054
16927TIP3    H272273   5.501   1.393   3.400  1.5524 -0.5992 -0.4069
16928TIP3   OH272274   4.834   3.399  12.959  0.0599 -0.0714  0.2749
16928TIP3    H172275   4.741   3.419  12.947 -0.2538 -0.6573  1.5912
16928TIP3    H272276   4.875   3.485  12.966 -0.4533  0.1832  0.2452
16929TIP3   OH272277   5.120   0.092   1.640 -0.1864 -0.3887  0.3565
16929TIP3    H172278   5.202   0.042   1.635 -0.7253 -1.2572 -0.1095
16929TIP3    H272279   5.109   0.128   1.552  1.3147  2.4644  1.2086
16930TIP3   OH272280   0.744   0.977  12.574  0.6296  0.5210  0.3037
16930TIP3    H172281   0.706   1.063  12.556  0.7178  0.9482  1.9764
16930TIP3    H272282   0.737   0.967  12.669  1.7499 -0.7949  0.2847
16931TIP3   OH272283   0.602   5.611   5.401 -0.7131 -0.3369  0.1577
16931TIP3    H172284   0.506   5.613   5.396 -0.6574  0.1912 -0.9462
16931TIP3    H272285   0.622   5.635   5.492 -1.5956  0.4641  0.1465
16932TIP3   OH272286   4.024   1.031  15.734  0.0190 -0.4168 -0.7882
16932TIP3    H172287   4.091   1.099  15.745  0.6362 -0.9885 -0.9104
16932TIP3    H272288   3.966   1.042  15.809  0.5791 -0.2736 -0.3661
16933TIP3   OH272289   4.122   5.130  10.992  0.0759 -0.3082 -0.0880
16933TIP3    H172290   4.123   5.162  10.901 -1.8271  2.0536  0.6158
16933TIP3    H272291   4.214   5.133  11.019  0.5503 -0.0697 -1.6375
16934TIP3   OH272292   2.352   2.922   2.744 -0.1844 -0.1282  0.1918
16934TIP3    H172293   2.262   2.940   2.770  0.1120 -0.0232  1.2097
16934TIP3    H272294   2.385   3.006   2.713  0.2325  0.3920  1.9503
16935TIP3   OH272295   2.859   2.677   4.898 -0.2918  0.3573 -0.6426
16935TIP3    H172296   2.895   2.748   4.845 -0.5391  0.3200 -0.8650
16935TIP3    H272297   2.785   2.644   4.847 -1.6655  1.5033  0.5413
16936TIP3   OH272298   6.244   2.860  15.194  0.3954 -0.3600  0.1531
16936TIP3    H172299   6.255   2.882  15.286  0.4258 -1.3258  0.3981
16936TIP3    H272300   6.301   2.783  15.181 -2.9547 -3.1691  0.5106
16937TIP3   OH272301   1.068   5.334   5.370 -0.7335  0.3644  0.4153
16937TIP3    H172302   1.008   5.298   5.435 -0.2278  0.1727  0.7852
16937TIP3    H272303   1.112   5.406   5.415 -0.0213 -0.0880  0.4531
16938TIP3   OH272304   2.851   6.308   4.405  0.0003 -0.3815  0.8877
16938TIP3    H172305   2.825   6.342   4.491 -0.4685 -1.2005  1.0819
16938TIP3    H272306   2.790   6.236   4.389 -1.0722  0.8785 -0.9480
16939TIP3   OH272307   1.777   0.767  10.639 -0.1267  0.0843 -0.5689
16939TIP3    H172308   1.726   0.848  10.636 -0.0637  0.1185 -0.7095
16939TIP3    H272309   1.714   0.701  10.668  0.1265  0.4173  0.7988
16940TIP3   OH272310   1.610   3.576  16.313  0.1681 -0.1972 -0.7147
16940TIP3    H172311   1.595   3.496  16.264 -0.7261 -1.4383  1.4222
16940TIP3    H272312   1.523   3.606  16.337  0.5269  1.1030 -0.9891
16941TIP3   OH272313   6.800   3.546  17.148 -0.0253  0.1221  0.0756
16941TIP3    H172314   6.833   3.609  17.213  1.0178 -1.1794  0.8587
16941TIP3    H272315   6.717   3.584  17.118  0.6723  1.9509  0.3702
16942TIP3   OH272316   1.212   2.896   2.256 -0.0761  0.2514  0.1403
16942TIP3    H172317   1.302   2.871   2.233  0.1464  1.6622 -0.6585
16942TIP3    H272318   1.162   2.882   2.175 -0.8319 -1.5245  0.8690
16943TIP3   OH272319   5.687   3.565   3.381 -0.0078 -0.1564 -0.2668
16943TIP3    H172320   5.653   3.548   3.469 -0.2391 -0.4401 -0.4083
16943TIP3    H272321   5.675   3.659   3.369 -0.4078 -0.1907 -0.1691
16944TIP3   OH272322   5.963   2.877   1.281  0.0986  0.0747 -0.5121
16944TIP3    H172323   6.024   2.820   1.234  2.7193  1.4359  1.0245
16944TIP3    H272324   5.919   2.820   1.343 -0.3246 -0.9519 -1.7124
16945TIP3   OH272325   4.819   6.487   0.750 -0.1262  0.6399  0.4605
16945TIP3    H172326   4.723   6.493   0.745 -0.1468  0.2147  0.3161
16945TIP3    H272327   4.837   6.394   0.755  0.3325  0.6639 -0.5225
16946TIP3   OH272328   3.093   3.735  14.724 -0.5717 -0.1608 -0.0215
16946TIP3    H172329   3.105   3.745  14.819  1.3939 -0.5406 -0.1913
16946TIP3    H272330   3.126   3.816  14.687 -2.2767  0.4174 -0.3779
16947TIP3   OH272331   4.245   3.041  12.696  0.2432 -0.0486 -0.1596
16947TIP3    H172332   4.151   3.022  12.694 -0.0064  1.0833  0.1184
16947TIP3    H272333   4.253   3.125  12.652  1.2693 -0.6273 -1.1180
16948TIP3   OH272334   1.917   3.815   2.757  0.4067 -0.0605  0.0055
16948TIP3    H172335   1.873   3.846   2.678 -0.8861 -0.6448  0.4734
16948TIP3    H272336   2.002   3.783   2.725  0.0679  0.0694 -1.0899
16949TIP3   OH272337   6.699   0.032  11.571 -0.0845 -0.3630 -0.2464
16949TIP3    H172338   6.747   0.088  11.510 -1.1399  1.8501  0.7972
16949TIP3    H272339   6.726   0.064  11.658 -1.6288 -0.6321  0.3689
16950TIP3   OH272340   2.246   0.457   4.387  0.0386 -0.3766  0.5632
16950TIP3    H172341   2.169   0.477   4.335  0.6482 -0.4237 -0.3743
16950TIP3    H272342   2.255   0.362   4.382 -0.1505 -0.4300  1.1268
16951TIP3   OH272343   1.212   0.900   3.370 -0.1551  0.2534  0.5784
16951TIP3    H172344   1.289   0.957   3.369  1.3345 -1.6087 -1.1480
16951TIP3    H272345   1.164   0.923   3.291 -1.1513  1.0820  1.4055
16952TIP3   OH272346   3.179   3.677  14.022 -0.2619  0.7338  0.7292
16952TIP3    H172347   3.247   3.741  14.001 -0.1295  0.7850  1.2961
16952TIP3    H272348   3.195   3.604  13.963  0.5936  0.5371  1.1981
16953TIP3   OH272349   6.694   1.594  11.621  0.2497 -0.3903  0.8896
16953TIP3    H172350   6.708   1.570  11.713 -0.5108  2.0529  1.7277
16953TIP3    H272351   6.730   1.683  11.614 -1.5380  0.2656 -0.6231
16954TIP3   OH272352   6.137   4.059   6.128  0.0571 -0.2817 -0.0971
16954TIP3    H172353   6.070   4.127   6.132 -0.4145 -0.6346 -1.3879
16954TIP3    H272354   6.193   4.075   6.204 -1.2639  0.2500  0.7896
16955TIP3   OH272355   4.947   4.078   6.300  1.1529  0.1069  0.2137
16955TIP3    H172356   4.991   4.137   6.239 -0.0383 -0.2652 -1.0444
16955TIP3    H272357   4.949   4.125   6.384  1.8105  1.1287 -0.3568
16956TIP3   OH272358   0.207   6.367  11.733 -0.5797 -0.1168  0.4983
16956TIP3    H172359   0.250   6.408  11.808  0.2611 -0.5447  0.2632
16956TIP3    H272360   0.236   6.419  11.658  0.4687 -1.0917  0.2023
16957TIP3   OH272361   2.635   2.837  14.794 -0.1417  0.7628 -0.4829
16957TIP3    H172362   2.713   2.878  14.755  0.9743 -1.9031 -1.3214
16957TIP3    H272363   2.651   2.841  14.888  0.1832  1.7219 -0.5659
16958TIP3   OH272364   0.201   1.751  11.741  0.0161  0.5200  0.2168
16958TIP3    H172365   0.197   1.725  11.649 -0.2599  0.0679  0.3547
16958TIP3    H272366   0.125   1.809  11.753 -1.1732 -1.0495  0.6530
16959TIP3   OH272367   0.813   1.703  11.746 -0.7846 -0.0162 -0.6876
16959TIP3    H172368   0.823   1.618  11.704 -1.6913 -0.0640 -0.8188
16959TIP3    H272369   0.857   1.765  11.688 -0.7111 -0.2943 -0.9272
16960TIP3   OH272370   1.691   1.723   3.082 -0.3897 -0.0455  0.2888
16960TIP3    H172371   1.597   1.724   3.102 -0.4487 -0.3996  0.0216
16960TIP3    H272372   1.728   1.785   3.145 -0.8717  0.5107  0.0373
16961TIP3   OH272373   5.442   3.667   1.474  0.0950 -0.4451  0.3334
16961TIP3    H172374   5.434   3.744   1.531  2.5270  0.3564 -0.2541
16961TIP3    H272375   5.375   3.679   1.407 -0.3518  0.5501  0.9324
16962TIP3   OH272376   3.725   0.282   5.693  0.6708 -0.0161 -0.4687
16962TIP3    H172377   3.646   0.289   5.639  0.9534  0.1349 -0.8704
16962TIP3    H272378   3.764   0.199   5.667  0.1303 -0.5752  0.4472
16963TIP3   OH272379   0.904   3.226  11.164 -0.1380 -0.0810  0.3004
16963TIP3    H172380   0.939   3.183  11.086  0.1759 -0.7258  0.7792
16963TIP3    H272381   0.821   3.181  11.181  0.0078 -0.2514  0.5834
16964TIP3   OH272382   2.462   6.477  15.720 -0.0816  0.0213  0.1796
16964TIP3    H172383   2.434   6.449  15.807 -0.1437  0.2563  0.2357
16964TIP3    H272384   2.546   6.520  15.735  0.4295 -0.8892 -0.0174
16965TIP3   OH272385   4.850   5.744   2.872  0.1746 -0.2270 -0.1232
16965TIP3    H172386   4.781   5.678   2.868 -0.1966  0.2146 -1.6506
16965TIP3    H272387   4.932   5.694   2.870 -0.0511 -0.7628  1.8955
16966TIP3   OH272388   5.699   1.373   6.288  0.0780  0.0128  0.1053
16966TIP3    H172389   5.641   1.297   6.286  0.2173 -0.1344  1.1141
16966TIP3    H272390   5.641   1.448   6.279 -0.1286 -0.1859 -0.2328
16967TIP3   OH272391   5.401   4.574  12.322 -0.1560 -0.1390  0.2957
16967TIP3    H172392   5.406   4.611  12.234 -0.1335  1.2478  0.8520
16967TIP3    H272393   5.322   4.521  12.321  0.7031 -1.4667 -1.0250
16968TIP3   OH272394   2.102   4.079   2.649  0.5538  0.1831  0.4856
16968TIP3    H172395   2.180   4.130   2.625 -1.2367  2.4692 -0.8903
16968TIP3    H272396   2.117   3.993   2.609  2.8970  0.0829  1.3954
16969TIP3   OH272397   4.861   5.791  12.604  0.0939  0.2706  0.0722
16969TIP3    H172398   4.912   5.871  12.618 -0.7918  1.1507 -1.4952
16969TIP3    H272399   4.848   5.755  12.692  0.8978  1.5941  0.7585
16970TIP3   OH272400   2.743   1.823  13.032  0.4998  0.1094  0.0372
16970TIP3    H172401   2.832   1.836  12.997  0.1859 -1.1592 -1.3855
16970TIP3    H272402   2.701   1.765  12.967 -0.7949 -0.7365  1.5689
16971TIP3   OH272403   6.649   5.267   1.888  0.1263 -0.6039 -0.0134
16971TIP3    H172404   6.664   5.339   1.949  1.5683 -1.8569  1.2041
16971TIP3    H272405   6.729   5.264   1.835  0.1164 -1.3266  0.0011
16972TIP3   OH272406   3.064   5.796  11.377 -0.3444 -0.0660  0.1044
16972TIP3    H172407   3.112   5.868  11.336  2.6890 -1.0653  1.5343
16972TIP3    H272408   3.034   5.832  11.460 -1.4912  0.3370 -0.4593
16973TIP3   OH272409   2.721   4.719  17.114  0.0436 -0.6678  0.1053
16973TIP3    H172410   2.713   4.692  17.022 -0.2030 -1.0586  0.2407
16973TIP3    H272411   2.743   4.639  17.161  0.2183 -0.4580  0.3844
16974TIP3   OH272412   4.113   5.462  15.496  0.8345  0.1985 -0.2773
16974TIP3    H172413   4.024   5.487  15.522  0.3335 -2.0795  0.4212
16974TIP3    H272414   4.101   5.415  15.413  1.1412 -1.3816  0.5253
16975TIP3   OH272415   3.301   3.788  12.600 -0.2324  0.2915 -0.1028
16975TIP3    H172416   3.343   3.763  12.682 -0.0937 -0.2180 -0.3271
16975TIP3    H272417   3.248   3.712  12.575  2.7152 -1.2041 -2.4735
16976TIP3   OH272418   2.195   6.506  12.534 -0.5031  0.5436 -0.1132
16976TIP3    H172419   2.185   6.560  12.455 -0.1653 -0.1618 -0.6512
16976TIP3    H272420   2.254   6.436  12.507 -0.2438  0.3935  0.8306
16977TIP3   OH272421   2.023   2.894  13.895 -0.0562 -0.7664  0.1218
16977TIP3    H172422   2.096   2.934  13.848  0.7313 -0.3063  1.6799
16977TIP3    H272423   1.947   2.910  13.839  1.0434 -1.4458 -1.6354
16978TIP3   OH272424   3.142   1.935  14.557  0.1490 -1.3086  0.6088
16978TIP3    H172425   3.100   2.006  14.606  2.0942  0.1737  0.2561
16978TIP3    H272426   3.107   1.855  14.596 -0.2212 -0.1839  2.7547
16979TIP3   OH272427   0.512   3.490   3.291  0.3226 -0.3667  0.3482
16979TIP3    H172428   0.460   3.558   3.334 -1.3446  0.6350 -2.9029
16979TIP3    H272429   0.584   3.537   3.250  0.1632 -0.7777 -0.4335
16980TIP3   OH272430   0.967   0.184  17.091  0.2435  0.0149  0.0545
16980TIP3    H172431   1.027   0.144  17.153  0.8103  0.1706 -0.3807
16980TIP3    H272432   0.940   0.112  17.034  1.9055  0.3425 -1.2468
16981TIP3   OH272433   0.867   1.213  11.157 -0.7395  0.5445  0.1772
16981TIP3    H172434   0.883   1.233  11.065  1.0046  2.7793  0.8788
16981TIP3    H272435   0.948   1.169  11.186 -1.3489 -0.3192  0.6302
16982TIP3   OH272436   2.998   0.652  11.780 -0.0467 -0.5010  0.1629
16982TIP3    H172437   2.951   0.570  11.768 -1.3618  0.1087  0.9632
16982TIP3    H272438   2.962   0.710  11.712 -0.5732  0.0109  0.8680
16983TIP3   OH272439   4.924   4.368   2.616  0.1776 -0.2778  0.2390
16983TIP3    H172440   4.903   4.459   2.596 -0.4752 -0.3944  0.3704
16983TIP3    H272441   4.840   4.322   2.613  0.6486 -1.1319 -1.1343
16984TIP3   OH272442   0.884   6.395   2.126 -0.1153  0.5011  0.2330
16984TIP3    H172443   0.846   6.311   2.101  0.8378  0.3399 -0.7411
16984TIP3    H272444   0.811   6.443   2.167 -1.2166 -0.0227 -1.0254
16985TIP3   OH272445   6.596   3.743   1.191  0.5891 -0.7422  0.1873
16985TIP3    H172446   6.638   3.756   1.276  1.5257 -0.7232 -0.2538
16985TIP3    H272447   6.579   3.831   1.159 -1.4023 -0.7492  1.0991
16986TIP3   OH272448   4.437   4.762   6.082  0.0211 -1.1686  0.0448
16986TIP3    H172449   4.435   4.746   6.177 -2.9164  2.1969  0.7338
16986TIP3    H272450   4.514   4.818   6.069  0.4483 -1.6586  0.3913
16987TIP3   OH272451   2.401   3.606  15.389  0.2866 -0.1146 -0.0472
16987TIP3    H172452   2.315   3.566  15.403  0.9578 -1.7820 -0.4059
16987TIP3    H272453   2.463   3.541  15.422  1.4133  1.3498  0.8394
16988TIP3   OH272454   5.194   4.374  16.899  0.6421 -0.3558 -0.4443
16988TIP3    H172455   5.256   4.309  16.932 -0.0519 -0.1681  1.3790
16988TIP3    H272456   5.204   4.373  16.804  1.5417 -2.2108 -0.3515
16989TIP3   OH272457   0.835   3.487   3.568 -0.1550  0.0818 -0.2890
16989TIP3    H172458   0.766   3.546   3.598 -0.5166 -0.6674  0.3747
16989TIP3    H272459   0.803   3.452   3.485 -0.7380 -0.5310  0.1896
16990TIP3   OH272460   0.471   1.492  16.923  0.4204 -0.1507 -0.0642
16990TIP3    H172461   0.376   1.490  16.934  0.1983 -0.5392 -1.7454
16990TIP3    H272462   0.487   1.569  16.869  1.0393 -0.2639 -0.0441
16991TIP3   OH272463   5.801   4.400   4.348 -0.4986 -1.1495  0.6402
16991TIP3    H172464   5.891   4.376   4.323  0.2341  0.7116  1.2915
16991TIP3    H272465   5.769   4.325   4.398  1.8400 -0.7148  3.0121
16992TIP3   OH272466   0.061   3.475   4.211  0.4055 -0.2837 -0.1531
16992TIP3    H172467   0.073   3.558   4.166 -0.5199  0.1518  0.3810
16992TIP3    H272468   0.006   3.423   4.152  0.2448 -0.1863 -0.0886
16993TIP3   OH272469   3.410   2.120  11.299  0.4808 -0.0499  0.0880
16993TIP3    H172470   3.445   2.174  11.228  2.2022  0.6475  1.3942
16993TIP3    H272471   3.457   2.150  11.377 -0.5965 -1.5056  1.3551
16994TIP3   OH272472   2.066   2.422   1.337 -0.0622  0.0141 -0.5814
16994TIP3    H172473   2.042   2.332   1.317  0.3100 -0.2870  0.2922
16994TIP3    H272474   1.990   2.459   1.381  0.5915 -0.6013  1.1701
16995TIP3   OH272475   4.324   2.722   5.112  0.5715 -0.2568 -0.5555
16995TIP3    H172476   4.315   2.697   5.020  1.4905 -1.9165 -0.2494
16995TIP3    H272477   4.418   2.712   5.131  0.5691  1.0774  0.3010
16996TIP3   OH272478   5.378   4.660   1.211  0.5172  0.3260 -0.2593
16996TIP3    H172479   5.417   4.703   1.134  1.6009 -0.8435 -0.4074
16996TIP3    H272480   5.334   4.583   1.175 -2.9471  2.1203 -0.2188
16997TIP3   OH272481   4.750   3.732  15.476  0.1546  0.2539  0.0187
16997TIP3    H172482   4.816   3.749  15.544  0.7181  0.2804 -0.5264
16997TIP3    H272483   4.750   3.637  15.467  0.3691  0.2754 -0.2220
16998TIP3   OH272484   1.763   5.892  13.716  0.0411 -0.0147  0.0390
16998TIP3    H172485   1.833   5.857  13.771  0.4043  1.3704  0.5068
16998TIP3    H272486   1.716   5.814  13.685  1.5111 -0.9553  0.0499
16999TIP3   OH272487   0.506   3.952  12.366  0.2899 -0.2922 -0.5360
16999TIP3    H172488   0.469   3.978  12.281  1.3355  0.6569 -0.7195
16999TIP3    H272489   0.558   4.028  12.394  1.4772 -1.2921  0.0603
17000TIP3   OH272490   3.656   1.533  15.639 -0.2828 -0.1735  0.3691
17000TIP3    H172491   3.604   1.516  15.560 -3.1264  0.6254  1.8978
17000TIP3    H272492   3.672   1.446  15.676 -1.2704 -0.4235  0.2484
17001TIP3   OH272493   3.374   6.641   0.835 -0.0932 -0.6620 -0.8611
17001TIP3    H172494   3.400   6.609   0.921  0.3962  1.1127 -0.2918
17001TIP3    H272495   3.282   6.617   0.826 -0.2249 -0.6354  0.2881
17002TIP3   OH272496   6.156   6.122  12.729  0.8059  0.2384  0.1852
17002TIP3    H172497   6.149   6.107  12.824  1.0484  0.2554  0.2084
17002TIP3    H272498   6.103   6.053  12.690  2.0113 -0.7922  0.2808
17003TIP3   OH272499   4.283   2.258  11.067 -0.4506 -0.3688 -0.0114
17003TIP3    H172500   4.284   2.176  11.116 -0.1856 -0.0349  0.5531
17003TIP3    H272501   4.239   2.236  10.985 -0.6031 -1.0159  0.2347
17004TIP3   OH272502   6.251   0.028   5.183 -0.5951  0.3209 -0.0917
17004TIP3    H172503   6.291   0.083   5.250  0.0293  0.3776 -0.4948
17004TIP3    H272504   6.157   0.037   5.197 -0.5213  1.6983 -0.2898
17005TIP3   OH272505   3.464   3.102  16.414 -0.5069  0.9074 -0.2625
17005TIP3    H172506   3.441   3.151  16.493 -1.8790 -1.7653  1.1541
17005TIP3    H272507   3.389   3.115  16.355 -1.5135 -0.4650  0.6562
17006TIP3   OH272508   6.703   2.757  16.462 -0.0423  0.3323  0.0898
17006TIP3    H172509   6.654   2.707  16.396  0.5920  0.1207 -0.2218
17006TIP3    H272510   6.638   2.774  16.530 -0.5615  0.0658 -0.3245
17007TIP3   OH272511   1.206   5.664  16.219  0.1193  0.0893  0.4122
17007TIP3    H172512   1.238   5.616  16.142  1.0035  0.4917  0.5205
17007TIP3    H272513   1.256   5.745  16.219 -1.3026  1.0111  0.2804
17008TIP3   OH272514   0.110   4.362   1.497  0.0726  0.7520  0.4527
17008TIP3    H172515   0.196   4.359   1.457  0.4469 -0.9485  1.2937
17008TIP3    H272516   0.074   4.274   1.484 -0.9928  1.0398  1.2822
17009TIP3   OH272517   3.551   2.894  14.469  0.5801 -0.5866  0.1646
17009TIP3    H172518   3.548   2.828  14.400 -0.2227 -0.5795  0.1863
17009TIP3    H272519   3.613   2.858  14.533  0.8900 -0.8594 -0.2793
17010TIP3   OH272520   1.262   3.562  16.755  0.1993  0.8009 -0.2182
17010TIP3    H172521   1.260   3.607  16.839 -1.6745 -0.3317  0.4053
17010TIP3    H272522   1.310   3.481  16.772  0.3375  0.8401 -0.4120
17011TIP3   OH272523   0.069   3.066   3.148  0.0200  0.1404  0.3084
17011TIP3    H172524   0.041   3.143   3.098  0.2571  1.0843  1.5869
17011TIP3    H272525   0.035   3.081   3.236  0.3947 -1.0516  0.6694
17012TIP3   OH272526   2.524   4.115   1.699 -0.0684 -0.0040 -0.2645
17012TIP3    H172527   2.598   4.176   1.702  0.6600 -0.8954  1.4789
17012TIP3    H272528   2.449   4.169   1.673  1.0300  1.0751 -1.2946
17013TIP3   OH272529   4.448   3.494   5.060 -0.4190  0.0878  0.1795
17013TIP3    H172530   4.406   3.417   5.098  2.6112 -2.3759 -1.0308
17013TIP3    H272531   4.533   3.499   5.104  0.5566  1.0078 -1.7011
17014TIP3   OH272532   2.760   4.099  16.363 -0.4741 -0.0665 -0.1311
17014TIP3    H172533   2.829   4.127  16.302 -1.8238  0.4376 -1.4737
17014TIP3    H272534   2.728   4.016  16.327 -0.4938 -0.3817  0.5781
17015TIP3   OH272535   6.708   6.210   0.304  0.8440 -0.1135  0.0758
17015TIP3    H172536   6.713   6.116   0.291 -0.0732 -0.1600  0.0461
17015TIP3    H272537   6.727   6.224   0.397 -0.3995 -0.4546  0.3975
17016TIP3   OH272538   6.503   0.888  16.204  0.6094  0.4227 -0.0639
17016TIP3    H172539   6.510   0.869  16.298  1.6300 -0.7051 -0.3434
17016TIP3    H272540   6.584   0.933  16.182  0.8854 -0.3277 -0.6218
17017TIP3   OH272541   2.450   3.087  15.403 -0.1560 -0.2941 -0.6731
17017TIP3    H172542   2.425   3.027  15.474  1.0480  0.2351  0.2334
17017TIP3    H272543   2.407   3.170  15.425 -1.2266 -0.5870 -1.5422
17018TIP3   OH272544   6.396   4.091  11.777  0.0286 -0.0887  0.2438
17018TIP3    H172545   6.330   4.129  11.719  1.7074 -0.8302 -2.3111
17018TIP3    H272546   6.433   4.166  11.824 -0.2889  0.7657 -0.8376
17019TIP3   OH272547   1.532   0.200   6.040 -0.4476  0.0954 -0.2336
17019TIP3    H172548   1.590   0.245   5.978  0.4995 -0.5072  0.2043
17019TIP3    H272549   1.445   0.233   6.018 -0.0196  0.5921 -1.2752
17020TIP3   OH272550   1.684   2.262  14.465  0.2294 -0.9711  0.2852
17020TIP3    H172551   1.706   2.350  14.495  0.2059 -0.8065 -0.1603
17020TIP3    H272552   1.592   2.251  14.489  0.1385 -0.7433  0.0462
17021TIP3   OH272553   4.439   4.541  14.398  0.0221  0.2114  0.5004
17021TIP3    H172554   4.371   4.495  14.447  0.4851 -0.0245  0.9327
17021TIP3    H272555   4.495   4.471  14.364  0.4777  0.4289  0.7837
17022TIP3   OH272556   3.061   5.890   5.006 -0.1681 -0.0972 -0.5364
17022TIP3    H172557   2.980   5.918   4.964 -0.2530 -1.6127 -1.4473
17022TIP3    H272558   3.123   5.879   4.934  0.7100  0.5288  0.0941
17023TIP3   OH272559   3.507   5.667   0.368  0.3078  0.3392  0.4006
17023TIP3    H172560   3.514   5.674   0.272 -0.9912  1.3793  0.3490
17023TIP3    H272561   3.497   5.574   0.385 -0.2610  0.2112 -0.5598
17024TIP3   OH272562   5.957   1.448  11.478 -0.4613 -0.5320 -0.2579
17024TIP3    H172563   5.967   1.476  11.568 -1.5336 -0.7996 -0.0389
17024TIP3    H272564   6.035   1.481  11.433 -0.9150  1.4061  0.3044
17025TIP3   OH272565   0.065   2.387  14.701  0.4227  0.0910  0.0779
17025TIP3    H172566   0.137   2.442  14.733 -0.9841  1.1750  1.5046
17025TIP3    H272567   0.047   2.326  14.773  0.3828 -0.6762 -0.5643
17026TIP3   OH272568   6.151   3.473  12.044 -0.0485 -0.3199 -0.3085
17026TIP3    H172569   6.241   3.465  12.074  0.0574  0.5504 -0.3788
17026TIP3    H272570   6.126   3.563  12.064 -0.9321 -0.5706 -0.2147
17027TIP3   OH272571   2.441   3.594   0.503  0.1886  0.2868 -0.0850
17027TIP3    H172572   2.354   3.556   0.517  0.1894  0.7318  1.2904
17027TIP3    H272573   2.453   3.653   0.578  1.3612  0.8140 -0.6712
17028TIP3   OH272574   4.957   4.587  10.722  0.0858  0.0100 -0.5274
17028TIP3    H172575   5.022   4.633  10.775  0.5701  0.1001 -1.1991
17028TIP3    H272576   4.911   4.655  10.674  0.8222 -0.1877 -1.5444
17029TIP3   OH272577   1.264   5.798  13.055  0.6789  0.0154 -0.2521
17029TIP3    H172578   1.316   5.777  12.977 -0.2193 -0.1297 -0.8201
17029TIP3    H272579   1.328   5.802  13.125  1.6305  0.9627 -1.1294
17030TIP3   OH272580   1.445   0.198   3.518  0.9763 -0.2674  0.1886
17030TIP3    H172581   1.391   0.248   3.457 -1.3312 -1.6700  0.9423
17030TIP3    H272582   1.449   0.110   3.480  1.1734 -0.6511  1.0667
17031TIP3   OH272583   0.054   5.663  15.680  0.2536  0.5244 -0.2779
17031TIP3    H172584   0.077   5.697  15.766  0.0202  0.8004 -0.3250
17031TIP3    H272585   0.137   5.630  15.645  0.6175  1.6312 -0.4949
17032TIP3   OH272586   4.038   3.716   0.403  0.0557  0.4376  0.6429
17032TIP3    H172587   3.945   3.733   0.389 -0.0224  0.5254  1.2681
17032TIP3    H272588   4.044   3.680   0.491  0.6639  0.9027  0.8042
17033TIP3   OH272589   5.666   3.274   0.631  0.1777 -0.1706  0.0964
17033TIP3    H172590   5.710   3.231   0.704 -1.3263 -0.7192  0.7160
17033TIP3    H272591   5.573   3.256   0.644 -0.2541  0.9000 -1.1920
17034TIP3   OH272592   1.747   3.311  15.033  0.4069 -0.5991  0.1795
17034TIP3    H172593   1.752   3.384  15.095  0.8473 -0.3454 -0.1532
17034TIP3    H272594   1.833   3.270  15.037  0.7919  0.0446 -1.0098
17035TIP3   OH272595   1.369   5.996   1.005  0.5064 -0.1665  0.3941
17035TIP3    H172596   1.313   5.971   1.079  0.5411 -2.0821 -0.1571
17035TIP3    H272597   1.435   5.927   1.001  2.0141  1.2565  0.0867
17036TIP3   OH272598   2.663   4.193   0.211 -0.0532 -0.5606  0.4468
17036TIP3    H172599   2.732   4.252   0.179 -1.5729  0.8892 -0.3083
17036TIP3    H272600   2.711   4.121   0.251  1.9314  1.0752  1.2429
17037TIP3   OH272601   6.060   3.496  13.842 -0.4965  0.2543  0.0937
17037TIP3    H172602   6.003   3.542  13.905 -0.3200 -0.5285  0.8424
17037TIP3    H272603   6.148   3.526  13.864 -0.4972  0.5401 -0.2751
17038TIP3   OH272604   5.933   3.764   1.337 -0.0579  0.1446 -0.7927
17038TIP3    H172605   5.846   3.768   1.297 -0.0557  1.6554 -0.7185
17038TIP3    H272606   5.981   3.837   1.297 -0.6601  3.1009  3.2439
17039TIP3   OH272607   0.287   6.316   1.006  0.1053 -0.5680 -0.3130
17039TIP3    H172608   0.207   6.287   0.962 -0.0646 -1.5582  0.6013
17039TIP3    H272609   0.256   6.374   1.076  0.2788 -0.0123 -0.6936
17040TIP3   OH272610   1.954   1.329  13.184 -0.1811 -0.0355  0.6741
17040TIP3    H172611   1.995   1.297  13.104 -1.1157 -0.5025  0.3704
17040TIP3    H272612   1.967   1.424  13.181  0.2993 -0.1117  0.2678
17041TIP3   OH272613   6.670   6.509   4.527  0.4117 -0.5556  0.2895
17041TIP3    H172614   6.724   6.524   4.450 -0.4696 -0.3786 -0.3159
17041TIP3    H272615   6.602   6.449   4.496  0.1590 -0.6263  0.9796
17042TIP3   OH272616   6.134   6.248   6.288 -0.0710 -0.1257 -0.0283
17042TIP3    H172617   6.063   6.209   6.339 -1.7541  3.9495  1.1582
17042TIP3    H272618   6.095   6.268   6.203 -0.2811  1.5458  0.4111
17043TIP3   OH272619   2.128   4.261  13.068 -0.7283  0.0633  0.1214
17043TIP3    H172620   2.162   4.251  13.157 -0.3143 -0.7947 -0.1206
17043TIP3    H272621   2.037   4.232  13.075 -0.9152  0.7059  0.4137
17044TIP3   OH272622   1.394   2.677  12.651  0.3069 -0.5769  0.4690
17044TIP3    H172623   1.451   2.649  12.723  2.7069  1.6228 -0.4189
17044TIP3    H272624   1.376   2.770  12.669 -1.2090 -0.6530 -0.4650
17045TIP3   OH272625   4.047   3.986   5.005  0.3201 -0.1394  0.2542
17045TIP3    H172626   4.075   4.063   4.955 -0.0689 -0.3880 -0.3624
17045TIP3    H272627   4.128   3.948   5.036  0.7404 -0.9941 -1.7246
17046TIP3   OH272628   1.689   5.438  15.229  0.0791 -0.5551 -0.3593
17046TIP3    H172629   1.644   5.516  15.198  0.2125 -1.0175 -1.7481
17046TIP3    H272630   1.777   5.469  15.253 -0.4420  0.0482  0.8760
17047TIP3   OH272631   3.184   0.475  15.169 -0.0674  0.7100 -0.0738
17047TIP3    H172632   3.277   0.455  15.157 -0.1572  0.7696 -0.9884
17047TIP3    H272633   3.151   0.405  15.225  0.3287  0.1461 -0.5367
17048TIP3   OH272634   4.598   1.960   2.087  0.1281 -0.7808  0.1425
17048TIP3    H172635   4.631   2.050   2.089 -0.1392 -0.6137 -1.3727
17048TIP3    H272636   4.582   1.938   2.178  1.1156  0.3684  0.6131
17049TIP3   OH272637   0.514   5.416  15.179 -0.1407 -0.7676 -0.1869
17049TIP3    H172638   0.522   5.331  15.137 -4.5995 -2.3545  1.5820
17049TIP3    H272639   0.444   5.460  15.131  0.7322  1.1314  0.1757
17050TIP3   OH272640   3.857   0.980   0.489  0.0709 -0.2712  0.1495
17050TIP3    H172641   3.817   0.898   0.517  0.8591 -0.5738  0.4191
17050TIP3    H272642   3.930   0.953   0.432  0.8730  0.1964  0.9363
17051TIP3   OH272643   3.960   6.649   0.080 -0.3895  0.7411 -0.8038
17051TIP3    H172644   3.918   6.574   0.122  2.0134 -0.2264  0.0454
17051TIP3    H272645   3.910   6.725   0.110 -1.9036 -0.3639 -0.4109
17052TIP3   OH272646   5.177   0.474   6.116  0.8506  0.3381  0.5352
17052TIP3    H172647   5.174   0.379   6.132 -2.2744  0.2373 -0.1147
17052TIP3    H272648   5.248   0.485   6.053 -0.0471 -1.8620 -0.9800
17053TIP3   OH272649   2.154   3.297   4.013 -0.2829  0.2592 -0.3251
17053TIP3    H172650   2.177   3.231   4.078  0.4276 -0.5028 -1.3173
17053TIP3    H272651   2.200   3.270   3.934 -1.3637  0.9896 -1.2363
17054TIP3   OH272652   0.791   5.551   5.880  0.3178 -0.1451 -0.0162
17054TIP3    H172653   0.761   5.505   5.801  0.2986  1.6630 -1.1267
17054TIP3    H272654   0.885   5.534   5.883  0.1991 -0.8291 -0.0017
17055TIP3   OH272655   0.043   5.048   0.450 -0.9842  0.3385  0.1170
17055TIP3    H172656   0.090   4.965   0.450 -1.7959 -0.1365 -0.2306
17055TIP3    H272657  -0.050   5.023   0.456 -1.1806  1.2562  1.1810
17056TIP3   OH272658   6.598   4.734  12.411  0.3958 -0.0395 -0.2512
17056TIP3    H172659   6.623   4.642  12.404  1.3293  0.1960 -0.1385
17056TIP3    H272660   6.575   4.746  12.503 -1.5575 -0.5921 -0.6247
17057TIP3   OH272661   2.645   0.551   0.704  0.5867  0.0251  0.1261
17057TIP3    H172662   2.590   0.628   0.714  0.5510  0.0763 -0.4759
17057TIP3    H272663   2.718   0.566   0.764 -0.1555 -0.1541  1.1160
17058TIP3   OH272664   5.501   6.225  16.483 -0.9144  0.1421 -0.2260
17058TIP3    H172665   5.518   6.283  16.409  0.5133  1.7057  1.2331
17058TIP3    H272666   5.538   6.141  16.457  2.0410  1.3528 -0.3560
17059TIP3   OH272667   0.229   2.517   1.536 -0.7669 -0.1811 -0.3303
17059TIP3    H172668   0.275   2.442   1.497 -0.3517 -0.6943  1.0665
17059TIP3    H272669   0.234   2.501   1.630 -1.1240  1.3595 -0.0257
17060TIP3   OH272670   3.537   5.802  11.754  0.2156  0.2197 -0.2731
17060TIP3    H172671   3.460   5.796  11.697 -0.6923 -0.9042  1.0080
17060TIP3    H272672   3.531   5.889  11.793 -0.2826  0.2347 -0.3735
17061TIP3   OH272673   6.404   3.266  13.416  0.0475 -0.7349  0.1821
17061TIP3    H172674   6.339   3.209  13.457  0.8500 -2.5871 -0.9811
17061TIP3    H272675   6.488   3.235  13.451  0.4686  0.2162  0.0454
17062TIP3   OH272676   1.872   0.643  14.147  0.3959 -0.5836  0.4391
17062TIP3    H172677   1.939   0.706  14.175  0.8534 -0.7175 -0.3296
17062TIP3    H272678   1.816   0.692  14.087  1.9912 -1.4045 -1.8569
17063TIP3   OH272679   4.433   4.797  11.390  0.5349  0.6997 -0.1170
17063TIP3    H172680   4.454   4.881  11.432 -0.9455  1.0891 -0.1062
17063TIP3    H272681   4.406   4.821  11.301  4.0677 -0.1527 -1.5680
17064TIP3   OH272682   5.213   0.584  11.014  0.1271 -0.2841 -0.7057
17064TIP3    H172683   5.199   0.647  11.085  0.1281 -2.1476  1.0461
17064TIP3    H272684   5.299   0.546  11.033 -0.4809 -1.8063 -0.8716
17065TIP3   OH272685   1.414   1.851  13.582  0.1545 -0.2293 -0.0833
17065TIP3    H172686   1.387   1.759  13.580 -0.6311 -0.1188  2.0448
17065TIP3    H272687   1.491   1.852  13.641 -0.2664  0.5402  0.4779
17066TIP3   OH272688   3.959   2.317  16.615  0.5691 -0.6463  0.3482
17066TIP3    H172689   3.904   2.239  16.623  1.7100 -1.4204  1.0604
17066TIP3    H272690   4.019   2.311  16.690 -0.6030  1.9856  1.6199
17067TIP3   OH272691   1.995   4.157  13.692 -0.3208  0.0486  0.5817
17067TIP3    H172692   1.940   4.196  13.624  1.6648  0.3717 -0.9394
17067TIP3    H272693   1.969   4.202  13.773 -1.4979  0.9601 -0.2692
17068TIP3   OH272694   6.684   1.841  16.084 -0.2110  0.5474  0.1154
17068TIP3    H172695   6.712   1.784  16.156  0.5291  1.7826  0.8500
17068TIP3    H272696   6.765   1.882  16.054 -0.6067  0.5256 -1.0268
17069TIP3   OH272697   3.090   6.571  14.131 -0.0352  0.1140  0.2833
17069TIP3    H172698   3.023   6.509  14.160 -1.5641  0.1216 -2.8958
17069TIP3    H272699   3.045   6.655  14.130  0.3631  0.3210 -0.7850
17070TIP3   OH272700   5.326   4.636  16.784  0.6482 -0.2093 -0.5874
17070TIP3    H172701   5.335   4.674  16.697  0.7447 -1.1155 -0.9850
17070TIP3    H272702   5.383   4.559  16.783  0.6896 -0.2057  0.2915
17071TIP3   OH272703   5.980   0.001  12.984  0.7597  0.0938  0.0546
17071TIP3    H172704   5.913  -0.021  12.919 -1.0798  3.8933  0.4375
17071TIP3    H272705   5.933   0.002  13.067  1.6063  1.4190  0.5405
17072TIP3   OH272706   4.606   2.593  12.124 -0.0941 -0.3356 -0.4331
17072TIP3    H172707   4.629   2.519  12.179 -1.9510  0.2744  1.2799
17072TIP3    H272708   4.634   2.670  12.173 -0.3753  0.1869 -1.0692
17073TIP3   OH272709   1.051   4.645  12.899 -1.0069  0.1058 -0.1044
17073TIP3    H172710   0.995   4.568  12.911  0.2385 -0.7351  0.5860
17073TIP3    H272711   1.126   4.612  12.849 -0.0016  0.6194  1.0246
17074TIP3   OH272712   0.101   5.195  12.552  0.0621  0.2753  0.2730
17074TIP3    H172713   0.054   5.264  12.598 -1.5153  0.9011 -2.0399
17074TIP3    H272714   0.112   5.229  12.463 -0.2327 -2.1707 -0.7927
17075TIP3   OH272715   5.559   4.322   5.558  0.1513  0.4273 -0.5573
17075TIP3    H172716   5.649   4.292   5.573  0.3057  0.9154 -0.4841
17075TIP3    H272717   5.567   4.417   5.547 -0.2400  0.3620 -1.5137
17076TIP3   OH272718   6.616   1.346   1.823 -0.3513 -0.0950  0.7658
17076TIP3    H172719   6.605   1.303   1.908 -0.7259 -1.7824 -0.0964
17076TIP3    H272720   6.709   1.333   1.802 -0.9397 -2.6753 -0.5640
17077TIP3   OH272721   3.338   0.245   2.524 -0.5325  0.4331 -0.5708
17077TIP3    H172722   3.336   0.305   2.598  1.3662  0.6247 -0.6381
17077TIP3    H272723   3.284   0.171   2.552 -0.0266  0.5945  0.9321
17078TIP3   OH272724   3.940   1.889  12.024 -0.1519 -0.5694 -0.1698
17078TIP3    H172725   4.014   1.950  12.035  0.0840 -0.7759 -0.5658
17078TIP3    H272726   3.862   1.944  12.038  0.0682 -0.2743 -0.0798
17079TIP3   OH272727   4.580   6.289   3.528 -0.2077 -0.7068 -0.0903
17079TIP3    H172728   4.641   6.358   3.502  0.0464 -0.7636  0.3390
17079TIP3    H272729   4.497   6.335   3.544  0.5622 -0.0485  2.6778
17080TIP3   OH272730   1.271   0.728   0.372 -0.2695  0.1534  0.5352
17080TIP3    H172731   1.231   0.794   0.316 -0.4557  0.7763  1.3930
17080TIP3    H272732   1.359   0.761   0.390 -0.8728  0.9624  2.2113
17081TIP3   OH272733   6.564   3.055   1.921  0.0656 -0.9676 -1.0324
17081TIP3    H172734   6.577   2.981   1.862 -0.5726  0.7374 -3.4531
17081TIP3    H272735   6.504   3.113   1.874 -0.0995  0.7248  1.1177
17082TIP3   OH272736   3.893   1.943   1.559  0.2021  0.3959 -0.4441
17082TIP3    H172737   3.924   2.029   1.531 -1.1010  0.6124 -1.2963
17082TIP3    H272738   3.867   1.899   1.478 -1.3666  0.1022  0.1977
17083TIP3   OH272739   3.230   0.456  13.059 -0.4597  0.3544  0.0156
17083TIP3    H172740   3.325   0.466  13.059 -0.3870 -0.0528  1.5784
17083TIP3    H272741   3.207   0.442  12.967  1.0383 -0.0327 -0.3237
17084TIP3   OH272742   3.262   3.719   2.691 -0.0100 -0.4718 -0.5300
17084TIP3    H172743   3.190   3.717   2.754  0.4290 -1.0567 -0.0222
17084TIP3    H272744   3.339   3.695   2.744  0.5758  0.2882 -1.0248
17085TIP3   OH272745   3.608   1.495  15.084 -0.6420  0.1606 -0.2093
17085TIP3    H172746   3.541   1.442  15.127  1.3464 -1.3867  1.1819
17085TIP3    H272747   3.673   1.431  15.054  0.2656  1.6000 -1.4318
17086TIP3   OH272748   5.315   2.658   5.069 -0.3592  0.1448  0.6011
17086TIP3    H172749   5.265   2.682   5.147  0.8019  0.4335  1.2913
17086TIP3    H272750   5.344   2.568   5.086  1.4897  0.8349  1.4212
17087TIP3   OH272751   3.452   4.851  13.291 -0.9383  0.8054  0.0801
17087TIP3    H172752   3.361   4.827  13.305 -0.4969 -0.7048  0.4641
17087TIP3    H272753   3.503   4.785  13.338  0.3489  2.1796  0.7020
17088TIP3   OH272754   2.473   0.819   5.779  0.2061 -0.2547 -0.1207
17088TIP3    H172755   2.419   0.841   5.855 -0.8865 -1.1669 -0.6106
17088TIP3    H272756   2.515   0.901   5.755 -1.5570  0.6831 -0.1751
17089TIP3   OH272757   1.337   5.218   2.095  0.3061  0.1710  0.3829
17089TIP3    H172758   1.328   5.248   2.004  0.0842  0.5397  0.5289
17089TIP3    H272759   1.258   5.168   2.111  0.8568 -0.8646  0.0052
17090TIP3   OH272760   1.337   4.288  15.723 -0.3880 -0.3421  0.0721
17090TIP3    H172761   1.331   4.376  15.685 -0.7299 -0.4970 -0.2342
17090TIP3    H272762   1.295   4.297  15.809 -1.8255 -0.5577 -0.5820
17091TIP3   OH272763   4.003   0.607  12.159 -0.1758 -0.5313  0.5238
17091TIP3    H172764   4.020   0.606  12.065  1.1907 -0.1957  0.7482
17091TIP3    H272765   3.934   0.673  12.171 -0.6870 -0.9093 -0.2787
17092TIP3   OH272766   2.475   0.534   5.791 -0.1734 -0.2591  0.0812
17092TIP3    H172767   2.569   0.530   5.770 -0.1051 -1.9210  0.4997
17092TIP3    H272768   2.462   0.622   5.826  1.4850 -0.3443  1.0516
17093TIP3   OH272769   4.076   0.580  14.856  0.4211  0.0355 -0.2528
17093TIP3    H172770   4.091   0.595  14.763  0.4962 -0.0903 -0.2611
17093TIP3    H272771   4.084   0.485  14.866  0.2436  0.0303 -0.1482
17094TIP3   OH272772   1.677   4.973  11.247  0.2875  0.5228  0.6674
17094TIP3    H172773   1.695   4.980  11.154  0.5618  2.2146  0.8136
17094TIP3    H272774   1.751   4.924  11.283  0.7400  0.8120  0.1416
17095TIP3   OH272775   0.450   2.272   0.780  0.2194 -0.9263 -0.0826
17095TIP3    H172776   0.357   2.257   0.763 -0.5528  0.1382  2.6841
17095TIP3    H272777   0.467   2.360   0.748  0.1252 -0.8834 -0.0129
17096TIP3   OH272778   4.855   6.433  11.665 -0.2319  0.3069 -0.0485
17096TIP3    H172779   4.839   6.433  11.760 -0.0066 -2.3828  0.0712
17096TIP3    H272780   4.769   6.415  11.627 -0.0965  0.0917 -0.2565
17097TIP3   OH272781   1.945   4.114   0.264  0.0678  0.0690 -0.5739
17097TIP3    H172782   1.878   4.080   0.324 -1.3391 -0.0176 -2.1207
17097TIP3    H272783   2.012   4.151   0.322 -0.6738 -1.0049  1.0582
17098TIP3   OH272784   2.811   4.769   1.952  0.4469 -0.1543  0.7310
17098TIP3    H172785   2.744   4.822   1.909 -0.0814 -0.4651  1.1467
17098TIP3    H272786   2.842   4.823   2.024  2.0209  0.7580 -0.5590
17099TIP3   OH272787   3.890   5.475   3.212  0.1428 -0.3416  0.3883
17099TIP3    H172788   3.897   5.531   3.290 -1.1729  0.2147  0.1414
17099TIP3    H272789   3.952   5.514   3.150 -2.0436  2.0926 -0.4514
17100TIP3   OH272790   5.297   2.698   0.317 -0.1720  0.0675  0.5622
17100TIP3    H172791   5.335   2.746   0.243 -1.5529 -0.2102 -0.3536
17100TIP3    H272792   5.345   2.731   0.393  2.9450 -1.3174 -0.6343
17101TIP3   OH272793   0.453   2.622  13.967  0.3827 -0.0584 -0.3085
17101TIP3    H172794   0.416   2.534  13.958  1.0713 -0.5874  1.5631
17101TIP3    H272795   0.383   2.681  13.940 -0.6553 -1.1281 -0.0159
17102TIP3   OH272796   1.637   1.398  12.597  0.0195  0.4647  0.2683
17102TIP3    H172797   1.733   1.403  12.602  0.3207 -1.6193 -1.6228
17102TIP3    H272798   1.609   1.381  12.687  1.4202  0.9038  0.8210
17103TIP3   OH272799   2.567   1.767   3.426 -0.4576  0.0608 -0.5093
17103TIP3    H172800   2.579   1.677   3.397 -0.6481  0.5308 -2.1163
17103TIP3    H272801   2.634   1.779   3.494 -0.4229 -1.2621 -0.2770
17104TIP3   OH272802   0.198   0.645  15.443  0.1757 -0.4839 -0.0265
17104TIP3    H172803   0.130   0.672  15.381 -0.8771 -1.7570  0.5123
17104TIP3    H272804   0.274   0.698  15.419  0.2594 -1.8255 -3.2773
17105TIP3   OH272805   5.041   2.926   4.978  0.1321  0.1631 -0.0005
17105TIP3    H172806   5.069   2.865   4.910  0.6118 -0.8046  1.0321
17105TIP3    H272807   5.117   2.984   4.989  1.1562 -1.3665  1.5616
17106TIP3   OH272808   4.785   2.093  16.212 -0.4509  0.1299  1.0772
17106TIP3    H172809   4.771   2.011  16.260 -0.5575  0.1974  1.1629
17106TIP3    H272810   4.852   2.072  16.147 -0.4895 -0.0297  1.0882
17107TIP3   OH272811   4.827   1.974  12.191  0.0434 -0.1030 -0.3214
17107TIP3    H172812   4.735   1.973  12.215  0.3036  0.9830  0.8388
17107TIP3    H272813   4.833   2.037  12.120  0.2157  1.7982  1.2897
17108TIP3   OH272814   4.499   5.949  16.117 -0.6275  0.1040  0.0351
17108TIP3    H172815   4.487   6.010  16.190 -1.5306 -3.0691  2.7968
17108TIP3    H272816   4.411   5.933  16.084 -0.5841 -0.6741  0.2666
17109TIP3   OH272817   3.143   1.603   5.391  0.7792  0.0523 -0.4183
17109TIP3    H172818   3.122   1.510   5.400  0.0512  0.0429 -1.9017
17109TIP3    H272819   3.100   1.629   5.310 -0.7389  2.1939  0.9958
17110TIP3   OH272820   3.346   4.268  13.936  0.1878 -0.0725  0.4397
17110TIP3    H172821   3.361   4.203  13.868  0.9281  0.6134 -0.0754
17110TIP3    H272822   3.259   4.303  13.916  0.3682  0.0728 -0.1200
17111TIP3   OH272823   1.589   5.360   1.877 -0.1129  0.1620  0.3800
17111TIP3    H172824   1.598   5.265   1.882 -0.3191  0.1561  0.6473
17111TIP3    H272825   1.664   5.395   1.925  2.7136  0.2114 -3.6133
17112TIP3   OH272826   3.058   4.278  10.909 -0.0044  0.1254 -0.2094
17112TIP3    H172827   2.996   4.294  10.979 -1.5757  0.1100 -1.5351
17112TIP3    H272828   3.020   4.320  10.832  1.8938  0.5606 -0.9792
17113TIP3   OH272829   4.296   6.377   4.775 -0.0154 -0.7617  0.0120
17113TIP3    H172830   4.354   6.380   4.698 -1.3699  2.3787 -1.0191
17113TIP3    H272831   4.347   6.330   4.841  2.0633 -1.6671 -2.0791
17114TIP3   OH272832   4.735   4.484  12.884 -0.2959 -0.4788  0.5641
17114TIP3    H172833   4.707   4.502  12.794  0.7918 -0.9948  0.0913
17114TIP3    H272834   4.707   4.560  12.934 -1.3262 -0.3908 -0.1232
17115TIP3   OH272835   2.064   6.785   4.090 -1.2836  0.1128  0.6429
17115TIP3    H172836   2.023   6.699   4.091  0.7627 -0.9994 -1.5072
17115TIP3    H272837   2.086   6.801   3.998  1.4076  1.3718  1.3762
17116TIP3   OH272838   3.913   3.108   3.968  0.2986 -0.3163  0.3529
17116TIP3    H172839   3.886   3.059   3.890  1.4411  3.1355 -2.4875
17116TIP3    H272840   3.833   3.148   4.001  0.1744  0.3830 -0.7658
17117TIP3   OH272841   1.479   4.671  15.494  0.1151  0.3934 -0.9371
17117TIP3    H172842   1.564   4.698  15.459 -0.2405  1.0948 -1.2913
17117TIP3    H272843   1.478   4.576  15.484  1.0958  0.3175 -0.3731
17118TIP3   OH272844   5.390   5.355   6.155  0.1667  0.8008 -0.5266
17118TIP3    H172845   5.419   5.303   6.230  0.0026 -0.5303 -1.3535
17118TIP3    H272846   5.348   5.292   6.097 -2.1846  2.2296 -0.5334
17119TIP3   OH272847   0.808   5.148  16.449 -0.2840 -0.1692 -0.0805
17119TIP3    H172848   0.840   5.107  16.369  1.6257  0.9823  0.0311
17119TIP3    H272849   0.713   5.142  16.443 -0.2067  0.1516 -2.5936
17120TIP3   OH272850   3.993   4.780  11.070 -0.6769 -0.7884 -0.6900
17120TIP3    H172851   3.940   4.706  11.097  0.1814 -1.6410 -1.2636
17120TIP3    H272852   4.078   4.742  11.046 -0.4870  0.2614 -1.8079
17121TIP3   OH272853   0.061   3.705   5.847 -0.6222  0.0180  0.3749
17121TIP3    H172854   0.023   3.664   5.769  0.9544  0.1571 -0.4836
17121TIP3    H272855   0.034   3.796   5.842  0.1250  0.2063 -0.4458
17122TIP3   OH272856   6.811   4.097  11.540  0.0107  1.1356  0.1959
17122TIP3    H172857   6.756   4.171  11.565  0.5168  1.7635 -0.5268
17122TIP3    H272858   6.886   4.101  11.600 -1.1563 -0.3136  1.8639
17123TIP3   OH272859   0.017   5.539   4.409 -0.0217 -0.2962 -0.0652
17123TIP3    H172860  -0.024   5.474   4.465  0.8496  0.8438  1.9890
17123TIP3    H272861  -0.055   5.592   4.375 -0.6008 -1.3873 -0.5770
17124TIP3   OH272862   1.972   0.565  12.715  0.5796  0.0245  0.9685
17124TIP3    H172863   2.002   0.541  12.802 -1.6028 -2.2623  1.2145
17124TIP3    H272864   2.032   0.520  12.655 -0.0896 -1.4904  1.3893
17125TIP3   OH272865   0.247   0.111  11.802 -0.1355 -0.0105 -0.5109
17125TIP3    H172866   0.235   0.183  11.741  1.5457  0.8734  0.1294
17125TIP3    H272867   0.225   0.033  11.752 -3.8858  0.9754 -0.6964
17126TIP3   OH272868   2.948   1.037  15.243  0.3847  0.4886  0.4131
17126TIP3    H172869   2.985   1.110  15.290 -1.8477 -0.1617  3.4786
17126TIP3    H272870   2.996   0.960  15.274  0.5472  0.2799 -0.3169
17127TIP3   OH272871   0.148   4.735   3.116 -0.1232 -0.5407 -0.0969
17127TIP3    H172872   0.210   4.803   3.089  0.3511  0.2334  2.6153
17127TIP3    H272873   0.116   4.698   3.034  1.2377  1.4721 -1.6505
17128TIP3   OH272874   1.431   0.494   2.108  0.4667 -0.3801 -0.1258
17128TIP3    H172875   1.419   0.442   2.028 -1.1698 -2.2388  1.2267
17128TIP3    H272876   1.368   0.565   2.099 -0.9320 -1.5243  0.1824
17129TIP3   OH272877   5.681   6.484   4.049 -0.1802 -0.0828  0.2959
17129TIP3    H172878   5.594   6.449   4.064  0.2090 -0.7457  1.1032
17129TIP3    H272879   5.737   6.438   4.113  0.7638  0.2763 -0.2491
17130TIP3   OH272880   3.154   5.835   6.755 -0.4405 -0.1727 -0.0312
17130TIP3    H172881   3.114   5.909   6.709 -1.1136  0.1235  0.9778
17130TIP3    H272882   3.220   5.876   6.811 -1.2217 -0.2361  0.9757
17131TIP3   OH272883   4.703   0.105  16.847 -0.6328  0.1976 -0.2772
17131TIP3    H172884   4.703   0.189  16.893  1.4873  0.2806 -0.3164
17131TIP3    H272885   4.625   0.060  16.879  0.0239  0.7905  2.4222
17132TIP3   OH272886   4.267   6.115   4.060  0.2388 -0.0996  0.7627
17132TIP3    H172887   4.318   6.193   4.083  0.5930 -0.2966  0.6527
17132TIP3    H272888   4.331   6.044   4.061 -0.2764 -0.5762  1.9391
17133TIP3   OH272889   4.046   0.082   6.270 -0.1172  0.1917 -0.0488
17133TIP3    H172890   4.101   0.015   6.229 -0.5376 -0.6680  0.7534
17133TIP3    H272891   3.968   0.086   6.216 -0.7675 -1.0975  0.7364
17134TIP3   OH272892   3.532   0.870  11.434 -0.2527  0.2155 -0.3075
17134TIP3    H172893   3.543   0.906  11.521  0.4299 -2.6582  0.8942
17134TIP3    H272894   3.449   0.907  11.403 -0.8528  0.7525  1.8239
17135TIP3   OH272895   1.659   2.169   4.907  0.0868 -0.8920  0.0634
17135TIP3    H172896   1.608   2.097   4.870  1.1670 -2.1905  0.9857
17135TIP3    H272897   1.593   2.228   4.945 -0.8922 -0.6377 -1.9136
17136TIP3   OH272898   3.867   5.823   3.233  0.2340 -0.3608 -0.2025
17136TIP3    H172899   3.894   5.864   3.152 -0.2031  0.2368 -0.0529
17136TIP3    H272900   3.948   5.803   3.279  0.4648 -0.2768 -0.5736
17137TIP3   OH272901   1.910   4.145  10.503 -0.2101  0.3272 -0.1627
17137TIP3    H172902   1.817   4.131  10.485 -0.5312  0.2066  1.4303
17137TIP3    H272903   1.939   4.205  10.435 -1.9027  1.8020  0.3362
17138TIP3   OH272904   3.304   1.238   1.324  0.2675  0.2463 -0.1176
17138TIP3    H172905   3.268   1.158   1.363  1.0270  0.2017  0.4993
17138TIP3    H272906   3.380   1.209   1.274  0.1454  0.5014 -0.4597
17139TIP3   OH272907   3.144   2.869   1.454 -0.1777 -0.1354 -0.0689
17139TIP3    H172908   3.049   2.878   1.463 -0.3923 -1.3009 -0.8708
17139TIP3    H272909   3.162   2.897   1.364  0.2294  0.0105  0.0571
17140TIP3   OH272910   4.348   3.265  11.378  0.0058 -0.4705  0.4145
17140TIP3    H172911   4.365   3.354  11.408  1.5393 -0.3781 -0.6298
17140TIP3    H272912   4.336   3.273  11.284 -1.7812 -1.1507  0.5301
17141TIP3   OH272913   3.855   2.844   1.595  0.3490  0.0704  0.4260
17141TIP3    H172914   3.849   2.797   1.678  0.8746  0.2283  0.5635
17141TIP3    H272915   3.871   2.935   1.621  1.2242  0.0066  0.1577
17142TIP3   OH272916   4.381   4.363   3.193  0.1564  0.4417  0.9297
17142TIP3    H172917   4.338   4.284   3.227  0.6072 -0.0496  0.3615
17142TIP3    H272918   4.356   4.432   3.256  0.0040 -0.2059  1.5963
17143TIP3   OH272919   6.746   2.950  15.066  0.1857 -0.2100  0.3081
17143TIP3    H172920   6.695   2.920  14.991  1.0230 -2.5370  0.5868
17143TIP3    H272921   6.837   2.941  15.038  0.5116 -0.9816  1.5331
17144TIP3   OH272922   3.050   5.420   6.539  0.1612 -0.2271  0.3032
17144TIP3    H172923   3.049   5.408   6.444  0.8942 -0.2344  0.2884
17144TIP3    H272924   3.055   5.515   6.550 -1.9858 -0.0644  0.3779
17145TIP3   OH272925   0.866   6.350   3.777  0.0092  0.3448 -0.2249
17145TIP3    H172926   0.828   6.403   3.848 -1.7269  0.2363 -1.0348
17145TIP3    H272927   0.823   6.382   3.698  0.3254 -1.0104 -0.9644
17146TIP3   OH272928   0.279   4.367  16.966 -0.2814  0.1809  0.4632
17146TIP3    H172929   0.219   4.308  16.921 -2.0946  0.8284  1.9141
17146TIP3    H272930   0.353   4.377  16.905 -0.9350 -1.7947 -0.7449
17147TIP3   OH272931   4.819   3.064   4.905  0.1555 -0.4273  0.2405
17147TIP3    H172932   4.782   3.042   4.820  0.9029  3.1914 -1.2259
17147TIP3    H272933   4.887   2.998   4.919 -0.7019 -1.7539 -1.4303
17148TIP3   OH272934   1.426   2.313  13.011  0.5372  0.0792 -0.2914
17148TIP3    H172935   1.400   2.358  12.930 -1.0370  0.6938  0.5080
17148TIP3    H272936   1.467   2.232  12.981 -3.4706 -1.6956 -1.8418
17149TIP3   OH272937   5.164   6.750  11.217 -0.2866  0.0323 -0.2312
17149TIP3    H172938   5.163   6.664  11.259 -2.8571  0.2439  0.3109
17149TIP3    H272939   5.231   6.743  11.149 -0.1451 -2.2557  0.0786
17150TIP3   OH272940   4.656   5.575   5.172  0.3122  0.4544  0.0919
17150TIP3    H172941   4.581   5.523   5.143  1.0852 -0.2822 -0.7066
17150TIP3    H272942   4.729   5.512   5.172  0.8861  1.0973  1.0524
17151TIP3   OH272943   2.278   0.615   2.656 -0.3788  0.2240  0.7356
17151TIP3    H172944   2.307   0.539   2.707  0.1239  1.3223  2.1731
17151TIP3    H272945   2.216   0.659   2.714 -0.1685  1.2478  0.1914
17152TIP3   OH272946   0.221   4.169   0.889 -0.8909  0.0794 -0.0357
17152TIP3    H172947   0.139   4.175   0.940  0.1767 -0.6263  1.8737
17152TIP3    H272948   0.227   4.077   0.865  0.0968 -0.2215  1.2415
17153TIP3   OH272949   3.459   6.432   6.095 -0.0645  0.3876  0.6442
17153TIP3    H172950   3.370   6.467   6.105 -0.0429  1.3640 -1.7833
17153TIP3    H272951   3.449   6.337   6.108 -1.3399  0.5625  1.0725
17154TIP3   OH272952   2.700   1.772   1.361  0.0537  0.2994 -0.6160
17154TIP3    H172953   2.759   1.828   1.412  0.6966  0.8646 -1.9384
17154TIP3    H272954   2.680   1.699   1.420 -0.1862  1.4997  0.8724
17155TIP3   OH272955   3.934   1.758  12.499 -0.2750 -0.3421 -0.4568
17155TIP3    H172956   3.963   1.741  12.410 -0.9542 -1.0799 -0.5475
17155TIP3    H272957   4.015   1.765  12.550  0.0978 -0.9320 -0.9555
17156TIP3   OH272958   3.649   3.996   3.436  0.3448 -0.0277  0.3322
17156TIP3    H172959   3.621   4.088   3.438  2.5984  0.7259 -0.2626
17156TIP3    H272960   3.736   3.996   3.475  0.8741 -1.7291 -0.7295
17157TIP3   OH272961   6.128   2.834   0.838  0.5008  0.5982  0.1926
17157TIP3    H172962   6.092   2.749   0.814 -1.8147  2.2303 -2.7938
17157TIP3    H272963   6.222   2.818   0.850  0.0772 -2.4017  0.2202
17158TIP3   OH272964   0.882   2.036  10.820  0.7874 -0.6473  0.5462
17158TIP3    H172965   0.937   2.080  10.755 -0.6062 -0.0301 -0.2606
17158TIP3    H272966   0.847   2.106  10.874 -1.4356 -0.6774 -0.7362
17159TIP3   OH272967   5.177   3.514  13.479  0.2188  0.0375 -0.3457
17159TIP3    H172968   5.242   3.518  13.408  0.3532 -3.7517 -0.6223
17159TIP3    H272969   5.103   3.565  13.446  1.6965  1.5801 -1.4988
17160TIP3   OH272970   5.726   4.665   4.517  0.2234 -0.4876 -0.5268
17160TIP3    H172971   5.639   4.669   4.557  1.2582 -0.1772  1.8432
17160TIP3    H272972   5.710   4.629   4.430 -2.2399 -0.6541 -0.0907
17161TIP3   OH272973   2.997   6.790  11.130 -0.2439  0.0014 -0.1862
17161TIP3    H172974   3.065   6.753  11.073 -1.1528 -0.5813 -0.9345
17161TIP3    H272975   3.043   6.810  11.211  0.5895 -1.5234 -0.2206
17162TIP3   OH272976   4.157   2.843  14.759 -0.1375  0.3180  0.2627
17162TIP3    H172977   4.206   2.775  14.713 -0.8472  1.9934 -3.3204
17162TIP3    H272978   4.069   2.807  14.770  0.4299 -0.7032  1.9943
17163TIP3   OH272979   4.600   1.070   1.853  0.0272 -0.2316 -0.3216
17163TIP3    H172980   4.576   1.116   1.933 -0.3085 -0.2360 -0.4202
17163TIP3    H272981   4.517   1.054   1.808  0.2436  0.1261 -0.8642
17164TIP3   OH272982   0.815   0.182  16.310 -0.4486 -0.4003 -0.1948
17164TIP3    H172983   0.834   0.261  16.361  0.5681  0.8407 -2.3389
17164TIP3    H272984   0.736   0.203  16.260  0.7877  0.0381 -2.1001
17165TIP3   OH272985   2.306   2.729  12.627  0.1816  0.1439 -0.4546
17165TIP3    H172986   2.291   2.740  12.534  0.3822 -1.2466 -0.6686
17165TIP3    H272987   2.401   2.717  12.636 -0.0969 -2.7567 -0.4701
17166TIP3   OH272988   6.466   6.529  16.944  0.4171  0.1241  0.0925
17166TIP3    H172989   6.471   6.464  17.015  1.1612  0.9507  0.8175
17166TIP3    H272990   6.538   6.506  16.886 -0.8068 -1.1853 -0.9855
17167TIP3   OH272991   0.595   2.913  15.970  0.2990 -0.0895  0.3530
17167TIP3    H172992   0.515   2.876  16.008  0.2144  0.4643  0.7383
17167TIP3    H272993   0.596   3.004  16.002  1.2009 -0.1594  0.5516
17168TIP3   OH272994   4.494   3.122   4.588 -0.1083 -0.3989  0.4371
17168TIP3    H172995   4.456   3.189   4.644 -1.7655 -0.5085 -0.4850
17168TIP3    H272996   4.578   3.159   4.559 -1.2262  1.5419 -0.5099
17169TIP3   OH272997   1.304   1.106   0.765  0.3540 -0.6336 -0.5221
17169TIP3    H172998   1.361   1.180   0.788  0.7514 -0.4517 -2.0262
17169TIP3    H272999   1.216   1.144   0.760  0.2257 -0.7056  0.7633
17170TIP3   OH273000   3.447   2.147  15.059  0.2697  0.0623 -0.0031
17170TIP3    H173001   3.431   2.059  15.093 -1.2113  0.6993  1.0891
17170TIP3    H273002   3.402   2.148  14.975  0.2887 -0.2259 -0.0190
17171TIP3   OH273003   2.702   2.877   1.668  0.0987 -0.4397 -0.2933
17171TIP3    H173004   2.662   2.963   1.672 -1.5232 -1.1900  0.8116
17171TIP3    H273005   2.783   2.890   1.618 -1.8509  1.0215 -3.3799
17172TIP3   OH273006   0.349   6.320   4.692  0.6405  0.2535  0.1019
17172TIP3    H173007   0.256   6.304   4.676  1.1998 -1.7716 -1.6589
17172TIP3    H273008   0.363   6.410   4.664 -0.4528 -0.0205 -1.4649
17173TIP3   OH273009   0.303   2.399  15.213  0.4552  0.5059  0.2098
17173TIP3    H173010   0.257   2.453  15.277  0.8461 -0.2905  1.1926
17173TIP3    H273011   0.297   2.448  15.132 -0.0688  1.5420  0.8509
17174TIP3   OH273012   3.894   3.340  15.582  0.4307  0.1596  0.1050
17174TIP3    H173013   3.944   3.354  15.502 -0.1508  0.4346 -0.2187
17174TIP3    H273014   3.823   3.404  15.577  0.4336  0.2333  0.8793
17175TIP3   OH273015   4.964   6.478  16.837  0.1604  0.6268 -0.0906
17175TIP3    H173016   4.880   6.496  16.880 -0.0852 -0.1375 -0.2485
17175TIP3    H273017   4.995   6.398  16.878 -1.1041 -1.3756 -2.7846
17176TIP3   OH273018   3.485   3.604  16.861 -0.2451  0.3216  0.1294
17176TIP3    H173019   3.475   3.660  16.939 -2.0298 -0.1604  0.2949
17176TIP3    H273020   3.419   3.637  16.800  1.0379  0.5987 -1.1524
17177TIP3   OH273021   5.027   2.175   0.333 -0.8563 -0.0859  0.4627
17177TIP3    H173022   5.060   2.265   0.335 -0.4752 -0.1716 -0.9625
17177TIP3    H273023   5.053   2.138   0.418 -0.6214  1.0036  0.8783
17178TIP3   OH273024   2.386   4.722   3.168 -0.0445 -0.8659 -0.1925
17178TIP3    H173025   2.385   4.808   3.125  0.0333  0.6457  2.5560
17178TIP3    H273026   2.294   4.699   3.179 -0.0908 -0.5837  0.0259
17179TIP3   OH273027   1.808   0.304  16.286  0.4975  0.1916  0.0247
17179TIP3    H173028   1.755   0.357  16.346  1.7798  0.1857  1.2344
17179TIP3    H273029   1.862   0.250  16.344  1.7520  0.1341 -1.1430
17180TIP3   OH273030   0.632   5.567  12.200  0.2733  0.5169  0.0176
17180TIP3    H173031   0.576   5.550  12.276  0.8757  1.8968  0.8300
17180TIP3    H273032   0.720   5.543  12.230  0.5544  1.3316 -0.1282
17181TIP3   OH273033   1.323   6.788   5.064 -0.3381 -0.2555  0.6610
17181TIP3    H173034   1.393   6.786   4.999 -2.7368  0.8454 -2.1678
17181TIP3    H273035   1.367   6.809   5.146  2.5830  0.8816 -1.0535
17182TIP3   OH273036   4.586   4.408   3.000 -0.1813 -0.2822 -0.2814
17182TIP3    H173037   4.569   4.502   3.006  0.0573 -0.1582 -1.3736
17182TIP3    H273038   4.523   4.368   3.059  1.2118  0.7011  2.0258
17183TIP3   OH273039   5.527   1.521  14.040  0.1254 -0.7649  0.5275
17183TIP3    H173040   5.604   1.540  14.093  0.3553 -1.1535  0.3392
17183TIP3    H273041   5.538   1.430  14.013  0.0962 -0.5248 -0.3190
17184TIP3   OH273042   5.956   1.705   3.550 -0.1908  0.2362  0.0579
17184TIP3    H173043   6.052   1.709   3.554 -0.2072 -0.2607  1.5658
17184TIP3    H273044   5.938   1.646   3.476  0.5961  1.7345 -1.4051
17185TIP3   OH273045   3.716   6.523  14.270 -0.0589 -0.2082  0.4312
17185TIP3    H173046   3.758   6.562  14.194 -0.7552  1.0072  0.6425
17185TIP3    H273047   3.699   6.433  14.244  1.1507 -0.2673 -0.2514
17186TIP3   OH273048   0.332   5.956  15.628  0.4969  0.7604  0.4249
17186TIP3    H173049   0.268   6.018  15.663  1.1683  0.9611  1.3127
17186TIP3    H273050   0.405   5.958  15.689  1.1219  0.1027 -0.2661
17187TIP3   OH273051   5.338   0.452   3.732 -0.5117  0.5770 -0.5207
17187TIP3    H173052   5.377   0.511   3.797 -0.4840 -0.3702  0.3557
17187TIP3    H273053   5.337   0.503   3.651  1.5219  1.0184 -0.3219
17188TIP3   OH273054   2.957   1.288   1.708  0.6081  0.1237 -0.7638
17188TIP3    H173055   2.919   1.283   1.795 -0.3886 -0.1044 -1.1969
17188TIP3    H273056   2.953   1.199   1.674  0.8589  0.2340 -1.0984
17189TIP3   OH273057   1.491   5.113   4.982  0.0697  0.1498  0.2584
17189TIP3    H173058   1.521   5.150   4.899 -0.1421  0.2466  0.2255
17189TIP3    H273059   1.490   5.187   5.042 -1.5620  0.4668 -0.1250
17190TIP3   OH273060   3.672   5.115   5.606 -0.2368  0.0540  0.0302
17190TIP3    H173061   3.701   5.094   5.694 -1.9369  0.9232  0.8515
17190TIP3    H273062   3.620   5.039   5.578 -0.8538  0.3546  0.3451
17191TIP3   OH273063   6.665   0.533  12.950  0.2600  0.4486  0.3115
17191TIP3    H173064   6.604   0.557  13.019  0.1953  0.1256  0.3701
17191TIP3    H273065   6.641   0.588  12.876 -1.3982 -1.0202 -0.3215
17192TIP3   OH273066   1.984   4.336  15.346 -0.3327  0.2586  0.1759
17192TIP3    H173067   1.904   4.388  15.336  0.0568  0.7852 -0.2454
17192TIP3    H273068   2.039   4.387  15.406  0.5025  0.8958 -1.0886
17193TIP3   OH273069   2.509   2.260   0.432  0.3315  0.2042 -0.2727
17193TIP3    H173070   2.468   2.173   0.433  0.0681  0.3193  1.2678
17193TIP3    H273071   2.591   2.247   0.384 -0.9273 -0.2661 -2.4558
17194TIP3   OH273072   4.276   5.277   5.730 -0.4607 -0.5536  0.3099
17194TIP3    H173073   4.269   5.208   5.796 -0.7643 -2.3795 -1.5446
17194TIP3    H273074   4.195   5.270   5.680  0.2175  0.0618 -0.9143
17195TIP3   OH273075   2.111   2.693   4.387 -0.1595  0.2001  0.0464
17195TIP3    H173076   2.053   2.764   4.414  0.2400  0.0189  1.4596
17195TIP3    H273077   2.114   2.700   4.292 -1.5156  0.9786  0.0240
17196TIP3   OH273078   0.336   4.033  17.163  0.6580  0.1963 -0.1399
17196TIP3    H173079   0.249   3.999  17.144  0.4302  0.2292  0.7990
17196TIP3    H273080   0.391   3.956  17.175  0.7702  0.1757 -0.7245
17197TIP3   OH273081   5.275   1.812  12.098  0.2096  0.0497 -0.0486
17197TIP3    H173082   5.320   1.836  12.017  0.3381 -1.6132 -0.5081
17197TIP3    H273083   5.203   1.874  12.105  0.8246  0.8794 -0.8858
17198TIP3   OH273084   4.716   5.909   5.552 -0.0524  0.8590  0.4042
17198TIP3    H173085   4.798   5.886   5.596 -0.4246  1.3344  1.3567
17198TIP3    H273086   4.744   5.947   5.469  0.6406 -0.5352 -0.0397
17199TIP3   OH273087   1.090   2.284   2.294  0.0970  0.2457  0.3539
17199TIP3    H173088   1.030   2.222   2.333 -0.2287 -0.1087 -0.6762
17199TIP3    H273089   1.169   2.234   2.276  0.1412  0.3374  0.2890
17200TIP3   OH273090   6.401   2.625  15.091  0.1776 -0.4654  0.5517
17200TIP3    H173091   6.435   2.646  15.004 -0.1161  0.9563  0.7689
17200TIP3    H273092   6.308   2.607  15.076 -0.1565  1.0376  0.7425
17201TIP3   OH273093   3.080   0.565  16.016  0.6499  0.1504 -0.2070
17201TIP3    H173094   3.028   0.644  16.000 -1.1568 -1.1802 -1.3821
17201TIP3    H273095   3.171   0.593  16.003  0.2835  2.4954  1.5686
17202TIP3   OH273096   2.659   3.467   5.398  0.0590 -0.4531 -0.2141
17202TIP3    H173097   2.720   3.394   5.412  0.3211 -0.4703 -1.3335
17202TIP3    H273098   2.715   3.545   5.394 -0.3613  0.1044  2.7646
17203TIP3   OH273099   5.256   0.506  15.801 -0.1012 -0.0155  0.3173
17203TIP3    H173100   5.234   0.416  15.777 -1.8558  0.2030  0.9151
17203TIP3    H273101   5.291   0.499  15.890  1.4751 -0.2672 -0.2932
17204TIP3   OH273102   6.150   6.223   2.491 -0.3072 -0.3416  0.1407
17204TIP3    H173103   6.092   6.165   2.540  0.7091 -1.9484 -0.5032
17204TIP3    H273104   6.222   6.242   2.552  0.7807 -2.0592 -0.5666
17205TIP3   OH273105   5.552   3.490   1.067  0.6169 -0.1346  0.3329
17205TIP3    H173106   5.602   3.571   1.056 -0.3440  0.7663  2.1248
17205TIP3    H273107   5.615   3.420   1.052  1.3201  0.8797 -1.9952
17206TIP3   OH273108   0.642   1.801  13.870  0.3770 -0.2612 -0.1289
17206TIP3    H173109   0.695   1.838  13.941 -0.4664 -1.3362  1.1227
17206TIP3    H273110   0.670   1.849  13.792  1.5578  0.7642  0.8627
17207TIP3   OH273111   0.377   1.382  14.441  0.2033  0.1311  0.3202
17207TIP3    H173112   0.378   1.381  14.346  3.6697  1.1766  0.2003
17207TIP3    H273113   0.331   1.463  14.465 -0.8740 -0.2488 -0.4081
17208TIP3   OH273114   1.575   2.979   4.834 -0.0365  0.2785 -0.3601
17208TIP3    H173115   1.670   2.971   4.833 -0.2003 -2.9122  0.1248
17208TIP3    H273116   1.559   3.071   4.810  3.1497  1.3682  1.0675
17209TIP3   OH273117   3.050   4.453  16.467 -0.1687 -0.6064  0.2691
17209TIP3    H173118   3.090   4.531  16.505 -1.7531 -0.6680  2.2145
17209TIP3    H273119   3.097   4.380  16.508  1.6973 -0.7880 -1.9654
17210TIP3   OH273120   0.909   6.150   0.619  0.0105 -0.3780 -0.4870
17210TIP3    H173121   0.949   6.208   0.683  2.5586 -1.9408 -0.5329
17210TIP3    H273122   0.919   6.195   0.535  1.0115 -0.3844 -0.3801
17211TIP3   OH273123   4.180   1.302   5.419  0.6094 -0.2409  0.0280
17211TIP3    H173124   4.257   1.314   5.364  1.3435 -1.3319  0.7751
17211TIP3    H273125   4.184   1.210   5.447 -1.5322 -0.6193 -0.7428
17212TIP3   OH273126   3.154   3.490   5.657  0.1952  0.3539  0.4707
17212TIP3    H173127   3.248   3.471   5.653  0.2205  0.0994  1.7628
17212TIP3    H273128   3.123   3.440   5.733 -1.5565 -1.9221 -1.6000
17213TIP3   OH273129   2.180   6.530   5.375 -0.1446  0.0156  0.2555
17213TIP3    H173130   2.183   6.469   5.449  1.6913  0.2786  0.4405
17213TIP3    H273131   2.245   6.597   5.396  1.1353 -0.4109 -2.0292
17214TIP3   OH273132   2.570   1.756   4.713 -0.0227 -0.0769 -0.7684
17214TIP3    H173133   2.620   1.677   4.694 -0.4842 -0.6282  0.2248
17214TIP3    H273134   2.562   1.758   4.809  1.9364  2.4077 -0.5417
17215TIP3   OH273135   3.321   6.541   5.717 -0.3131 -0.2806  0.0500
17215TIP3    H173136   3.255   6.537   5.786 -1.1898  1.6560 -0.6079
17215TIP3    H273137   3.274   6.571   5.640  0.9882 -0.7121 -0.9548
17216TIP3   OH273138   3.768   2.555  14.078  0.5583 -0.3785 -1.1030
17216TIP3    H173139   3.861   2.573  14.091  1.0308 -2.1676 -1.6663
17216TIP3    H273140   3.750   2.481  14.135 -0.5167 -0.0810 -1.0401
17217TIP3   OH273141   0.326   5.009  16.023 -0.3346 -0.2806  0.6804
17217TIP3    H173142   0.345   4.950  16.096 -1.0493 -2.8752 -1.1274
17217TIP3    H273143   0.375   4.973  15.949 -1.2938  1.0578 -0.6708
17218TIP3   OH273144   4.516   4.443  15.261 -0.0747 -0.1492 -0.0257
17218TIP3    H173145   4.447   4.377  15.249  0.2108 -0.2664 -1.1322
17218TIP3    H273146   4.588   4.395  15.303  0.3430 -0.7210 -1.3190
17219TIP3   OH273147   6.180   5.215   4.208 -0.5361  0.1698  0.5330
17219TIP3    H173148   6.086   5.228   4.201 -1.0901 -1.9262  2.8290
17219TIP3    H273149   6.197   5.210   4.302  2.1442  1.9089  0.2770
17220TIP3   OH273150   1.842   0.685  14.835 -0.7819  0.4221 -0.2831
17220TIP3    H173151   1.869   0.652  14.749 -2.4741  0.1483 -0.7686
17220TIP3    H273152   1.844   0.608  14.891  0.9910  0.7394  0.1215
17221TIP3   OH273153   5.725   0.023  14.561 -0.6781  0.2079  0.2531
17221TIP3    H173154   5.724  -0.008  14.652 -1.2086  0.2536  0.2676
17221TIP3    H273155   5.718   0.118  14.568  2.4032  0.5358  0.2649
17222TIP3   OH273156   6.077   2.135  12.615 -0.2599  0.2834 -0.1105
17222TIP3    H173157   6.102   2.164  12.703  1.3250 -0.6148 -0.2270
17222TIP3    H273158   6.114   2.201  12.557  1.8790 -0.9532 -0.2711
17223TIP3   OH273159   5.545   6.173  16.095 -0.0454  0.2219  0.4435
17223TIP3    H173160   5.462   6.152  16.052 -1.4425  0.6988  2.7444
17223TIP3    H273161   5.605   6.193  16.023 -1.9529 -0.0063 -1.2856
17224TIP3   OH273162   6.130   3.799  12.006 -1.0681  0.0471 -0.2382
17224TIP3    H173163   6.108   3.877  11.955  1.2887  0.3576 -0.9220
17224TIP3    H273164   6.223   3.784  11.987 -0.7662 -1.3576  1.9764
17225TIP3   OH273165   3.817   0.134   4.550  0.0220  0.3080 -0.2365
17225TIP3    H173166   3.736   0.176   4.582 -0.0002 -0.8754  1.3851
17225TIP3    H273167   3.885   0.199   4.568 -0.3258  0.6166 -0.0022
17226TIP3   OH273168   4.275   4.538  15.411 -0.4504 -1.0087 -1.0284
17226TIP3    H173169   4.359   4.564  15.374 -0.7710  0.6727 -0.6664
17226TIP3    H273170   4.296   4.504  15.498 -0.2207  0.6855 -0.3758
17227TIP3   OH273171   6.247   4.570  13.685 -0.4115  0.0095  0.5042
17227TIP3    H173172   6.275   4.493  13.635 -0.0515 -0.4786  1.4388
17227TIP3    H273173   6.309   4.638  13.659  0.2046 -0.4278  0.7932
17228TIP3   OH273174   4.704   6.778   0.174 -0.1279  0.2063  0.5489
17228TIP3    H173175   4.732   6.687   0.166 -0.3671  0.0768  1.1652
17228TIP3    H273176   4.784   6.827   0.195  0.4249  0.4721 -1.8221
17229TIP3   OH273177   0.696   4.507   4.267  0.3678 -0.2663  0.1261
17229TIP3    H173178   0.643   4.585   4.255  1.1389  0.6830  2.3932
17229TIP3    H273179   0.691   4.488   4.361  2.6046 -1.1467  0.1386
17230TIP3   OH273180   6.045   1.849   4.551 -0.3813 -0.3149 -0.6478
17230TIP3    H173181   6.094   1.825   4.630 -0.4852 -2.1446 -1.0845
17230TIP3    H273182   6.063   1.778   4.490 -0.8182  0.7510 -2.0551
17231TIP3   OH273183   6.421   1.889   5.895 -0.2992  0.1425 -0.1017
17231TIP3    H173184   6.477   1.861   5.967  0.4877  2.9738  0.5169
17231TIP3    H273185   6.401   1.809   5.847  2.1562 -1.3401  1.1637
17232TIP3   OH273186   6.211   2.352  16.736  0.0446  0.2396  0.3495
17232TIP3    H173187   6.204   2.447  16.730  0.9066  0.3321  0.7497
17232TIP3    H273188   6.120   2.322  16.739 -0.2616  0.9861 -0.6698
17233TIP3   OH273189   3.786   1.688   3.084 -0.1517 -0.2489 -0.6624
17233TIP3    H173190   3.748   1.648   3.163  2.5082  0.2790  1.0289
17233TIP3    H273191   3.787   1.782   3.104  1.2501 -0.1835 -0.9413
17234TIP3   OH273192   4.769   3.115   6.603  0.1280 -0.2011 -0.4397
17234TIP3    H173193   4.837   3.131   6.538  0.6683  0.4235  0.2643
17234TIP3    H273194   4.703   3.064   6.556  1.0399 -0.7578 -1.1498
17235TIP3   OH273195   6.706   1.852  14.301  0.1287  0.4908 -0.1750
17235TIP3    H173196   6.744   1.935  14.329  0.7773  0.8075 -1.8855
17235TIP3    H273197   6.722   1.848  14.207 -0.5876 -1.2180 -0.2702
17236TIP3   OH273198   5.177   3.341   0.388 -0.4150 -0.0150 -0.1907
17236TIP3    H173199   5.191   3.341   0.293  0.4923  1.3478 -0.0887
17236TIP3    H273200   5.166   3.249   0.411  0.4547 -0.4647 -1.4807
17237TIP3   OH273201   1.100   3.355   2.986  0.6594  0.1239  0.2816
17237TIP3    H173202   1.088   3.435   2.935 -1.0820 -0.6871 -0.6595
17237TIP3    H273203   1.050   3.371   3.067 -0.0468 -0.1588 -0.0925
17238TIP3   OH273204   2.980   3.826  14.182  0.1405 -0.0571 -0.3306
17238TIP3    H173205   3.033   3.820  14.103  0.5431  1.0697 -0.1568
17238TIP3    H273206   2.891   3.840  14.150 -0.3904 -3.3910 -0.6758
17239TIP3   OH273207   0.229   6.218   0.623 -0.4062  0.2783 -0.2929
17239TIP3    H173208   0.197   6.139   0.665  1.1965  0.3358  1.1516
17239TIP3    H273209   0.284   6.187   0.551  0.4892  0.0394  0.4761
17240TIP3   OH273210   2.764   1.605   1.581 -0.4934  0.5487 -0.0832
17240TIP3    H173211   2.852   1.574   1.560 -0.9939 -1.6137  0.7364
17240TIP3    H273212   2.766   1.623   1.675 -1.3407 -1.3066  0.3471
17241TIP3   OH273213   5.769   1.253  15.216 -0.3121 -0.2762  0.0364
17241TIP3    H173214   5.773   1.252  15.120  0.5413  0.5433  0.0473
17241TIP3    H273215   5.707   1.322  15.237 -0.1906 -0.1749  0.0693
17242TIP3   OH273216   0.100   3.874   6.255  0.0985 -0.1688 -0.5611
17242TIP3    H173217   0.143   3.956   6.278  1.4676 -0.8924 -0.3859
17242TIP3    H273218   0.171   3.809   6.257 -0.9295 -1.3369 -0.7688
17243TIP3   OH273219   5.177   0.845   6.331  0.8116  0.0079 -0.6698
17243TIP3    H173220   5.219   0.931   6.327  0.1884  0.3357 -0.3383
17243TIP3    H273221   5.130   0.846   6.414  0.4150 -0.4734 -0.8863
17244TIP3   OH273222   2.549   5.512   5.262 -0.7116  0.6182 -0.3342
17244TIP3    H173223   2.572   5.592   5.214 -1.9369  1.1807 -0.0306
17244TIP3    H273224   2.530   5.541   5.351 -2.5479  0.2446 -0.5530
17245TIP3   OH273225   2.762   2.049   5.794 -0.3019 -0.1941  0.2934
17245TIP3    H173226   2.802   1.978   5.843  0.4757 -0.3693 -0.5601
17245TIP3    H273227   2.820   2.062   5.719 -1.5088 -0.0125 -0.6372
17246TIP3   OH273228   1.690   0.629   5.055  0.5258  0.5218  0.1110
17246TIP3    H173229   1.611   0.681   5.040 -0.3296 -0.5478  0.7946
17246TIP3    H273230   1.744   0.684   5.113  0.7683  1.6867 -1.1636
17247TIP3   OH273231   0.453   4.413  16.738  0.4376 -0.4098 -0.0675
17247TIP3    H173232   0.391   4.485  16.753 -0.7101 -0.9723 -1.8165
17247TIP3    H273233   0.536   4.457  16.719 -0.0931  0.4538 -0.4686
17248TIP3   OH273234   5.069   5.959  14.308 -0.4297  0.3678 -0.1464
17248TIP3    H173235   5.123   6.038  14.310 -0.0036  0.0769  0.1150
17248TIP3    H273236   4.983   5.987  14.340 -0.1222  0.6121  0.4816
17249TIP3   OH273237   0.866   3.799  14.990 -0.3239 -0.1948 -0.4562
17249TIP3    H173238   0.935   3.832  14.933  0.9653  0.4418  1.3658
17249TIP3    H273239   0.849   3.710  14.960  2.4810 -0.9801  0.0119
17250TIP3   OH273240   2.010   6.737   4.928  0.0884  0.0755  0.3001
17250TIP3    H173241   2.027   6.730   4.834  1.5763  1.8351  0.3847
17250TIP3    H273242   2.058   6.663   4.966  0.3527 -0.0392 -0.2382
17251TIP3   OH273243   2.158   3.336  13.934 -0.5638  0.3482 -0.3671
17251TIP3    H173244   2.251   3.329  13.913  0.0339 -0.3245  2.1757
17251TIP3    H273245   2.144   3.271  14.003 -3.1301 -0.1174 -1.2078
17252TIP3   OH273246   2.687   2.756   3.872 -0.5358  0.6268  0.7157
17252TIP3    H173247   2.638   2.772   3.791 -0.0964  0.3702  0.4000
17252TIP3    H273248   2.741   2.680   3.853  1.8055  2.3127  0.2480
17253TIP3   OH273249   3.431   0.453   6.258 -0.5146  0.0289  0.1396
17253TIP3    H173250   3.379   0.524   6.296 -1.0835  0.5841 -1.6056
17253TIP3    H273251   3.418   0.379   6.318 -1.8661  0.6890  0.7089
17254TIP3   OH273252   4.642   2.612  15.058  0.6348  0.0378  0.9973
17254TIP3    H173253   4.695   2.547  15.012  1.3332  0.0376  1.7598
17254TIP3    H273254   4.553   2.598  15.026  0.6529 -1.7009  1.5450
17255TIP3   OH273255   4.427   2.079  16.774  0.3719  0.0733 -0.7357
17255TIP3    H173256   4.375   2.031  16.839  1.3357  1.0418  0.8226
17255TIP3    H273257   4.364   2.131  16.726 -0.1078  2.3631  2.0811
17256TIP3   OH273258   0.045   4.398   6.035  0.4052 -0.3103  0.2094
17256TIP3    H173259  -0.022   4.466   6.027  0.8137 -0.1027 -1.8460
17256TIP3    H273260   0.121   4.433   5.989  0.5024 -2.2861 -1.2588
17257TIP3   OH273261   2.558   1.114  10.991  0.1831 -0.4459 -0.0215
17257TIP3    H173262   2.626   1.050  10.970  0.3240 -0.2597 -0.1419
17257TIP3    H273263   2.538   1.156  10.908  0.1721 -0.2550  0.0774
17258TIP3   OH273264   3.097   6.181   3.203 -0.1162 -0.0342  0.2932
17258TIP3    H173265   3.096   6.276   3.204  0.3545 -0.0234 -0.1415
17258TIP3    H273266   3.186   6.157   3.226 -0.1238 -0.3592  0.0005
17259TIP3   OH273267   1.311   3.131  12.879 -0.6232  0.0509 -0.0275
17259TIP3    H173268   1.361   3.073  12.937 -1.8400  0.7866  1.8573
17259TIP3    H273269   1.222   3.095  12.880 -0.9030  0.7049 -0.5900
17260TIP3   OH273270   0.861   1.206  17.075 -0.1773  0.1803 -0.0282
17260TIP3    H173271   0.777   1.163  17.056  0.7198 -0.9811 -1.5757
17260TIP3    H273272   0.907   1.145  17.133  0.1102  0.2149 -0.2191
17261TIP3   OH273273   1.393   0.860   0.702  0.1956  0.3301  0.7541
17261TIP3    H173274   1.317   0.907   0.737 -0.1188  0.6895 -0.3635
17261TIP3    H273275   1.468   0.897   0.748 -0.2221  0.5726  1.2559
17262TIP3   OH273276   0.432   3.960   5.456 -0.3733  0.2864 -0.0002
17262TIP3    H173277   0.522   3.980   5.482 -0.9554  1.3755  1.2940
17262TIP3    H273278   0.441   3.891   5.390  1.4027  0.4224  0.0466
17263TIP3   OH273279   6.692   0.775   6.342  0.5440 -0.0901  0.0093
17263TIP3    H173280   6.745   0.730   6.408  2.4162  1.6840 -0.1817
17263TIP3    H273281   6.722   0.739   6.259  0.1844 -0.3315 -0.0174
17264TIP3   OH273282   2.304   3.276  12.990 -0.0625 -0.0630  0.1342
17264TIP3    H173283   2.298   3.183  12.968  1.1682 -0.5022  1.4982
17264TIP3    H273284   2.354   3.315  12.919 -0.2207 -0.5086 -0.2300
17265TIP3   OH273285   1.395   6.047   4.976 -0.8980  0.0166  0.3667
17265TIP3    H173286   1.329   6.114   4.994  0.6313  0.7928  3.7758
17265TIP3    H273287   1.468   6.095   4.936 -0.3657  0.2053  1.5103
17266TIP3   OH273288   1.581   3.380  14.148 -0.5141 -0.2435  0.0057
17266TIP3    H173289   1.659   3.373  14.204  0.0328 -0.0594 -0.7238
17266TIP3    H273290   1.558   3.289  14.129 -1.3863 -0.3570  1.4338
17267TIP3   OH273291   1.979   0.291   2.266  0.4353 -0.5295 -0.0509
17267TIP3    H173292   1.973   0.369   2.321 -1.7460 -0.8932  0.3170
17267TIP3    H273293   1.901   0.294   2.210 -0.5586 -3.1602  1.0048
17268TIP3   OH273294   4.736   1.068   3.097 -0.2158 -0.2821  1.2100
17268TIP3    H173295   4.821   1.034   3.127  1.0496  1.1152 -0.5508
17268TIP3    H273296   4.685   0.990   3.076  1.7804 -1.2126 -0.6088
17269TIP3   OH273297   2.236   0.644   0.628  0.2825  0.1984  0.0872
17269TIP3    H173298   2.283   0.567   0.660 -0.9670 -1.0212 -0.8982
17269TIP3    H273299   2.153   0.642   0.676 -0.1417  0.3777 -0.6232
17270TIP3   OH273300   6.287   0.417  13.112  0.7059 -0.0246 -0.5205
17270TIP3    H173301   6.215   0.363  13.082  0.3891  0.6164 -0.9364
17270TIP3    H273302   6.256   0.455  13.194 -0.2545  1.8176 -1.6635
17271TIP3   OH273303   6.206   2.313  12.445 -0.8084 -0.0410  0.2376
17271TIP3    H173304   6.170   2.402  12.439  0.3064  0.5268  1.3087
17271TIP3    H273305   6.297   2.327  12.472 -0.7101 -1.5176  0.7390
17272TIP3   OH273306   0.844   1.561  16.632  0.5843  0.6499 -0.0310
17272TIP3    H173307   0.802   1.534  16.713  1.9802  3.4400  1.7649
17272TIP3    H273308   0.780   1.618  16.589  0.0041 -0.5033 -0.7440
17273TIP3   OH273309   4.183   1.624  16.559 -0.2859 -0.0354 -1.0831
17273TIP3    H173310   4.262   1.650  16.510 -0.5533  0.5192 -1.2294
17273TIP3    H273311   4.120   1.599  16.491 -0.5791  0.5134 -1.0240
17274TIP3   OH273312   4.937   0.338  13.066  0.4318 -0.5931  0.1472
17274TIP3    H173313   4.879   0.358  12.993 -1.2596 -1.9037  1.0761
17274TIP3    H273314   5.025   0.357  13.032 -0.4807  1.6203 -1.2400
17275TIP3   OH273315   6.343   5.663   2.628  0.2818  1.1443  0.8055
17275TIP3    H173316   6.276   5.605   2.666 -0.4895 -0.1373 -2.2503
17275TIP3    H273317   6.298   5.746   2.616 -0.2752  0.7703  0.2587
17276TIP3   OH273318   0.743   1.347   1.993 -0.4999 -0.0719 -0.6712
17276TIP3    H173319   0.829   1.311   1.972 -0.8053 -1.6463  0.6056
17276TIP3    H273320   0.681   1.277   1.971 -1.1689 -0.1599  1.3073
17277TIP3   OH273321   4.631   0.751   0.768 -0.3978 -0.0748  0.0906
17277TIP3    H173322   4.536   0.748   0.778 -0.1861 -1.4005  2.4580
17277TIP3    H273323   4.655   0.664   0.736  0.0889 -0.1461  0.6280
17278TIP3   OH273324   4.847   1.287  14.664 -0.1093 -0.5817  0.0553
17278TIP3    H173325   4.838   1.382  14.671 -0.5342 -0.3304 -2.9087
17278TIP3    H273326   4.898   1.262  14.741 -1.7748  1.7372  2.0465
17279TIP3   OH273327   5.568   2.823   5.175  0.3529 -0.4149 -0.2812
17279TIP3    H173328   5.637   2.860   5.230 -1.2302  0.8647  0.9413
17279TIP3    H273329   5.549   2.738   5.214 -2.0703  1.2383  2.5297
17280TIP3   OH273330   0.998   6.688  10.633 -0.2367 -0.1945  0.0511
17280TIP3    H173331   0.928   6.724  10.688 -1.1797 -2.5843  0.5570
17280TIP3    H273332   1.033   6.763  10.586 -2.9198  1.1568  0.0268
17281TIP3   OH273333   2.635   5.770   1.674  0.0923 -0.2370 -0.3610
17281TIP3    H173334   2.643   5.843   1.613  1.0941  0.5544  0.6831
17281TIP3    H273335   2.698   5.789   1.743 -0.0099 -1.8274  0.2083
17282TIP3   OH273336   4.955   0.236  13.842  0.4738  0.4017  0.6049
17282TIP3    H173337   4.969   0.224  13.936 -0.0838 -0.6266  0.5787
17282TIP3    H273338   5.037   0.207  13.802  0.5096  0.3014  0.7481
17283TIP3   OH273339   5.436   5.056   3.269 -0.3902 -0.1409 -0.3586
17283TIP3    H173340   5.503   5.122   3.251 -0.4767 -0.6310 -2.8269
17283TIP3    H273341   5.375   5.100   3.328  1.0464  0.9887  0.3503
17284TIP3   OH273342   4.378   3.327   4.794 -0.6405 -0.0558  0.1943
17284TIP3    H173343   4.395   3.419   4.773 -0.6656 -0.7148 -3.3658
17284TIP3    H273344   4.440   3.306   4.864  0.7920  2.1439 -0.3312
17285TIP3   OH273345   6.526   4.714  15.263 -0.9083 -0.0142 -0.0692
17285TIP3    H173346   6.607   4.713  15.212 -0.6249  0.2794  0.3654
17285TIP3    H273347   6.528   4.797  15.310 -1.6606  0.1753 -0.3586
17286TIP3   OH273348   0.574   2.978   3.814 -0.8150  0.7752  0.3981
17286TIP3    H173349   0.631   3.031   3.757 -0.1422 -1.1793 -0.8731
17286TIP3    H273350   0.494   2.967   3.763 -0.8190  0.3140  0.5019
17287TIP3   OH273351   6.335   3.992   1.202 -0.1124  0.1435 -0.2048
17287TIP3    H173352   6.349   4.083   1.228  1.9894 -0.5210  1.3413
17287TIP3    H273353   6.248   3.990   1.163  0.3561  3.0733 -1.6343
17288TIP3   OH273354   5.553   1.791  16.405 -0.1829 -0.0384 -0.2006
17288TIP3    H173355   5.619   1.859  16.393 -0.0379  0.2400  1.7567
17288TIP3    H273356   5.471   1.833  16.378  0.2950 -0.0905 -1.7952
17289TIP3   OH273357   6.412   3.316   5.068  0.0911 -0.3411  0.4888
17289TIP3    H173358   6.326   3.335   5.107 -0.7900  1.4461 -2.0510
17289TIP3    H273359   6.469   3.386   5.100  0.3663 -0.9566  1.3808
17290TIP3   OH273360   2.459   3.504   4.098 -0.1963  0.1333  0.4168
17290TIP3    H173361   2.431   3.549   4.018 -2.5012  0.0488  1.0850
17290TIP3    H273362   2.516   3.567   4.142 -1.0730  1.2947 -0.0392
17291TIP3   OH273363   3.695   5.485  10.744  0.7293  0.3682 -0.7196
17291TIP3    H173364   3.682   5.579  10.731  1.5335  0.5380 -0.3431
17291TIP3    H273365   3.664   5.445  10.663  1.6463  1.0647 -1.4227
17292TIP3   OH273366   6.491   5.446  12.999  0.3084  0.9037 -0.2644
17292TIP3    H173367   6.506   5.352  12.987 -0.6012  0.8426 -0.9946
17292TIP3    H273368   6.508   5.461  13.092 -1.8043 -0.4323  0.4084
17293TIP3   OH273369   4.895   3.737  14.352 -0.2463 -0.4747 -0.6625
17293TIP3    H173370   4.968   3.779  14.306 -0.6879  0.0736 -0.8750
17293TIP3    H273371   4.865   3.802  14.415 -0.6097 -0.6600 -0.6392
17294TIP3   OH273372   2.898   0.971  13.280 -0.4955  0.4263  0.2922
17294TIP3    H173373   2.849   0.889  13.265  1.1557 -0.6498  0.5828
17294TIP3    H273374   2.830   1.036  13.298 -1.9065 -0.6843 -0.7746
17295TIP3   OH273375   0.740   6.800   5.081  0.2859 -0.0526  0.0901
17295TIP3    H173376   0.699   6.719   5.111 -1.6100  1.0825  0.7061
17295TIP3    H273377   0.799   6.824   5.153 -1.8238  0.9348  1.6084
17296TIP3   OH273378   4.584   2.094  13.723 -0.0146 -0.2503 -0.0638
17296TIP3    H173379   4.545   2.043  13.652 -1.7282  0.8894  0.0143
17296TIP3    H273380   4.591   2.032  13.796  0.3815 -1.0404 -0.7598
17297TIP3   OH273381   2.849   1.655  16.919 -0.0971  0.3425 -0.9306
17297TIP3    H173382   2.794   1.624  16.846  0.7249  0.5305 -1.6477
17297TIP3    H273383   2.930   1.605  16.910 -0.2122 -0.0594  0.2240
17298TIP3   OH273384   4.770   1.555   5.061 -0.1231  0.5738 -0.2470
17298TIP3    H173385   4.761   1.534   5.154 -0.0841  0.2057 -0.3250
17298TIP3    H273386   4.847   1.611   5.056  0.2962  0.0179 -0.1444
17299TIP3   OH273387   5.653   6.393   5.599 -0.2615  0.4927 -0.3984
17299TIP3    H173388   5.574   6.445   5.618  0.8976  1.8132  1.2009
17299TIP3    H273389   5.703   6.447   5.539 -0.4123 -0.2160 -1.1812
17300TIP3   OH273390   2.766   1.527  17.280  0.1708 -0.1551  0.5682
17300TIP3    H173391   2.704   1.498  17.213  1.2231 -1.0940 -0.0353
17300TIP3    H273392   2.839   1.565  17.230  0.5399 -0.0080  1.2097
17301TIP3   OH273393   0.204   2.888   6.631 -0.3197  0.3600  0.3726
17301TIP3    H173394   0.245   2.971   6.654  0.1870 -0.0829  1.1187
17301TIP3    H273395   0.157   2.861   6.710  0.6564 -0.7184  0.6270
17302TIP3   OH273396   0.594   2.733   6.316 -0.0260  0.1326  0.3392
17302TIP3    H173397   0.572   2.700   6.403  0.4111 -0.3273  0.2799
17302TIP3    H273398   0.515   2.720   6.264  0.0037 -0.4116  0.4331
17303TIP3   OH273399   1.294   4.364  12.508 -0.2629 -0.5868  0.3070
17303TIP3    H173400   1.320   4.435  12.449 -2.0794 -0.8880 -0.9230
17303TIP3    H273401   1.307   4.284  12.457 -3.4025 -0.7637 -0.4358
17304TIP3   OH273402   1.383   6.756   5.337 -0.5426  0.1517 -0.2983
17304TIP3    H173403   1.316   6.799   5.390  0.7414  2.5771 -0.4718
17304TIP3    H273404   1.454   6.737   5.398 -0.5655 -0.5292 -0.4750
17305TIP3   OH273405   0.593   1.771  15.298 -0.8489  0.2907 -0.0585
17305TIP3    H173406   0.528   1.782  15.229  0.3218  1.7405 -0.9942
17305TIP3    H273407   0.677   1.766  15.251 -0.1951 -0.7098  1.1589
17306TIP3   OH273408   2.431   0.922   5.168 -0.2470 -0.4818 -0.3259
17306TIP3    H173409   2.400   0.833   5.182  0.5760 -0.6306  0.6590
17306TIP3    H273410   2.480   0.943   5.248  0.4152  0.4806 -0.9672
17307TIP3   OH273411   5.763   0.397  14.087 -0.5013  0.5582  0.2514
17307TIP3    H173412   5.761   0.302  14.083  0.7928  0.5553 -0.6441
17307TIP3    H273413   5.671   0.423  14.089 -0.8650 -0.7156  1.0140
17308TIP3   OH273414   6.020   6.681   4.153 -0.3921  0.1308 -0.2929
17308TIP3    H173415   5.945   6.706   4.099 -2.0386  0.3843  1.9669
17308TIP3    H273416   6.023   6.585   4.145 -0.8720  0.1285 -0.4966
17309TIP3   OH273417   4.964   5.417  14.218  0.8215 -0.1526  0.4349
17309TIP3    H173418   4.882   5.464  14.231  1.2072  0.2773  1.4205
17309TIP3    H273419   4.951   5.333  14.263  0.8583 -0.1477  0.4552
17310TIP3   OH273420   1.586   4.332  15.842 -0.2825 -0.0671 -0.0155
17310TIP3    H173421   1.527   4.381  15.900 -1.9612  0.1356 -1.8017
17310TIP3    H273422   1.530   4.301  15.772  1.6940 -0.1648 -1.6314
17311TIP3   OH273423   5.084   3.514   1.150  0.1115  0.1316  0.6359
17311TIP3    H173424   5.153   3.500   1.085  2.7486 -0.1777  3.2950
17311TIP3    H273425   5.063   3.426   1.181 -1.1122  0.2775  0.2694
17312TIP3   OH273426   3.274   4.707   2.261 -0.3297 -0.2876 -0.1974
17312TIP3    H173427   3.264   4.628   2.207 -0.3031 -1.1157  0.9695
17312TIP3    H273428   3.244   4.681   2.348 -0.1834  0.9587  0.2515
17313TIP3   OH273429   5.951   6.407   2.769 -0.2292 -0.0305  0.5568
17313TIP3    H173430   5.866   6.422   2.727  0.0456 -2.4117 -1.0723
17313TIP3    H273431   5.934   6.416   2.863 -1.8387  1.2903  0.1894
17314TIP3   OH273432   1.191   1.499  13.296 -0.3432 -0.5735 -0.6329
17314TIP3    H173433   1.193   1.595  13.295 -2.9970 -0.3927  1.2581
17314TIP3    H273434   1.273   1.473  13.254  0.1225  2.4985 -1.8938
17315TIP3   OH273435   3.270   0.130  13.453  0.2531  0.0033 -0.3089
17315TIP3    H173436   3.312   0.196  13.396 -0.0440 -0.6629 -1.3169
17315TIP3    H273437   3.321   0.134  13.534  2.8469 -1.2872 -1.7112
17316TIP3   OH273438   2.013   0.362  15.799 -0.1583 -0.3697 -0.0224
17316TIP3    H173439   1.947   0.387  15.734  0.3512 -1.1569 -0.8580
17316TIP3    H273440   1.962   0.342  15.878 -0.7204  1.3899  0.0930
17317TIP3   OH273441   5.895   1.034   4.333  0.2620 -0.0166  0.0590
17317TIP3    H173442   5.907   1.052   4.426 -1.3080  1.6148  0.0098
17317TIP3    H273443   5.900   1.120   4.291  2.4865 -0.8684 -1.6131
17318TIP3   OH273444   5.513   0.117  10.839 -0.5207 -0.2283 -0.0063
17318TIP3    H173445   5.601   0.080  10.839 -0.5398 -0.2892 -0.5295
17318TIP3    H273446   5.527   0.211  10.829 -0.5362 -0.4237 -2.9234
17319TIP3   OH273447   3.123   3.573  12.615 -1.0488 -0.0605 -0.0611
17319TIP3    H173448   3.053   3.616  12.665 -0.9019  1.2239 -0.9075
17319TIP3    H273449   3.077   3.523  12.547 -1.1885  2.5405 -2.0245
17320TIP3   OH273450   1.233   6.660  15.822  0.4750  0.2543 -0.0089
17320TIP3    H173451   1.326   6.639  15.829  1.0262  2.0400 -1.0866
17320TIP3    H273452   1.230   6.736  15.764 -1.6684  0.2758  0.0316
17321TIP3   OH273453   4.262   6.796  11.214  0.1642 -0.0917  0.4638
17321TIP3    H173454   4.296   6.729  11.154  1.9567  0.4025  0.8751
17321TIP3    H273455   4.325   6.799  11.285  0.7629  2.7983 -0.0850
17322TIP3   OH273456   2.122   6.300   2.776  0.2063 -0.7427 -0.3371
17322TIP3    H173457   2.133   6.205   2.770 -0.4669 -0.8934  0.5750
17322TIP3    H273458   2.048   6.311   2.835  1.6058  0.3822  1.2809
17323TIP3   OH273459   2.422   3.306  10.903 -0.0745 -0.2004  0.9078
17323TIP3    H173460   2.489   3.368  10.933 -0.0772  0.2974 -0.0934
17323TIP3    H273461   2.387   3.346  10.823 -0.9957 -0.8585  0.9781
17324TIP3   OH273462   0.617   1.412   2.739  0.3347 -0.0943 -0.1206
17324TIP3    H173463   0.538   1.426   2.687  0.9992 -0.0656 -1.1404
17324TIP3    H273464   0.587   1.363   2.816 -0.9079  1.1577  0.2227
17325TIP3   OH273465   2.490   6.253   1.416  0.0311  0.0094 -0.2601
17325TIP3    H173466   2.494   6.159   1.400 -1.9263 -0.1706 -0.0179
17325TIP3    H273467   2.546   6.267   1.493 -0.5152 -1.1449  0.3663
17326TIP3   OH273468   2.169   6.245   5.306 -0.0146  0.3221 -0.0783
17326TIP3    H173469   2.193   6.337   5.316  1.5665 -0.0679 -0.0795
17326TIP3    H273470   2.194   6.204   5.389 -1.0703 -0.0467  0.0701
17327TIP3   OH273471   1.301   4.224  15.322  0.8233 -0.5945 -0.3537
17327TIP3    H173472   1.300   4.129  15.334 -1.1148 -0.7172 -1.1994
17327TIP3    H273473   1.212   4.246  15.296  1.3231  1.4322 -0.5090
17328TIP3   OH273474   6.462   0.730  14.646 -0.3457  0.1373  0.1906
17328TIP3    H173475   6.507   0.751  14.564 -0.6549 -0.8891 -0.2511
17328TIP3    H273476   6.375   0.767  14.636  0.1512  1.5661  0.7915
17329TIP3   OH273477   0.325   0.399  16.616  0.1878 -0.3579 -0.6480
17329TIP3    H173478   0.273   0.322  16.641  1.3554 -1.2241 -0.7641
17329TIP3    H273479   0.379   0.416  16.693  2.3693 -1.8013 -1.7600
17330TIP3   OH273480   4.364   5.478  14.240 -0.0172 -0.1485 -0.1000
17330TIP3    H173481   4.445   5.427  14.233  0.4954  0.5889  0.2357
17330TIP3    H273482   4.368   5.517  14.327  0.5175  1.9066 -0.9751
17331TIP3   OH273483   3.450   4.994   3.370  0.5094 -0.4775  0.3596
17331TIP3    H173484   3.468   5.061   3.303 -0.0900  1.2234  1.8162
17331TIP3    H273485   3.495   5.026   3.448 -0.8338 -1.1233  1.4367
17332TIP3   OH273486   2.880   3.459  13.272  0.2300  0.3177  0.1350
17332TIP3    H173487   2.938   3.530  13.241  1.7829 -0.5644  0.8755
17332TIP3    H273488   2.794   3.500  13.279  0.8761  1.8714 -0.4296
17333TIP3   OH273489   3.554   6.479  12.676 -0.1806  0.4714  0.0019
17333TIP3    H173490   3.547   6.472  12.581  0.4488 -1.2755  0.0399
17333TIP3    H273491   3.503   6.556  12.698 -1.4277  0.1829 -1.6251
17334TIP3   OH273492   2.013   5.320  14.043 -0.3688 -0.0337  0.0098
17334TIP3    H173493   1.935   5.270  14.020 -1.6193  1.1380  1.4505
17334TIP3    H273494   1.984   5.380  14.112  1.6394  0.9567  0.0890
17335TIP3   OH273495   4.067   6.696  12.085 -0.5455  0.6583 -0.1308
17335TIP3    H173496   4.117   6.666  12.161 -1.4654  0.4701  0.4042
17335TIP3    H273497   4.104   6.782  12.065  0.6936  0.0954 -0.3893
17336TIP3   OH273498   3.640   2.628  15.174 -0.7196 -0.0025 -0.5007
17336TIP3    H173499   3.571   2.639  15.239 -1.1428 -1.4565 -0.6575
17336TIP3    H273500   3.649   2.533  15.164  1.6904  0.1119 -0.1015
17337TIP3   OH273501   4.970   3.141  15.102  0.2206 -0.3911 -0.1838
17337TIP3    H173502   5.051   3.092  15.115  0.1684 -0.7707 -1.2388
17337TIP3    H273503   4.951   3.133  15.009  0.0189  1.3388 -0.3280
17338TIP3   OH273504   6.760   5.463  10.848 -0.3811  0.1135 -0.6986
17338TIP3    H173505   6.779   5.526  10.918  0.6934 -0.3245 -0.5797
17338TIP3    H273506   6.671   5.433  10.867  0.2097 -0.6774  1.0381
17339TIP3   OH273507   4.032   1.720   1.784 -0.1215 -0.0107  0.3509
17339TIP3    H173508   3.967   1.681   1.726 -0.4712  1.1338 -0.0545
17339TIP3    H273509   4.081   1.781   1.727 -0.0759  0.6768  1.1123
17340TIP3   OH273510   1.945   1.213   5.718 -0.3746  0.2004  0.4516
17340TIP3    H173511   1.885   1.188   5.788 -1.7586  0.6845 -0.5040
17340TIP3    H273512   1.946   1.309   5.720  0.9795  0.1883  0.9311
17341TIP3   OH273513   4.140   5.791  12.220  0.4418  0.2756  0.5675
17341TIP3    H173514   4.066   5.804  12.279  0.3369  0.0982  0.4736
17341TIP3    H273515   4.104   5.744  12.145  0.9426 -1.2735  1.2377
17342TIP3   OH273516   5.420   5.254  12.679 -0.2707  0.2319 -0.0029
17342TIP3    H173517   5.454   5.309  12.750 -0.2113  0.6120 -0.3228
17342TIP3    H273518   5.377   5.181  12.724 -2.4377  1.7321  0.5307
17343TIP3   OH273519   1.313   2.967  16.564 -0.1272 -0.3451 -0.6978
17343TIP3    H173520   1.305   2.919  16.482  0.4974 -0.9621 -0.4080
17343TIP3    H273521   1.400   3.006  16.561  0.3744 -1.3317  0.1492
17344TIP3   OH273522   5.581   4.375   1.453  0.1461 -0.4056 -0.4064
17344TIP3    H173523   5.668   4.402   1.482  0.0011  0.7401 -0.9873
17344TIP3    H273524   5.575   4.283   1.478  1.2200 -0.2877  0.3406
17345TIP3   OH273525   6.030   0.310   5.583 -0.5231  0.3614  0.5476
17345TIP3    H173526   6.094   0.245   5.612  1.6029  0.9769 -2.2846
17345TIP3    H273527   6.020   0.369   5.658  1.0476 -0.6439  1.6061
17346TIP3   OH273528   5.762   0.346   6.059 -0.3591  0.0552  0.5269
17346TIP3    H173529   5.693   0.349   6.125 -0.6218  0.0640  0.2584
17346TIP3    H273530   5.836   0.304   6.103 -0.8466 -0.8158  0.5560
17347TIP3   OH273531   6.735   6.509  13.720  0.0238  0.1433 -0.6316
17347TIP3    H173532   6.801   6.447  13.688  1.3977  2.0790 -1.7276
17347TIP3    H273533   6.651   6.464  13.705  0.9709 -1.5891 -1.0262
17348TIP3   OH273534   4.329   5.940   2.108 -0.3220  0.1988 -0.8220
17348TIP3    H173535   4.345   5.949   2.014 -0.4466 -1.3267 -1.0100
17348TIP3    H273536   4.261   5.873   2.114  3.0141 -3.4015  0.4931
17349TIP3   OH273537   3.413   4.115  16.890  0.1457  0.3516  0.0389
17349TIP3    H173538   3.485   4.128  16.828  0.6611  0.2096  0.5876
17349TIP3    H273539   3.421   4.188  16.951 -1.0042  1.0790 -0.6586
17350TIP3   OH273540   0.730   6.249   5.331  0.6125 -0.1847 -0.4304
17350TIP3    H173541   0.636   6.241   5.342  0.4945 -0.2591 -1.4142
17350TIP3    H273542   0.742   6.270   5.239  1.5600 -0.1795 -0.3182
17351TIP3   OH273543   4.208   0.189   1.078 -0.2054  0.0481  0.2783
17351TIP3    H173544   4.178   0.251   1.012  0.9850 -0.1076 -0.4304
17351TIP3    H273545   4.188   0.231   1.161  0.6868  1.4485 -0.1845
17352TIP3   OH273546   4.885   0.027  14.810  0.0687  0.4371 -0.1306
17352TIP3    H173547   4.881   0.074  14.727  0.5334 -0.8605 -0.9115
17352TIP3    H273548   4.808  -0.030  14.810  1.3587 -1.4083 -0.8618
17353TIP3   OH273549   0.705   1.412  15.266  0.3846 -0.5614 -0.5326
17353TIP3    H173550   0.749   1.497  15.276  0.6768 -0.7569 -0.1583
17353TIP3    H273551   0.776   1.348  15.271  0.4330 -0.7464 -2.6845
17354TIP3   OH273552   0.219   0.512   3.490  0.1505 -0.0639 -0.0633
17354TIP3    H173553   0.307   0.526   3.527 -0.2263  0.8227  0.5233
17354TIP3    H273554   0.236   0.472   3.405  1.1056 -0.4750  0.3012
17355TIP3   OH273555   3.178   4.073  15.249 -0.3289  0.0031 -0.1220
17355TIP3    H173556   3.206   4.099  15.162  0.7607  1.1823  0.5432
17355TIP3    H273557   3.246   4.106  15.307 -1.2924 -0.2949  1.2352
17356TIP3   OH273558   5.207   2.197  11.850 -0.4166  0.5030 -0.3241
17356TIP3    H173559   5.217   2.119  11.795  0.1267  0.8353 -0.7036
17356TIP3    H273560   5.266   2.182  11.924  1.5023  1.5471 -1.5387
17357TIP3   OH273561   5.573   5.175  11.437  0.2419  0.0571 -0.9167
17357TIP3    H173562   5.531   5.091  11.419 -2.0128  0.9760 -0.2550
17357TIP3    H273563   5.568   5.222  11.354  0.0639  0.1412 -0.8563
17358TIP3   OH273564   0.941   1.728  12.443  0.2001 -0.5700  0.1128
17358TIP3    H173565   0.992   1.670  12.499  0.8379 -1.1095 -0.9857
17358TIP3    H273566   1.005   1.786  12.402 -0.2260 -0.3021 -0.1917
17359TIP3   OH273567   2.951   2.877   5.784 -0.1324 -0.1559  0.1694
17359TIP3    H173568   3.003   2.833   5.716 -1.4860 -0.6270 -0.5993
17359TIP3    H273569   2.878   2.916   5.737 -1.0383 -0.3870  1.3366
17360TIP3   OH273570   6.063   3.092   0.749  0.4303  0.2580  0.1031
17360TIP3    H173571   6.124   3.142   0.803  0.5348 -0.2634  0.4796
17360TIP3    H273572   6.074   3.002   0.779 -0.8494  0.2144  0.5030
17361TIP3   OH273573   6.152   4.830  11.005 -0.0421 -0.3853 -0.5090
17361TIP3    H173574   6.077   4.811  11.061  0.6127 -0.4236  0.3790
17361TIP3    H273575   6.160   4.754  10.948  0.4676 -1.2627  0.6880
17362TIP3   OH273576   2.985   6.450   4.222  0.0082 -0.7460 -0.3752
17362TIP3    H173577   2.941   6.391   4.283  1.1434 -0.5631  0.6502
17362TIP3    H273578   2.946   6.536   4.240 -0.3061 -0.8460 -0.5604
17363TIP3   OH273579   0.401   3.151   2.897 -0.1182  0.5271 -0.1597
17363TIP3    H173580   0.316   3.140   2.940 -0.8473  1.2910 -1.3487
17363TIP3    H273581   0.396   3.238   2.856  1.0297  0.3543 -0.7059
17364TIP3   OH273582   5.139   0.483  16.591  0.3506  0.5029  0.3752
17364TIP3    H173583   5.167   0.513  16.677  2.1711 -0.5314  0.1917
17364TIP3    H273584   5.155   0.388  16.592  1.1594  0.5791 -1.3450
17365TIP3   OH273585   0.637   1.416   2.239 -0.2905 -0.1201  0.3405
17365TIP3    H173586   0.662   1.377   2.155 -0.9681 -1.7191  0.8438
17365TIP3    H273587   0.694   1.492   2.248 -1.6249  1.4245 -2.5652
17366TIP3   OH273588   0.030   2.999   4.492 -0.1586  0.3749  0.4145
17366TIP3    H173589   0.009   3.067   4.427 -2.2594 -1.6882 -1.2503
17366TIP3    H273590   0.104   2.952   4.454 -0.3694  0.1370  0.3010
17367TIP3   OH273591   5.432   4.542  13.546  0.4319 -0.1109 -0.5020
17367TIP3    H173592   5.428   4.528  13.640 -0.5043  0.8559 -0.3765
17367TIP3    H273593   5.525   4.558  13.527  0.8199 -1.5725  0.0383
17368TIP3   OH273594   0.021   2.415   2.290  0.1397  0.2836  0.0684
17368TIP3    H173595   0.091   2.470   2.324 -0.4088  1.6647 -0.9546
17368TIP3    H273596   0.066   2.337   2.258  1.4310  1.6847 -1.7519
17369TIP3   OH273597   6.683   5.970   2.173  0.7806 -0.0459  0.6392
17369TIP3    H173598   6.634   6.016   2.241 -0.2715 -0.7365  0.3676
17369TIP3    H273599   6.704   6.037   2.108 -0.7619  0.0719  0.2352
17370TIP3   OH273600   5.159   4.804  16.038  0.7855  0.2592 -0.5450
17370TIP3    H173601   5.117   4.734  15.987  1.6157  0.4836 -1.5607
17370TIP3    H273602   5.197   4.862  15.972 -0.8959  2.3455  0.2125
17371TIP3   OH273603   2.130   4.837   4.715 -0.4553 -0.0718 -0.1945
17371TIP3    H173604   2.043   4.870   4.736  0.0368  0.5615  0.9541
17371TIP3    H273605   2.190   4.896   4.761  0.6139 -0.1785 -1.3807
17372TIP3   OH273606   0.438   5.888  16.946 -0.0156  0.0215 -0.0072
17372TIP3    H173607   0.485   5.840  17.014  2.8504 -0.2742 -2.0251
17372TIP3    H273608   0.450   5.980  16.970 -2.4674 -0.0413  1.9174
17373TIP3   OH273609   1.977   4.378  12.584 -0.4914 -0.1959  0.0595
17373TIP3    H173610   1.915   4.399  12.514 -1.7241 -0.8227  0.9195
17373TIP3    H273611   1.929   4.399  12.665  0.6489 -0.1359  0.7344
17374TIP3   OH273612   4.163   4.917   2.755 -0.2459 -0.1830  0.1231
17374TIP3    H173613   4.158   4.823   2.767  0.3899 -0.1059  1.1444
17374TIP3    H273614   4.073   4.948   2.763 -0.3254 -0.5957  0.8215
17375TIP3   OH273615   4.543   2.740  14.221  0.3179  0.2387  0.7923
17375TIP3    H173616   4.538   2.674  14.290 -3.2149  0.2939  0.7548
17375TIP3    H273617   4.520   2.692  14.141  1.2398  0.8332  0.1487
17376TIP3   OH273618   0.052   1.093  12.747  0.0712  0.0448  0.0104
17376TIP3    H173619   0.019   1.054  12.666  0.8507 -0.8567  0.1052
17376TIP3    H273620  -0.027   1.109  12.799 -0.2880 -1.6277  0.0483
17377TIP3   OH273621   2.719   0.722  13.802  0.7017 -0.0143 -0.1160
17377TIP3    H173622   2.639   0.670  13.809  1.2583 -0.8855  0.0307
17377TIP3    H273623   2.720   0.754  13.712  0.8287 -1.1036 -0.5267
17378TIP3   OH273624   4.853   0.285  12.575  0.4439 -0.0542  0.6989
17378TIP3    H173625   4.889   0.353  12.518 -0.4284 -1.7242 -2.0373
17378TIP3    H273626   4.929   0.237  12.605  0.8875  0.4863  0.4663
17379TIP3   OH273627   1.337   3.229  14.366  0.1444  0.3511 -0.2351
17379TIP3    H173628   1.408   3.188  14.317  0.3885  0.3275  0.1364
17379TIP3    H273629   1.283   3.271  14.299 -0.8697 -1.6878 -0.7777
17380TIP3   OH273630   1.879   5.860  15.295 -0.0913  0.3961  0.3180
17380TIP3    H173631   1.861   5.865  15.201  1.7179 -0.0211 -0.0942
17380TIP3    H273632   1.795   5.878  15.336 -1.1414 -0.3145 -1.3889
17381TIP3   OH273633   6.775   6.491  17.204 -0.2431  0.1246  0.0210
17381TIP3    H173634   6.792   6.538  17.122 -2.2659  0.1199 -0.4536
17381TIP3    H273635   6.693   6.528  17.237  0.4573  0.0218  2.0022
17382TIP3   OH273636   2.845   6.346   5.686 -0.2695  0.0014 -0.4006
17382TIP3    H173637   2.829   6.398   5.607  2.6052  0.8525 -0.5206
17382TIP3    H273638   2.874   6.261   5.654 -1.2339 -0.4286 -0.1950
17383TIP3   OH273639   0.668   1.787  12.623 -0.6587  0.0989 -0.1194
17383TIP3    H173640   0.574   1.797  12.633 -0.6243 -0.9324  1.6629
17383TIP3    H273641   0.706   1.833  12.698  0.0901 -1.6006  0.6118
17384TIP3   OH273642   1.643   2.446  10.486 -0.6566 -0.0178  0.1047
17384TIP3    H173643   1.565   2.476  10.439 -0.8886 -2.8567 -1.6078
17384TIP3    H273644   1.609   2.387  10.553 -0.0917  1.0246  1.3452
17385TIP3   OH273645   0.856   5.417   2.152 -0.9976 -0.0463  0.1659
17385TIP3    H173646   0.858   5.322   2.163  1.5173 -0.1928 -0.7668
17385TIP3    H273647   0.827   5.451   2.236 -0.8464 -1.6236  0.8784
17386TIP3   OH273648   0.705   2.613  14.061  0.1990  0.5060 -0.0000
17386TIP3    H173649   0.618   2.608  14.020  0.0314 -0.1378  0.4199
17386TIP3    H273650   0.766   2.613  13.987 -0.1297  0.0937 -0.2721
17387TIP3   OH273651   1.807   3.437  15.428 -0.2171  0.3079 -0.0951
17387TIP3    H173652   1.817   3.495  15.352 -0.3678  0.0326 -0.3256
17387TIP3    H273653   1.785   3.352  15.390 -0.5631  0.2357  0.2723
17388TIP3   OH273654   3.306   2.215  14.513 -0.6346 -0.2419 -0.5569
17388TIP3    H173655   3.307   2.190  14.606 -1.8007  1.0940 -0.1600
17388TIP3    H273656   3.389   2.182  14.479  0.2446  0.0483  1.1826
17389TIP3   OH273657   4.529   4.035   1.416  0.2754 -0.6505 -0.7339
17389TIP3    H173658   4.522   4.111   1.357  0.5800 -0.0634 -0.0320
17389TIP3    H273659   4.476   4.059   1.492  0.1331 -1.2714 -0.6360
17390TIP3   OH273660   5.403   4.052  15.216 -0.4840 -0.0200 -0.6614
17390TIP3    H173661   5.466   4.102  15.268  1.1886 -2.6946  0.0484
17390TIP3    H273662   5.318   4.090  15.239  0.3547  0.1571  2.5825
17391TIP3   OH273663   1.747   5.858  11.327 -0.1969 -0.7349  0.0142
17391TIP3    H173664   1.799   5.829  11.251  1.3719  0.3357  0.6258
17391TIP3    H273665   1.779   5.947  11.345  0.2556 -1.3464  2.5890
17392TIP3   OH273666   4.903   5.084   5.790 -0.2954 -0.2880 -0.1867
17392TIP3    H173667   4.843   5.023   5.749 -0.6290 -1.0181  1.3298
17392TIP3    H273668   4.854   5.122   5.863  1.0379 -0.9177  1.1013
17393TIP3   OH273669   3.944   5.795  15.102  0.1728 -0.0054  0.5445
17393TIP3    H173670   4.000   5.863  15.065 -0.1463  0.2241  0.4809
17393TIP3    H273671   4.002   5.720  15.114  0.1745 -0.2730 -0.9284
17394TIP3   OH273672   2.881   4.340   0.372 -0.4823  0.2541  0.3409
17394TIP3    H173673   2.935   4.418   0.367 -1.7327  1.2005  1.1588
17394TIP3    H273674   2.902   4.291   0.292  1.9304  0.3103  0.8882
17395TIP3   OH273675   1.680   2.223   3.600  0.2620  0.1697  0.2916
17395TIP3    H173676   1.773   2.204   3.613  0.4158  1.0382  0.5283
17395TIP3    H273677   1.651   2.258   3.684 -0.2432  0.0840  0.1592
17396TIP3   OH273678   5.275   1.555  16.596  0.4638 -0.4148 -0.1547
17396TIP3    H173679   5.249   1.477  16.644 -2.0368  0.2961 -0.2431
17396TIP3    H273680   5.252   1.628  16.654  1.4975  0.3230 -0.6335
17397TIP3   OH273681   2.326   6.055   0.401 -0.2124 -0.1405  0.0027
17397TIP3    H173682   2.408   6.104   0.409  0.3592 -1.1092  0.2472
17397TIP3    H273683   2.293   6.050   0.491 -0.3719 -0.0254 -0.0499
17398TIP3   OH273684   2.154   3.269  12.059  0.0212  0.2931 -0.0128
17398TIP3    H173685   2.121   3.249  11.972  2.2175 -0.0682 -0.8352
17398TIP3    H273686   2.173   3.363  12.057 -1.1298  0.5545  0.5427
17399TIP3   OH273687   2.263   2.205  15.845 -0.2628 -1.1753  0.0674
17399TIP3    H173688   2.285   2.121  15.884 -1.2611 -0.7190  1.6968
17399TIP3    H273689   2.316   2.269  15.893 -0.0367 -0.7904 -0.6773
17400TIP3   OH273690   4.305   6.237  13.015  0.5359 -0.6027  0.3631
17400TIP3    H173691   4.262   6.321  13.002 -0.1599 -1.0271 -0.0946
17400TIP3    H273692   4.397   6.254  12.992  0.8924  0.5552  2.3048
17401TIP3   OH273693   0.443   1.580   5.950  0.3879 -0.3447  0.2439
17401TIP3    H173694   0.400   1.524   5.886 -0.2565  0.0817  0.2871
17401TIP3    H273695   0.395   1.564   6.032 -0.3077  0.7998  0.0939
17402TIP3   OH273696   0.093   4.678  12.463 -0.1442 -0.0657 -0.4253
17402TIP3    H173697   0.046   4.686  12.380 -1.3975  1.0367  0.3551
17402TIP3    H273698   0.066   4.754  12.514  1.8186  0.1187  0.4223
17403TIP3   OH273699   0.973   4.315  11.232 -0.5478  0.5401 -0.5667
17403TIP3    H173700   1.066   4.294  11.244 -0.7939 -0.9381 -1.0537
17403TIP3    H273701   0.957   4.298  11.139 -1.5145 -0.1439 -0.2857
17404TIP3   OH273702   2.498   1.065   3.905 -0.1479 -0.1911  0.4705
17404TIP3    H173703   2.413   1.108   3.908  0.9792  2.1619  0.4684
17404TIP3    H273704   2.480   0.979   3.867 -2.5242  0.1876  0.5975
17405TIP3   OH273705   3.757   1.248  13.851  0.4870  0.0950  0.3496
17405TIP3    H173706   3.663   1.247  13.833  0.5267  0.1493  0.1402
17405TIP3    H273707   3.786   1.335  13.825  0.5691  0.1311  0.5562
17406TIP3   OH273708   6.081   2.559  12.377 -0.4051  0.1509 -0.5714
17406TIP3    H173709   6.004   2.541  12.324  0.0235  0.9325 -1.4964
17406TIP3    H273710   6.120   2.638  12.338  0.8866 -0.2516 -0.1645
17407TIP3   OH273711   1.225   4.828   2.812 -0.1468 -0.3665 -0.6909
17407TIP3    H173712   1.243   4.757   2.751 -1.4380 -0.9395 -0.4367
17407TIP3    H273713   1.137   4.859   2.788 -0.4948 -0.3086  0.5828
17408TIP3   OH273714   5.255   2.733  13.747 -0.9145 -0.1927  0.3718
17408TIP3    H173715   5.338   2.756  13.705 -0.0195  0.4681  2.3784
17408TIP3    H273716   5.195   2.803  13.722 -0.0687  0.8179  1.0783
17409TIP3   OH273717   4.116   3.326   4.778  0.0125  0.1878  0.2055
17409TIP3    H173718   4.211   3.328   4.786  0.0344  0.4883 -0.1288
17409TIP3    H273719   4.086   3.397   4.835 -0.0400 -0.1937  0.6632
17410TIP3   OH273720   2.262   1.044   0.354  0.3594 -0.2066 -0.0215
17410TIP3    H173721   2.291   1.110   0.292  2.2281 -0.1712  0.8151
17410TIP3    H273722   2.272   1.086   0.440  0.5076 -1.1907  0.4585
17411TIP3   OH273723   5.078   5.005   1.767  0.6983  0.0055 -0.6332
17411TIP3    H173724   5.072   4.929   1.824 -2.5347  1.5457  1.4102
17411TIP3    H273725   5.140   5.063   1.810  0.1934  0.1012 -0.0183
17412TIP3   OH273726   3.110   0.898   6.537 -0.2086  0.7726 -0.4443
17412TIP3    H173727   3.169   0.824   6.520 -0.1712  0.1449  2.0885
17412TIP3    H273728   3.026   0.870   6.500  0.0678 -0.0629 -0.4573
17413TIP3   OH273729   6.028   1.498   6.583  0.4504  0.2641 -0.1138
17413TIP3    H173730   5.950   1.518   6.636  1.2319 -0.5428  1.4142
17413TIP3    H273731   5.996   1.499   6.493 -1.1802  0.6305  0.4268
17414TIP3   OH273732   4.840   1.857   3.297 -0.1176 -0.0079  0.1663
17414TIP3    H173733   4.903   1.924   3.324  0.6361 -1.3676  1.9437
17414TIP3    H273734   4.758   1.883   3.340 -0.4896  1.0512 -1.1075
17415TIP3   OH273735   2.692   5.472   1.730  0.3223 -0.2442  0.7282
17415TIP3    H173736   2.647   5.556   1.724 -1.5715 -1.1713  1.2772
17415TIP3    H273737   2.750   5.471   1.653 -1.3538  0.5889 -0.6247
17416TIP3   OH273738   6.128   6.424  13.237 -0.3733  0.1114  0.4590
17416TIP3    H173739   6.072   6.462  13.169 -0.1851 -0.1620  0.1490
17416TIP3    H273740   6.210   6.402  13.192 -0.3289 -0.2794  0.7226
17417TIP3   OH273741   6.110   3.556   3.580 -0.4461 -0.3371 -0.4707
17417TIP3    H173742   6.081   3.486   3.639 -1.1566 -0.3548 -0.8357
17417TIP3    H273743   6.185   3.519   3.534 -0.0646 -0.4274  0.1995
17418TIP3   OH273744   2.231   3.460   1.735 -0.0538 -0.0728 -0.4573
17418TIP3    H173745   2.202   3.549   1.715 -1.6679 -0.5993 -0.6144
17418TIP3    H273746   2.301   3.471   1.800 -1.0103  1.2696  0.3889
17419TIP3   OH273747   4.804   6.588   4.635  0.0247  0.0439 -0.4595
17419TIP3    H173748   4.759   6.608   4.718  2.5512  0.1965  0.9796
17419TIP3    H273749   4.883   6.540   4.662 -0.0554 -1.6428 -2.9812
17420TIP3   OH273750   6.147   0.587   3.087  0.3309  0.2548 -0.8704
17420TIP3    H173751   6.104   0.593   3.001 -1.4040 -1.4998 -0.2020
17420TIP3    H273752   6.081   0.617   3.149  0.9896 -0.0345 -0.0166
17421TIP3   OH273753   2.895   3.036  11.794  0.2407 -0.2390 -0.0046
17421TIP3    H173754   2.948   2.970  11.750 -1.2128 -1.4275 -0.0637
17421TIP3    H273755   2.854   3.086  11.724  0.0788 -0.3329  0.0218
17422TIP3   OH273756   2.970   1.854  16.612  0.2299  0.0686 -0.1278
17422TIP3    H173757   2.930   1.877  16.528 -0.1662 -0.6485 -0.1446
17422TIP3    H273758   2.974   1.758  16.611 -0.1971  0.0338  0.8649
17423TIP3   OH273759   6.062   4.075   4.997 -0.0089  0.7600 -0.5424
17423TIP3    H173760   6.100   4.029   5.072 -0.9824  1.0150  0.1216
17423TIP3    H273761   6.084   4.020   4.922  0.7961  0.3900 -0.0581
17424TIP3   OH273762   1.649   4.001  14.488 -0.1511 -0.8709 -0.1856
17424TIP3    H173763   1.658   3.996  14.393 -1.3784 -1.4702 -0.2893
17424TIP3    H273764   1.698   3.925  14.521  0.0404 -0.8199 -0.3557
17425TIP3   OH273765   0.242   6.741  15.048  0.0750  0.2311 -1.0437
17425TIP3    H173766   0.336   6.725  15.057 -0.1184 -1.1956 -1.3589
17425TIP3    H273767   0.201   6.674  15.103 -0.7438  1.9403  0.5106
17426TIP3   OH273768   1.577   0.951   3.569  0.2167 -0.2412 -0.3564
17426TIP3    H173769   1.628   0.950   3.489  0.9221 -0.7226  0.0796
17426TIP3    H273770   1.583   1.041   3.601  1.1162 -0.3760 -0.1197
17427TIP3   OH273771   2.827   3.038   0.471  0.5515  0.6845  0.1440
17427TIP3    H173772   2.835   3.131   0.491 -0.5112  0.6262  0.9193
17427TIP3    H273773   2.879   2.994   0.540 -1.3109  0.5929  1.5692
17428TIP3   OH273774   4.903   0.628   0.906 -0.8068  0.1421  0.0525
17428TIP3    H173775   4.975   0.566   0.909 -0.6945  0.3155  1.8538
17428TIP3    H273776   4.852   0.602   0.829 -0.2041 -1.5223  0.1790
17429TIP3   OH273777   1.831   0.242  15.995 -0.7110  0.4138  0.1188
17429TIP3    H173778   1.823   0.227  16.089  1.5559 -3.2148 -0.0697
17429TIP3    H273779   1.758   0.194  15.957  0.2505 -1.0347 -0.0085
17430TIP3   OH273780   3.874   0.558  14.559  0.3030 -0.1277  0.1978
17430TIP3    H173781   3.899   0.482  14.507 -0.5139  0.4910 -1.1584
17430TIP3    H273782   3.903   0.633  14.507 -0.8584  0.5188  0.4571
17431TIP3   OH273783   3.800   6.406   4.102  0.4599 -0.4721  0.3126
17431TIP3    H173784   3.895   6.391   4.103  0.7071  0.9819  0.4740
17431TIP3    H273785   3.765   6.330   4.055  1.7849 -0.6376 -0.4772
17432TIP3   OH273786   6.520   3.954   4.251 -0.1713  0.1306  0.3461
17432TIP3    H173787   6.467   3.879   4.279  2.1632 -1.4951  0.7152
17432TIP3    H273788   6.482   3.981   4.168 -0.5577 -2.1016 -0.2722
17433TIP3   OH273789   3.092   3.770  15.276 -0.0175  0.0225 -0.4394
17433TIP3    H173790   3.088   3.865  15.268 -2.4951  0.0779  0.3307
17433TIP3    H273791   3.134   3.754  15.360 -2.3244  0.6480  0.9330
17434TIP3   OH273792   0.396   5.361  12.939  0.1036  0.2276  0.2360
17434TIP3    H173793   0.342   5.401  12.872 -2.5431  0.7439  2.4800
17434TIP3    H273794   0.340   5.358  13.017  1.8594 -3.2097  1.6257
17435TIP3   OH273795   1.931   0.536  13.485  0.0456  0.0008  0.0107
17435TIP3    H173796   1.869   0.601  13.519 -2.1652 -0.9638 -1.8614
17435TIP3    H273797   1.875   0.467  13.449  2.2776 -1.6299 -0.5073
17436TIP3   OH273798   0.637   2.449  17.261 -0.4385 -0.5521  0.2753
17436TIP3    H173799   0.700   2.399  17.209 -0.1794  0.0141  0.0433
17436TIP3    H273800   0.628   2.398  17.342 -0.7346 -1.3550 -0.2513
17437TIP3   OH273801   1.360   5.566   1.929  0.3623  0.0179  0.5983
17437TIP3    H173802   1.401   5.650   1.950  0.6091 -0.2419  1.1769
17437TIP3    H273803   1.427   5.500   1.951 -0.2272 -0.3892  1.2023
17438TIP3   OH273804   6.246   4.376   5.666 -0.1504 -0.1475  0.4931
17438TIP3    H173805   6.338   4.379   5.692 -0.1298 -0.0721  0.4092
17438TIP3    H273806   6.245   4.325   5.585 -0.3504 -1.3818  1.2380
17439TIP3   OH273807   5.566   2.121   4.384  0.6062  0.3133 -0.3306
17439TIP3    H173808   5.495   2.059   4.363  0.2660  0.5031  0.2367
17439TIP3    H273809   5.645   2.078   4.353  0.5263 -0.9397  1.0862
17440TIP3   OH273810   4.312   1.005   5.686  0.4274 -0.3494  0.0491
17440TIP3    H173811   4.405   1.019   5.669  0.2879 -1.4200 -1.7744
17440TIP3    H273812   4.274   0.984   5.601 -1.4962  0.0027  0.7577
17441TIP3   OH273813   6.746   4.185  15.427 -0.1603  0.5299 -0.1158
17441TIP3    H173814   6.818   4.212  15.370  1.6452 -2.3606  0.5828
17441TIP3    H273815   6.778   4.199  15.515 -1.3461  1.1952  0.2323
17442TIP3   OH273816   6.803   4.554  16.808  0.1163  0.2447  0.2593
17442TIP3    H173817   6.734   4.565  16.742  0.5947 -0.4534 -0.3790
17442TIP3    H273818   6.809   4.639  16.850 -0.1236  0.7488 -0.6766
17443TIP3   OH273819   3.829   6.585   4.335 -0.2618 -0.0866 -0.2168
17443TIP3    H173820   3.769   6.525   4.380 -2.3939  1.7053 -0.5007
17443TIP3    H273821   3.816   6.566   4.242  1.3979 -1.2418 -0.2634
17444TIP3   OH273822   1.381   2.057  10.328 -0.0848 -0.0868 -0.5687
17444TIP3    H173823   1.306   1.998  10.334  1.0755 -1.5466  0.1472
17444TIP3    H273824   1.390   2.094  10.416  1.3345 -1.6548  0.0096
17445TIP3   OH273825   5.359   0.188  14.682 -0.3143  0.4808 -0.8619
17445TIP3    H173826   5.352   0.283  14.680  0.7426  0.5590 -1.8899
17445TIP3    H273827   5.427   0.170  14.747 -1.0277  0.3772 -0.1309
17446TIP3   OH273828   2.564   0.224   1.905  0.3534  0.1066 -0.0452
17446TIP3    H173829   2.515   0.301   1.935 -1.7819 -1.7137  1.3859
17446TIP3    H273830   2.647   0.260   1.873 -1.0668  3.1389 -0.7185
17447TIP3   OH273831   6.780   3.350  14.750 -0.1212  0.1399 -0.1622
17447TIP3    H173832   6.834   3.414  14.796  1.0807 -0.5722 -0.5466
17447TIP3    H273833   6.721   3.403  14.696 -1.0286  0.9725  1.5493
17448TIP3   OH273834   4.522   5.407  15.765 -1.2159 -0.3100 -0.1283
17448TIP3    H173835   4.525   5.342  15.695  1.3912  2.4490 -2.9147
17448TIP3    H273836   4.440   5.454  15.751 -0.8202  0.0707 -1.2243
17449TIP3   OH273837   3.431   0.515   2.843 -0.1308 -0.2019 -0.0902
17449TIP3    H173838   3.441   0.595   2.895 -0.7199 -0.3673  0.2910
17449TIP3    H273839   3.510   0.464   2.861 -0.4695 -0.3911  0.8839
17450TIP3   OH273840   6.177   1.314   2.905 -0.1044 -0.4102  0.3003
17450TIP3    H173841   6.245   1.304   2.837  0.7386  2.8408  0.5284
17450TIP3    H273842   6.096   1.326   2.856  0.3343  0.8369 -0.1607
17451TIP3   OH273843   3.410   4.438   0.330  0.0014 -0.4798  0.2858
17451TIP3    H173844   3.388   4.454   0.238  1.0149 -1.2020 -0.1078
17451TIP3    H273845   3.442   4.522   0.363 -0.6166 -0.1523  0.0527
17452TIP3   OH273846   5.875   1.235  16.111 -0.7389  0.7742  0.0034
17452TIP3    H173847   5.865   1.311  16.054 -2.0714  0.2855 -0.4535
17452TIP3    H273848   5.836   1.163  16.061  1.9669 -0.6176 -0.3208
17453TIP3   OH273849   5.762   1.669   0.175 -0.1154 -0.4539  0.4045
17453TIP3    H173850   5.757   1.717   0.092  1.4149  0.1102  0.6043
17453TIP3    H273851   5.692   1.604   0.169 -1.1463  0.6927 -0.5882
17454TIP3   OH273852   5.541   5.920  12.867  0.1920  0.3406 -0.0797
17454TIP3    H173853   5.458   5.963  12.846 -0.2968 -1.0679 -1.1594
17454TIP3    H273854   5.608   5.983  12.841 -0.4430 -0.1936 -3.4944
17455TIP3   OH273855   4.909   3.720   0.219  0.5652 -0.5700  0.2010
17455TIP3    H173856   4.844   3.743   0.286 -0.4429 -0.8875 -0.6446
17455TIP3    H273857   4.993   3.743   0.259 -0.1959  3.2095  0.0440
17456TIP3   OH273858   1.998   6.667  13.410 -0.2665 -0.2426 -0.4071
17456TIP3    H173859   2.036   6.656  13.497 -1.5153 -2.0090 -0.0474
17456TIP3    H273860   1.946   6.588  13.395 -0.1140  0.0125 -2.7626
17457TIP3   OH273861   0.068   3.807   1.628  0.2750  0.4409  0.6518
17457TIP3    H173862   0.030   3.754   1.698 -2.0048  1.3730  0.2453
17457TIP3    H273863   0.148   3.762   1.603 -1.5954 -2.9707  0.1713
17458TIP3   OH273864   4.299   6.534  13.881  0.0647  0.1408  0.9061
17458TIP3    H173865   4.391   6.543  13.903  0.7104 -0.8479 -1.1483
17458TIP3    H273866   4.280   6.612  13.828 -0.1804  0.1500  1.0065
17459TIP3   OH273867   3.479   5.212  15.346  0.1743  0.0346  0.4871
17459TIP3    H173868   3.432   5.271  15.404  0.8603  0.1261  0.9662
17459TIP3    H273869   3.454   5.240  15.258 -1.3360 -0.4876  0.7203
17460TIP3   OH273870   3.868   2.446  15.341  0.2489  0.1579 -0.4458
17460TIP3    H173871   3.926   2.516  15.311 -1.2649  2.6459  1.9859
17460TIP3    H273872   3.781   2.485  15.343 -0.7856 -2.0050  0.4463
17461TIP3   OH273873   6.189   4.090   0.709  0.3345 -0.9998  0.7670
17461TIP3    H173874   6.100   4.125   0.695 -0.2132 -2.6833 -0.2100
17461TIP3    H273875   6.220   4.135   0.788 -1.7542 -1.0453  1.6846
17462TIP3   OH273876   0.340   5.351  16.219 -0.0066  0.3974 -0.1904
17462TIP3    H173877   0.406   5.284  16.201 -0.5325 -0.1404 -0.1349
17462TIP3    H273878   0.374   5.398  16.295 -0.3182 -0.7402  0.6728
17463TIP3   OH273879   1.902   3.657  14.270 -0.1402  0.2946 -0.2851
17463TIP3    H173880   1.891   3.713  14.194 -0.3025  0.5993 -0.0414
17463TIP3    H273881   1.996   3.638  14.273 -0.0747  0.6080 -0.3295
17464TIP3   OH273882   6.697   0.263  16.894 -0.5687  0.3444 -0.0590
17464TIP3    H173883   6.687   0.270  16.989  0.8222 -0.3699  0.1550
17464TIP3    H273884   6.607   0.252  16.861 -1.1073  1.1544  1.1129
17465TIP3   OH273885   1.708   0.789  16.025  0.4784  0.1658 -0.0175
17465TIP3    H173886   1.752   0.797  15.941 -0.6043  1.0107 -0.5336
17465TIP3    H273887   1.618   0.762  16.002  0.7096 -1.6710  1.0007
17466TIP3   OH273888   4.555   3.117  13.578  0.4596  0.2862  0.0623
17466TIP3    H173889   4.591   3.127  13.666  1.9025 -1.7004 -0.2425
17466TIP3    H273890   4.465   3.086  13.592 -0.1649  2.2352  0.7939
17467TIP3   OH273891   4.169   4.257   2.735  0.0939 -0.0234 -0.5020
17467TIP3    H173892   4.082   4.228   2.709 -0.3694 -0.9186  1.8348
17467TIP3    H273893   4.229   4.201   2.684 -0.6492  0.4687 -1.9798
17468TIP3   OH273894   1.855   1.873   2.073 -0.0503  0.0033 -0.1604
17468TIP3    H173895   1.881   1.838   1.988 -0.8484 -1.0836  0.0341
17468TIP3    H273896   1.891   1.962   2.073 -1.3943  0.6279 -2.2980
17469TIP3   OH273897   4.024   6.380  16.860 -0.1406 -0.2842  0.7333
17469TIP3    H173898   4.021   6.329  16.779  0.4514  0.9894 -0.1231
17469TIP3    H273899   4.004   6.317  16.929 -2.6746 -0.9940 -0.5528
17470TIP3   OH273900   5.366   5.750  14.599  0.2401  0.6580  0.3300
17470TIP3    H173901   5.274   5.727  14.588  0.3794  0.8594 -1.7793
17470TIP3    H273902   5.393   5.706  14.679  0.0766 -5.3391 -2.3858
17471TIP3   OH273903   4.289   4.536  16.389  0.5993 -0.5340  0.1981
17471TIP3    H173904   4.309   4.460  16.444  3.6903 -0.2102 -0.3032
17471TIP3    H273905   4.354   4.533  16.319 -0.2832  1.6472 -0.8089
17472TIP3   OH273906   4.681   4.557  11.853  0.0481 -0.5438  0.0385
17472TIP3    H173907   4.645   4.583  11.769  0.8433 -0.7251 -0.3729
17472TIP3    H273908   4.719   4.637  11.890  0.3765 -0.6182 -0.1313
17473TIP3   OH273909   2.615   6.461   3.584 -0.1991  0.2578 -0.0480
17473TIP3    H173910   2.623   6.555   3.601 -1.1036  0.3582 -0.1573
17473TIP3    H273911   2.641   6.419   3.666 -0.6199  0.6293  0.2785
17474TIP3   OH273912   5.518   4.879  14.130 -0.4653  0.1160 -0.5570
17474TIP3    H173913   5.465   4.940  14.079  0.7258  0.6154 -1.2310
17474TIP3    H273914   5.572   4.935  14.186 -1.2076 -0.4091  0.7215
17475TIP3   OH273915   4.387   3.747  17.211 -0.0356  0.3911  0.1122
17475TIP3    H173916   4.314   3.750  17.272  0.5759  2.0107  0.8355
17475TIP3    H273917   4.399   3.654  17.191 -1.3759 -0.0134  1.0585
17476TIP3   OH273918   5.280   1.473  16.227 -0.3997 -0.2272 -0.1498
17476TIP3    H173919   5.195   1.437  16.202 -0.5054  0.3602 -0.6581
17476TIP3    H273920   5.282   1.560  16.187  0.0094  0.1773  0.7236
17477TIP3   OH273921   4.707   0.665  16.987 -0.0045 -0.2168 -0.2640
17477TIP3    H173922   4.769   0.700  16.924 -0.4423  1.1984  0.0624
17477TIP3    H273923   4.621   0.685  16.950 -0.2680 -0.5237  0.1679
17478TIP3   OH273924   2.489   0.724  14.735  0.4595  0.1565 -0.1288
17478TIP3    H173925   2.449   0.654  14.683  0.7320  0.3090 -0.5442
17478TIP3    H273926   2.468   0.804  14.688  0.0962  0.3614  0.3820
17479TIP3   OH273927   4.248   4.588  12.282 -0.1107  0.3966 -0.7370
17479TIP3    H173928   4.206   4.674  12.288  1.7114  1.3646 -1.0070
17479TIP3    H273929   4.310   4.597  12.210  1.5554 -0.4695  0.5221
17480TIP3   OH273930   1.392   4.920   0.228 -0.4622 -0.8381  0.3997
17480TIP3    H173931   1.410   4.900   0.320 -1.8699 -1.1826  0.6268
17480TIP3    H273932   1.405   4.837   0.183 -1.2006 -1.0223  0.5215
17481TIP3   OH273933   1.419   2.919  13.036 -0.4313 -0.3981 -0.1908
17481TIP3    H173934   1.419   2.880  13.124 -1.5434  0.3650  0.1701
17481TIP3    H273935   1.392   2.847  12.979 -0.2475 -0.7543  0.1589
17482TIP3   OH273936   3.598   0.260  13.587  0.2959  0.6197 -0.0633
17482TIP3    H173937   3.648   0.293  13.512 -0.6943 -1.1530 -1.5917
17482TIP3    H273938   3.555   0.338  13.623 -0.1543  1.3942 -2.0977
17483TIP3   OH273939   3.274   2.288  17.219 -0.4243  0.4202 -0.2738
17483TIP3    H173940   3.246   2.326  17.136 -1.0271 -0.2633 -0.3941
17483TIP3    H273941   3.364   2.261  17.204  0.7928  3.6253  0.4356
17484TIP3   OH273942   5.575   2.895  13.430  0.5231 -0.1953 -0.4155
17484TIP3    H173943   5.616   2.873  13.346 -0.1077 -0.9861 -0.5340
17484TIP3    H273944   5.627   2.967  13.465  1.3304 -0.4517 -1.0717
17485TIP3   OH273945   2.451   3.338  11.693 -0.0757 -0.3446 -0.0746
17485TIP3    H173946   2.483   3.257  11.653  0.1524 -0.2813 -0.0216
17485TIP3    H273947   2.530   3.383  11.721 -0.2591 -0.7898  1.2284
17486TIP3   OH273948   2.384   3.705   3.111  0.5454 -0.3239 -1.0354
17486TIP3    H173949   2.302   3.704   3.160  0.7767 -1.5213 -0.6487
17486TIP3    H273950   2.434   3.777   3.149  1.9410 -2.9591  2.6344
17487TIP3   OH273951   6.475   0.948   3.597  0.2023  0.3304  0.7575
17487TIP3    H173952   6.497   0.872   3.650 -1.8999 -1.5268 -0.8528
17487TIP3    H273953   6.543   0.952   3.531 -0.6698 -1.3971 -0.3057
17488TIP3   OH273954   3.399   6.276  16.462  0.1844 -0.3161 -0.0754
17488TIP3    H173955   3.311   6.311  16.477 -0.2325 -0.6849 -1.5407
17488TIP3    H273956   3.384   6.184  16.437  0.9873 -0.3773 -0.3553
17489TIP3   OH273957   5.561   6.775  12.216 -0.5369  0.4162  0.3181
17489TIP3    H173958   5.560   6.870  12.212 -0.0958  0.4228  0.3930
17489TIP3    H273959   5.496   6.753  12.283 -1.7199  0.6015 -0.7168
17490TIP3   OH273960   5.154   1.488  17.285 -0.5739  0.9292 -0.0891
17490TIP3    H173961   5.060   1.497  17.271 -0.7551  1.3944  1.2839
17490TIP3    H273962   5.162   1.461  17.376  0.5993  0.0192 -0.4336
17491TIP3   OH273963   4.413   5.416   6.546  0.0579 -0.4965 -0.5169
17491TIP3    H173964   4.317   5.421   6.550  0.0298 -1.8495  1.1037
17491TIP3    H273965   4.442   5.506   6.562 -0.9196 -0.4541  1.2826
17492TIP3   OH273966   4.146   5.840   2.543 -0.2786 -0.1771 -0.0447
17492TIP3    H173967   4.193   5.912   2.587 -3.6575  2.4578 -0.3124
17492TIP3    H273968   4.102   5.883   2.469 -2.3475 -2.5844 -0.3118
17493TIP3   OH273969   5.422   5.635  16.973  0.0689 -0.1114 -0.3441
17493TIP3    H173970   5.366   5.610  17.047 -0.6276  0.7672 -0.5647
17493TIP3    H273971   5.385   5.587  16.899  0.9578 -1.2367 -0.0792
17494TIP3   OH273972   0.939   5.086   0.259  0.3695  0.0552 -0.1466
17494TIP3    H173973   1.033   5.093   0.243  0.8237  0.8230  2.4076
17494TIP3    H273974   0.930   5.018   0.325 -0.9249 -0.2480 -0.6035
17495TIP3   OH273975   1.243   3.141   5.788 -0.4502 -0.2165  0.2322
17495TIP3    H173976   1.309   3.181   5.845 -1.1549  0.5838  0.5016
17495TIP3    H273977   1.161   3.151   5.835 -0.9308 -0.2548 -0.5817
17496TIP3   OH273978   1.276   0.864  17.132 -0.3857 -0.7704  0.1144
17496TIP3    H173979   1.191   0.903  17.150  1.0469  2.1197  1.3175
17496TIP3    H273980   1.258   0.793  17.070 -3.4744  0.5558 -0.6600
17497TIP3   OH273981   0.545   6.485   0.528 -0.0688  0.1119  0.1286
17497TIP3    H173982   0.495   6.566   0.515 -0.8099 -0.2387  0.6635
17497TIP3    H273983   0.565   6.454   0.440  0.9739  1.3156 -0.0842
17498TIP3   OH273984   4.876   1.844  12.843 -0.5693  0.2676 -0.0465
17498TIP3    H173985   4.799   1.834  12.899  0.4626 -2.2626  1.0814
17498TIP3    H273986   4.850   1.805  12.759 -0.4442 -0.9356  0.4536
17499TIP3   OH273987   4.460   6.585  13.249  0.0059  0.8143  0.1130
17499TIP3    H173988   4.553   6.608  13.258  0.5720 -1.7260  1.6150
17499TIP3    H273989   4.452   6.556  13.158  0.3558  2.1030 -0.3671
17500TIP3   OH273990   4.870   5.474   3.660 -0.2306  0.3018  0.1552
17500TIP3    H173991   4.797   5.520   3.703 -0.4533 -0.5736  0.7417
17500TIP3    H273992   4.827   5.408   3.605  0.0587  1.3129 -1.3364
17501TIP3   OH273993   1.246   4.568   1.557 -0.2056  0.4735 -0.3535
17501TIP3    H173994   1.275   4.658   1.572  2.8515 -0.4809  0.3758
17501TIP3    H273995   1.222   4.536   1.644  0.7998  0.0027 -0.2307
17502TIP3   OH273996   1.868   6.018  14.243 -0.2423  0.3730 -0.0401
17502TIP3    H173997   1.907   5.936  14.275 -0.7527  0.8815  2.0455
17502TIP3    H273998   1.930   6.086  14.270  0.0569  0.7381 -1.5366
17503TIP3   OH273999   0.218   1.338  13.289 -0.3935  0.4374 -0.5289
17503TIP3    H174000   0.124   1.356  13.296 -0.1213  1.5935  0.5807
17503TIP3    H274001   0.245   1.318  13.378  0.4446  0.2648 -0.8133
17504TIP3   OH274002   2.739   0.703   4.985  0.3974  0.3154 -0.3150
17504TIP3    H174003   2.784   0.619   4.972 -0.9472 -0.2445 -1.5200
17504TIP3    H274004   2.732   0.711   5.080  0.4202 -1.0229 -0.1800
17505TIP3   OH274005   6.325   2.924   1.294 -0.8213 -0.3114 -0.7859
17505TIP3    H174006   6.370   2.947   1.213 -0.8042  0.9851 -0.4337
17505TIP3    H274007   6.278   2.844   1.273  1.8984 -1.9461 -1.0603
17506TIP3   OH274008   2.263   3.172   3.800  0.2776 -0.1657 -0.1152
17506TIP3    H174009   2.354   3.203   3.796  0.1986 -0.0183 -1.2431
17506TIP3    H274010   2.266   3.085   3.761  0.0100 -0.3548  0.2860
17507TIP3   OH274011   4.391   3.502   6.596  0.3767 -0.0654  0.0386
17507TIP3    H174012   4.322   3.547   6.547 -0.6223 -2.0445 -0.4745
17507TIP3    H274013   4.453   3.571   6.619 -1.3871  1.6663 -0.1237
17508TIP3   OH274014   5.404   5.006   3.665 -0.1791  0.1112  0.6053
17508TIP3    H174015   5.322   5.054   3.652 -0.7580 -0.9402  0.2733
17508TIP3    H274016   5.426   5.021   3.756 -0.2596  1.1452  0.4662
17509TIP3   OH274017   2.495   0.477  15.394  0.3126 -0.0064  0.4739
17509TIP3    H174018   2.549   0.489  15.473 -1.0338  1.0677  1.2865
17509TIP3    H274019   2.492   0.564  15.354 -2.0285  0.3722  1.3041
17510TIP3   OH274020   1.413   0.454   4.017  0.0548 -0.2794  1.2615
17510TIP3    H174021   1.456   0.533   3.985 -0.4585 -0.0973  0.9973
17510TIP3    H274022   1.458   0.381   3.974  0.8741 -0.1610  1.9112
17511TIP3   OH274023   2.855   1.192  10.813 -0.4545 -0.3841 -0.2031
17511TIP3    H174024   2.813   1.200  10.727  0.0306  1.0571 -0.3345
17511TIP3    H274025   2.820   1.110  10.849 -2.8839  0.4094 -0.5608
17512TIP3   OH274026   4.564   5.647  13.037  0.0309  0.3269  0.0513
17512TIP3    H174027   4.611   5.642  13.121 -0.2013 -1.7612  0.1073
17512TIP3    H274028   4.633   5.662  12.973  0.5467 -0.6279  0.3597
17513TIP3   OH274029   5.264   0.136   4.206  0.2763  0.2027 -0.0272
17513TIP3    H174030   5.349   0.180   4.198  0.3847  0.2426  1.1801
17513TIP3    H274031   5.205   0.204   4.237 -0.2366  0.2022 -0.9754
17514TIP3   OH274032   3.433   0.949  13.125  0.0360  0.6404  0.0982
17514TIP3    H174033   3.365   0.922  13.186 -0.4146  3.7289  1.1749
17514TIP3    H274034   3.406   0.913  13.041 -1.3454 -0.6267  1.0432
17515TIP3   OH274035   0.944   4.798   3.369 -0.3092 -0.2051  0.5880
17515TIP3    H174036   0.914   4.782   3.280 -0.5030 -0.8950  0.7709
17515TIP3    H274037   1.038   4.815   3.361 -0.5838  1.1647  0.1008
17516TIP3   OH274038   1.849   2.783  14.643 -0.1792  0.4494  0.2412
17516TIP3    H174039   1.917   2.719  14.664 -0.1293  0.5142  0.2752
17516TIP3    H274040   1.774   2.729  14.616 -0.9056  0.2527  2.4039
17517TIP3   OH274041   3.810   4.289  16.521  0.0383 -0.2147 -0.0799
17517TIP3    H174042   3.882   4.303  16.582  0.7524  0.5454 -1.0610
17517TIP3    H274043   3.834   4.210  16.473 -1.1737 -1.5913  1.4989
17518TIP3   OH274044   1.524   4.408  14.281 -0.2694  0.7334 -0.1643
17518TIP3    H174045   1.432   4.390  14.262  0.0452 -0.0042 -1.0797
17518TIP3    H274046   1.542   4.359  14.361 -0.5627  0.4915 -0.2426
17519TIP3   OH274047   1.826   1.467   4.403  0.0342 -0.2642  0.1889
17519TIP3    H174048   1.734   1.488   4.419 -0.7096 -1.0809 -2.4745
17519TIP3    H274049   1.836   1.474   4.308  3.2044  1.4862  0.5256
17520TIP3   OH274050   3.548   2.408  15.415 -0.0786 -0.0357 -0.1517
17520TIP3    H174051   3.615   2.347  15.445 -0.7636 -0.4075  0.6618
17520TIP3    H274052   3.495   2.358  15.354  0.7597  0.4502 -1.3026
17521TIP3   OH274053   6.014   4.324   1.965  0.4756 -0.4756 -0.3494
17521TIP3    H174054   5.965   4.406   1.956 -0.3312 -0.6955  1.5494
17521TIP3    H274055   5.964   4.261   1.914  0.4100 -0.0594 -0.8069
17522TIP3   OH274056   1.375   1.642  10.738  0.2580 -0.5081  0.0665
17522TIP3    H174057   1.432   1.713  10.710 -0.1383 -0.2856 -0.1967
17522TIP3    H274058   1.426   1.562  10.725  0.9026 -0.2364  0.8750
17523TIP3   OH274059   1.506   1.412   4.870  0.0360 -0.6497 -0.4046
17523TIP3    H174060   1.443   1.355   4.915  0.3893  1.1377  2.5996
17523TIP3    H274061   1.557   1.352   4.816 -0.0202 -3.1672  2.0927
17524TIP3   OH274062   2.125   6.141   2.395 -0.0949 -0.3794 -0.1627
17524TIP3    H174063   2.147   6.156   2.304  0.3425 -0.9361 -0.1559
17524TIP3    H274064   2.175   6.063   2.419  0.2901  0.1280  0.7351
17525TIP3   OH274065   4.011   3.535  14.987  0.3116 -0.3138  0.5620
17525TIP3    H174066   4.095   3.523  15.030  0.4859 -2.0463 -0.1921
17525TIP3    H274067   3.957   3.463  15.018 -0.1646 -0.5053 -0.6493
17526TIP3   OH274068   4.844   3.189  11.507  0.0612  0.8179  0.0277
17526TIP3    H174069   4.889   3.112  11.473 -1.1741  0.6686 -1.3685
17526TIP3    H274070   4.799   3.158  11.585 -2.1050 -0.4991 -1.6150
17527TIP3   OH274071   2.900   6.719   0.382 -0.0429 -0.8092  0.2067
17527TIP3    H174072   2.847   6.789   0.422 -0.7439 -0.6977 -0.8689
17527TIP3    H274073   2.983   6.722   0.430  0.0211  0.9073  0.0621
17528TIP3   OH274074   2.340   4.097  13.439  0.2750  0.0110 -0.4765
17528TIP3    H174075   2.245   4.104  13.433  0.2872 -0.0442 -0.7798
17528TIP3    H274076   2.370   4.187  13.451  0.1057 -0.1109  0.9341
17529TIP3   OH274077   6.676   5.593   4.738  0.3912  0.3443 -0.0507
17529TIP3    H174078   6.706   5.527   4.675  1.4039  1.5313 -0.8859
17529TIP3    H274079   6.757   5.636   4.767 -0.2842  1.7313 -0.1457
17530TIP3   OH274080   5.749   3.817   4.079  0.1125  0.3407  0.1719
17530TIP3    H174081   5.704   3.853   4.155 -1.1830  0.7376 -0.7428
17530TIP3    H274082   5.837   3.855   4.082 -1.0180  3.2907 -0.4697
17531TIP3   OH274083   3.019   6.683   4.874 -0.5274 -0.4060 -0.9405
17531TIP3    H174084   2.988   6.715   4.789 -2.7977 -0.5639 -0.2464
17531TIP3    H274085   3.062   6.600   4.854 -0.4126 -0.1074 -2.0008
17532TIP3   OH274086   0.491   0.195   3.524  0.0393  0.3661 -0.1005
17532TIP3    H174087   0.485   0.197   3.620 -0.8215  1.3456 -0.1485
17532TIP3    H274088   0.555   0.127   3.505 -0.1557 -0.2041  1.1572
17533TIP3   OH274089   3.565   1.918   0.348 -0.2011  0.1358 -0.3261
17533TIP3    H174090   3.532   1.869   0.272 -0.6780 -0.0966  0.0289
17533TIP3    H274091   3.606   1.996   0.310 -3.3635  1.7857 -0.6986
17534TIP3   OH274092   1.445   6.328  15.297 -1.0330 -0.1968  0.3807
17534TIP3    H174093   1.477   6.286  15.377 -1.2486 -1.1645 -0.0195
17534TIP3    H274094   1.370   6.274  15.270 -1.8778  0.9618  0.3075
17535TIP3   OH274095   1.880   3.844   4.372 -0.2051  0.1866  0.1186
17535TIP3    H174096   1.908   3.926   4.331 -0.8034  0.5057  0.3325
17535TIP3    H274097   1.961   3.805   4.405  0.1390  0.4814 -0.3593
17536TIP3   OH274098   5.928   2.035   2.819 -0.0303 -0.0989 -0.7980
17536TIP3    H174099   5.844   2.077   2.797 -0.3707 -1.2174 -1.7808
17536TIP3    H274100   5.914   1.998   2.906 -0.6624 -0.5259 -1.0734
17537TIP3   OH274101   0.587   6.818   4.860 -0.7046 -0.4509 -0.0328
17537TIP3    H174102   0.644   6.810   4.936 -1.1182  1.9433  0.6294
17537TIP3    H274103   0.500   6.797   4.893 -0.4220 -3.6021 -0.9266
17538TIP3   OH274104   2.059   4.377  14.583  0.3176  0.0854 -0.0089
17538TIP3    H174105   1.982   4.321  14.570 -0.1920  0.6964  0.3279
17538TIP3    H274106   2.037   4.459  14.539  0.3005  0.6716  1.0452
17539TIP3   OH274107   2.362   4.106   2.951  0.0433 -0.0448 -0.3302
17539TIP3    H174108   2.400   4.119   2.864  0.4557 -0.6795 -0.2529
17539TIP3    H274109   2.336   4.193   2.979 -1.8029 -0.0559 -1.8527
17540TIP3   OH274110   1.174   1.826  17.011 -0.5031 -0.2238 -0.1102
17540TIP3    H174111   1.172   1.735  17.041  0.0672 -0.2953 -0.2663
17540TIP3    H274112   1.084   1.856  17.017 -0.3834 -0.1777  1.8463
17541TIP3   OH274113   5.817   2.560  14.416 -0.3316 -0.3727 -0.6641
17541TIP3    H174114   5.833   2.579  14.323 -0.2313 -0.2622 -0.6239
17541TIP3    H274115   5.889   2.603  14.462 -0.2797 -0.5777 -0.5490
17542TIP3   OH274116   0.086   5.746   5.154 -0.0229  0.7798 -0.2012
17542TIP3    H174117   0.078   5.835   5.120  1.2439  1.1009  0.3016
17542TIP3    H274118   0.085   5.756   5.249 -0.8203  0.1566 -0.1376
17543TIP3   OH274119   4.718   5.964   4.524 -0.2395  0.4698  0.3551
17543TIP3    H174120   4.727   5.880   4.480 -0.5881  0.1988  0.7932
17543TIP3    H274121   4.677   5.943   4.608 -0.6761  1.1170  0.3119
17544TIP3   OH274122   5.437   0.578  12.248 -0.9429 -0.2303 -0.2214
17544TIP3    H174123   5.433   0.560  12.154 -0.3705  2.1310 -0.7562
17544TIP3    H274124   5.515   0.532  12.278 -0.8484 -0.5891 -1.0062
17545TIP3   OH274125   4.943   6.330   1.181  0.3414  0.7525 -0.4493
17545TIP3    H174126   4.901   6.407   1.144 -1.2405 -0.3856 -1.1108
17545TIP3    H274127   4.883   6.258   1.163  0.6480 -0.2885  2.1632
17546TIP3   OH274128   5.908   4.649  14.958  0.3302  0.0766 -0.5107
17546TIP3    H174129   5.937   4.609  14.876 -1.1985 -1.3975 -0.4123
17546TIP3    H274130   5.816   4.669  14.944  0.0851 -0.0272  0.7766
17547TIP3   OH274131   0.921   4.881  12.086 -0.0469  0.2770  0.6588
17547TIP3    H174132   0.840   4.905  12.042 -0.1966  0.0881  0.8264
17547TIP3    H274133   0.897   4.875  12.179 -0.4162 -2.0981  0.4813
17548TIP3   OH274134   0.077   4.818  13.581 -0.2308  0.1718  0.4977
17548TIP3    H174135   0.129   4.861  13.513  0.2919  2.3042  2.1093
17548TIP3    H274136   0.138   4.759  13.624 -0.4610 -0.8943 -0.6014
17549TIP3   OH274137   1.419   2.739  14.300  0.2726 -0.3016  0.0157
17549TIP3    H174138   1.396   2.651  14.272 -0.0994 -1.0353  2.4538
17549TIP3    H274139   1.362   2.796  14.248 -1.4626 -1.6646  0.3454
17550TIP3   OH274140   0.747   4.053  12.701 -1.0976 -0.0349  0.3225
17550TIP3    H174141   0.678   3.998  12.663 -0.9057  0.1109 -0.2450
17550TIP3    H274142   0.747   4.132  12.648  0.9729 -0.9172 -1.1167
17551TIP3   OH274143   3.584   0.648  15.776  0.3956 -0.2163 -0.0459
17551TIP3    H174144   3.674   0.644  15.744  0.0834  1.4837 -1.2182
17551TIP3    H274145   3.539   0.708  15.717 -0.6832  1.6685  2.4752
17552TIP3   OH274146   2.353   4.227  15.329  0.1246 -0.2598 -0.0992
17552TIP3    H174147   2.269   4.205  15.288  0.2815 -1.8683  0.3938
17552TIP3    H274148   2.393   4.288  15.268 -1.2444  0.2603 -0.5205
17553TIP3   OH274149   6.254   5.598  11.214  0.1446 -0.4079  0.2245
17553TIP3    H174150   6.344   5.566  11.205 -0.5129 -1.8286 -2.0986
17553TIP3    H274151   6.263   5.693  11.220  1.8030 -0.5322  0.2437
17554TIP3   OH274152   0.081   6.023   4.859 -0.0797  0.5284 -0.3199
17554TIP3    H174153   0.092   6.023   4.954  0.7551 -1.3658 -0.3680
17554TIP3    H274154   0.170   6.034   4.824  0.0582 -1.7123 -0.8189
17555TIP3   OH274155   4.617   0.045  13.055  0.4886  0.0097 -0.6082
17555TIP3    H174156   4.618   0.031  12.961  2.3707 -1.7698 -0.3815
17555TIP3    H274157   4.707   0.066  13.078  0.0436  0.5247  0.7899
17556TIP3   OH274158   3.992   6.031  13.190 -0.0997  0.3880  0.0518
17556TIP3    H174159   3.938   5.977  13.247 -1.7144  0.5837 -1.1920
17556TIP3    H274160   3.928   6.079  13.136  1.3105  1.9299 -0.3293
17557TIP3   OH274161   1.519   3.785  13.999  0.5745 -0.0626  0.3572
17557TIP3    H174162   1.568   3.716  13.955 -0.5378 -0.9190  0.4098
17557TIP3    H274163   1.428   3.770  13.973 -0.0443 -0.2203  2.4562
17558TIP3   OH274164   1.647   6.567  10.948 -0.7344  0.0453 -0.0055
17558TIP3    H174165   1.631   6.660  10.931 -0.1424  0.1423 -0.0335
17558TIP3    H274166   1.563   6.525  10.931 -1.3597  0.7376  1.2388
17559TIP3   OH274167   1.737   6.234   1.170  0.0280 -0.1330 -0.0273
17559TIP3    H174168   1.645   6.254   1.158  0.0569  0.5448  0.7562
17559TIP3    H274169   1.739   6.174   1.245 -0.0757 -3.4059 -2.4176
17560TIP3   OH274170   5.697   1.065   0.601  0.3352  0.1453 -0.0408
17560TIP3    H174171   5.607   1.034   0.606  0.5876 -0.4879  0.6521
17560TIP3    H274172   5.749   0.986   0.583  1.0490 -0.0085  2.3234
17561TIP3   OH274173   2.797   3.843   1.412  0.1540 -0.2412  0.5564
17561TIP3    H174174   2.751   3.804   1.487 -1.1508 -0.5282 -0.3494
17561TIP3    H274175   2.798   3.774   1.346  0.9041  0.1487  0.1565
17562TIP3   OH274176   0.668   3.106  17.137  0.1006 -0.3924 -0.2193
17562TIP3    H174177   0.730   3.052  17.088  0.4770 -0.3639  0.2225
17562TIP3    H274178   0.595   3.120  17.076 -0.0744 -1.5208 -0.2903
17563TIP3   OH274179   0.495   0.864   5.185  0.0276 -0.6874  0.2928
17563TIP3    H174180   0.400   0.859   5.198 -0.4394 -0.6601 -2.5998
17563TIP3    H274181   0.527   0.902   5.267 -2.6722  1.1455  0.6603
17564TIP3   OH274182   2.152   0.421  16.438  0.1460 -0.3097  0.1469
17564TIP3    H174183   2.123   0.466  16.359 -1.1810 -0.9374  0.2541
17564TIP3    H274184   2.116   0.333  16.430  2.0986 -1.1681  0.2790
17565TIP3   OH274185   6.284   4.545  12.902 -0.4079  0.1732 -0.1419
17565TIP3    H174186   6.361   4.527  12.957  1.0038 -0.1697 -2.1096
17565TIP3    H274187   6.256   4.633  12.927 -1.5366 -0.9567  2.9967
17566TIP3   OH274188   3.127   0.898   3.632 -0.1491  0.0004 -0.2116
17566TIP3    H174189   3.058   0.833   3.640 -0.9860  1.0607  2.0784
17566TIP3    H274190   3.085   0.981   3.655  1.6886  0.7889  0.5318
17567TIP3   OH274191   0.086   0.859  14.614 -0.2589 -0.7849  0.5998
17567TIP3    H174192   0.161   0.905  14.577 -1.5244  0.7095 -0.2164
17567TIP3    H274193   0.015   0.875  14.552 -1.0916 -2.8241  0.9379
17568TIP3   OH274194   3.243   0.399  16.448 -0.3033 -0.0787 -0.0583
17568TIP3    H174195   3.181   0.361  16.385  0.5198  0.4116 -1.2066
17568TIP3    H274196   3.326   0.356  16.428 -0.3561 -1.2244  1.9052
17569TIP3   OH274197   0.506   2.649   4.653 -0.9747  0.5140  0.3700
17569TIP3    H174198   0.581   2.645   4.711  0.7765  1.3794 -1.6931
17569TIP3    H274199   0.445   2.583   4.687  0.5230  0.0607  2.3274
17570TIP3   OH274200   4.938   2.128  14.426  0.2997  0.4077 -0.0092
17570TIP3    H174201   4.931   2.052  14.483 -0.9280  0.6902  0.2522
17570TIP3    H274202   5.014   2.111  14.371 -0.8747 -1.7980 -1.0827
17571TIP3   OH274203   3.433   6.395   3.225 -0.6087 -0.2424  0.1949
17571TIP3    H174204   3.423   6.315   3.275  0.0607  0.7956  2.0700
17571TIP3    H274205   3.372   6.457   3.265  0.2626  0.7509  0.0217
17572TIP3   OH274206   3.517   6.625   5.040  0.7479 -0.2144 -0.0401
17572TIP3    H174207   3.444   6.618   5.102  0.1422  1.4981 -0.5150
17572TIP3    H274208   3.592   6.647   5.095 -0.1901  3.4903  0.0237
17573TIP3   OH274209   1.906   5.096  14.624 -0.2149  0.0237  0.5857
17573TIP3    H174210   1.887   5.090  14.717  0.9121 -0.4337  0.8065
17573TIP3    H274211   1.970   5.026  14.608 -0.4972  0.0005 -0.5555
17574TIP3   OH274212   4.171   4.822  15.559  0.4794  0.0122 -0.2040
17574TIP3    H174213   4.117   4.750  15.592  0.8841 -0.6369 -0.9167
17574TIP3    H274214   4.260   4.788  15.561  0.8274  0.9520  0.6277
17575TIP3   OH274215   5.948   2.934  12.995 -0.6520  0.5996  0.2899
17575TIP3    H174216   6.023   2.888  13.033 -1.8024 -2.0724 -0.4485
17575TIP3    H274217   5.987   2.992  12.929  0.7779 -1.0271 -0.3804
17576TIP3   OH274218   5.588   3.359   1.866 -0.6301  0.1954  0.7025
17576TIP3    H174219   5.614   3.304   1.792 -0.3330  0.8414  0.3223
17576TIP3    H274220   5.575   3.297   1.938  1.4960 -0.2055  0.7954
17577TIP3   OH274221   5.659   5.967  16.762  0.8712  0.0421 -0.7768
17577TIP3    H174222   5.628   5.878  16.748  1.3012 -0.0211 -1.3455
17577TIP3    H274223   5.755   5.960  16.759  0.8987  0.5934 -1.3018
17578TIP3   OH274224   4.821   3.621  16.573 -0.1871 -0.1422  0.5391
17578TIP3    H174225   4.755   3.558  16.542  0.5056 -0.3708 -0.5533
17578TIP3    H274226   4.783   3.707  16.554 -0.2481 -0.2691  0.0627
17579TIP3   OH274227   0.461   0.056   2.415  0.0749 -0.2022  0.1149
17579TIP3    H174228   0.476   0.029   2.324  0.4534  0.1831  0.0574
17579TIP3    H274229   0.402   0.131   2.408 -0.8965 -0.9487  0.2672
17580TIP3   OH274230   1.106   3.364  14.322  0.0618  0.1161  1.0933
17580TIP3    H174231   1.043   3.316  14.268 -1.1269  4.5766 -1.9805
17580TIP3    H274232   1.059   3.382  14.403 -0.6085 -1.0559  0.9963
17581TIP3   OH274233   0.811   4.546  12.005 -0.5414 -0.0228  0.0834
17581TIP3    H174234   0.889   4.535  12.059  0.4023  2.6594 -0.5501
17581TIP3    H274235   0.844   4.583  11.923 -2.3479 -0.2294 -0.7845
17582TIP3   OH274236   6.278   0.925  14.565  0.5342 -0.3305 -0.3450
17582TIP3    H174237   6.215   0.956  14.630 -0.2808  0.5357 -1.5056
17582TIP3    H274238   6.332   1.002  14.546  0.8212 -0.5991 -0.6315
17583TIP3   OH274239   1.969   2.565   1.049  0.2629 -0.3743 -0.0989
17583TIP3    H174240   2.061   2.586   1.064  0.4677 -2.0461  1.3829
17583TIP3    H274241   1.965   2.469   1.057 -1.2941 -0.5480 -2.1006
17584TIP3   OH274242   5.849   0.543  12.187 -0.2714  0.1062 -0.3784
17584TIP3    H174243   5.928   0.489  12.191 -1.4186 -2.0011 -3.0569
17584TIP3    H274244   5.782   0.489  12.228 -0.6054  1.4645  0.9710
17585TIP3   OH274245   5.271   1.458  13.896  0.5126  0.0111 -0.2113
17585TIP3    H174246   5.316   1.411  13.826 -1.1042 -1.2488 -0.4472
17585TIP3    H274247   5.224   1.390  13.944 -0.9425  1.2390  0.1627
17586TIP3   OH274248   5.927   6.768  13.301 -0.2077  0.4853  0.7008
17586TIP3    H174249   5.983   6.845  13.295 -0.2197  0.3694 -1.3050
17586TIP3    H274250   5.941   6.736  13.391  2.8033  0.5880  0.3821
17587TIP3   OH274251   4.613   3.311   4.917 -0.0692 -0.0226 -0.7960
17587TIP3    H174252   4.701   3.296   4.882  0.7765  3.1180 -0.2726
17587TIP3    H274253   4.599   3.237   4.976  1.3759 -1.6260 -2.3386
17588TIP3   OH274254   0.666   6.294   5.080 -0.2514 -1.0066  0.0090
17588TIP3    H174255   0.679   6.248   4.997  1.2778  1.7786 -1.4393
17588TIP3    H274256   0.584   6.341   5.068 -1.2323 -2.4036  1.0422
17589TIP3   OH274257   3.180   3.960   5.336 -0.0438 -0.3805  0.6558
17589TIP3    H174258   3.159   3.937   5.427 -0.9256  1.2519  0.9159
17589TIP3    H274259   3.244   4.032   5.344 -0.3096 -0.0654 -0.0006
17590TIP3   OH274260   1.327   5.382  11.730 -0.3848 -0.2751 -0.0906
17590TIP3    H174261   1.406   5.350  11.773 -0.2589  1.3858  1.0236
17590TIP3    H274262   1.258   5.371  11.796 -0.9682 -1.1191 -0.8232
17591TIP3   OH274263   4.799   3.787  17.268  0.0880  0.8143 -0.2438
17591TIP3    H174264   4.741   3.822  17.336 -0.1367  1.9447 -0.9979
17591TIP3    H274265   4.881   3.769  17.314 -0.2234  1.0627  0.4334
17592TIP3   OH274266   6.815   2.007   1.778  0.3467 -0.3244 -0.2789
17592TIP3    H174267   6.859   2.078   1.730  1.3308  0.1601  1.2778
17592TIP3    H274268   6.824   2.031   1.870  1.1761 -2.7325  0.3303
17593TIP3   OH274269   6.774   6.109   3.106  0.3170 -0.4019 -0.0268
17593TIP3    H174270   6.753   6.019   3.079 -0.2084 -0.2008 -0.3011
17593TIP3    H274271   6.870   6.110   3.113  0.2756 -1.1971  0.7506
17594TIP3   OH274272   1.669   5.911   6.219 -0.1731  0.2752  0.1349
17594TIP3    H174273   1.593   5.962   6.247 -1.2038 -0.8208 -0.5845
17594TIP3    H274274   1.640   5.820   6.221  1.3437 -0.2436  0.5027
17595TIP3   OH274275   3.263   2.278  14.021  0.6766 -0.6538 -0.5597
17595TIP3    H174276   3.227   2.346  14.077  3.3474 -0.6193  1.2951
17595TIP3    H274277   3.256   2.313  13.932  1.0349  1.5993  0.2529
17596TIP3   OH274278   4.202   0.950  13.574  0.3848 -0.2314 -0.1454
17596TIP3    H174279   4.236   0.883  13.633  0.3855 -0.9573 -0.9637
17596TIP3    H274280   4.213   1.032  13.623 -2.9240 -1.0799  2.4484
17597TIP3   OH274281   0.784   0.517  11.252  0.0072 -0.3473  0.2461
17597TIP3    H174282   0.874   0.491  11.231 -0.2903 -1.1653 -0.0441
17597TIP3    H274283   0.731   0.480  11.182 -0.7899 -1.6028  1.4457
17598TIP3   OH274284   3.026   5.528  11.436  0.2928 -0.2408 -0.1479
17598TIP3    H174285   2.960   5.488  11.379  0.2594 -0.9132  0.3446
17598TIP3    H274286   3.033   5.618  11.406  1.4039 -0.9510 -2.2670
17599TIP3   OH274287   4.427   4.312   0.912  0.3669  0.5397  0.4238
17599TIP3    H174288   4.388   4.363   0.983  0.6865 -0.2522  1.1789
17599TIP3    H274289   4.520   4.304   0.935  0.6024  0.7745 -0.3879
17600TIP3   OH274290   4.429   0.355  16.202  0.0585 -0.0871 -0.4285
17600TIP3    H174291   4.378   0.363  16.121  1.0305 -1.9603 -1.2970
17600TIP3    H274292   4.509   0.403  16.184  0.6863 -1.2900 -0.9975
17601TIP3   OH274293   3.414   6.174   4.066 -0.1006  0.0510  0.3979
17601TIP3    H174294   3.482   6.107   4.061 -0.9012 -0.7499  0.0545
17601TIP3    H274295   3.379   6.180   3.978 -0.8560  0.0586  0.6919
17602TIP3   OH274296   6.150   6.547  16.250  0.3265 -0.3803 -0.2581
17602TIP3    H174297   6.206   6.473  16.226  1.2468 -0.0057  0.6875
17602TIP3    H274298   6.179   6.619  16.194  0.5468 -0.2861 -0.0236
17603TIP3   OH274299   4.682   2.551   3.899 -0.0195 -0.1629 -0.4107
17603TIP3    H174300   4.768   2.592   3.891  0.0941  0.2098  1.9035
17603TIP3    H274301   4.660   2.523   3.810  0.2524  4.1238 -2.0462
17604TIP3   OH274302   5.978   4.152   2.895  0.3008 -0.5398 -0.1763
17604TIP3    H174303   6.051   4.134   2.954 -0.3491 -1.6861  0.3036
17604TIP3    H274304   6.017   4.203   2.824  1.1931  0.5086  1.0091
17605TIP3   OH274305   4.656   5.141  14.504 -0.0351  0.4020 -0.6012
17605TIP3    H174306   4.617   5.076  14.562  0.0977  1.3064  0.5431
17605TIP3    H274307   4.588   5.208  14.492  0.1181  0.4826 -1.0808
17606TIP3   OH274308   2.167   0.725  11.768  0.2864 -1.0154  0.4227
17606TIP3    H174309   2.231   0.662  11.801 -0.9546 -2.9560 -0.6746
17606TIP3    H274310   2.163   0.709  11.674  0.0728  0.8956  0.0519
17607TIP3   OH274311   3.945   2.641   4.834  0.4960 -0.4748  0.4174
17607TIP3    H174312   3.971   2.595   4.755  0.7937 -0.1831  0.3421
17607TIP3    H274313   3.953   2.734   4.811 -1.9687 -0.3206 -0.0716
17608TIP3   OH274314   2.620   4.518  12.170  0.3538 -0.3138 -0.4167
17608TIP3    H174315   2.707   4.532  12.205  0.7075 -0.8458 -1.0519
17608TIP3    H274316   2.562   4.519  12.246  1.0602 -1.1484  0.1402
17609TIP3   OH274317   5.770   3.500  15.040  0.1736  0.4232 -0.4347
17609TIP3    H174318   5.841   3.469  15.096  1.1472 -0.3071 -2.0045
17609TIP3    H274319   5.691   3.481  15.089  0.9379 -1.2052  0.2318
17610TIP3   OH274320   0.061   3.903   0.922  0.4245  0.1664 -0.0115
17610TIP3    H174321   0.065   3.874   0.831  1.6791  0.8705 -0.2069
17610TIP3    H274322  -0.018   3.958   0.926  0.6351  0.5441 -0.8096
17611TIP3   OH274323   1.286   0.380  15.817 -0.1949 -0.0416 -0.2852
17611TIP3    H174324   1.226   0.311  15.789 -0.5034  0.0734  0.0881
17611TIP3    H274325   1.352   0.384  15.747 -0.9805  0.2789 -1.0348
17612TIP3   OH274326   1.037   6.339   2.530 -0.3930 -0.3063 -0.4359
17612TIP3    H174327   1.029   6.277   2.602  0.2267 -0.0422 -0.1284
17612TIP3    H274328   1.047   6.285   2.452 -2.9908 -0.6449 -0.6179
17613TIP3   OH274329   6.582   6.300   5.834  0.3880 -0.0133 -0.3482
17613TIP3    H174330   6.634   6.379   5.849  0.3293 -0.1623  0.6597
17613TIP3    H274331   6.619   6.235   5.894 -0.5567 -0.3005 -0.0694
17614TIP3   OH274332   5.204   6.390  14.112 -0.2013 -0.3624  0.5876
17614TIP3    H174333   5.273   6.415  14.174  0.8016 -0.4804 -0.4469
17614TIP3    H274334   5.249   6.383  14.028 -1.1717 -2.0313  0.1692
17615TIP3   OH274335   1.972   0.223   1.336 -0.3337 -0.3855 -0.4167
17615TIP3    H174336   1.909   0.261   1.397 -0.2911 -0.4362 -0.3403
17615TIP3    H274337   1.933   0.140   1.308  0.4538 -1.2581  0.9511
17616TIP3   OH274338   4.392   3.024   5.306 -0.3757  0.9305  0.1205
17616TIP3    H174339   4.467   3.002   5.362  0.3461 -0.3220 -1.2489
17616TIP3    H274340   4.321   2.967   5.336 -0.1775  0.7045  0.1653
17617TIP3   OH274341   1.256   5.219   0.688  0.6175 -0.1961  0.3418
17617TIP3    H174342   1.307   5.267   0.623  0.8689  0.2456  0.8588
17617TIP3    H274343   1.172   5.265   0.692  1.0319  0.5170  1.1895
17618TIP3   OH274344   4.113   0.269   6.712  0.2322 -0.2246 -0.6958
17618TIP3    H174345   4.053   0.223   6.653 -0.5180  1.3396 -1.2277
17618TIP3    H274346   4.144   0.344   6.661  0.0684  0.8108  0.6648
17619TIP3   OH274347   5.735   0.428   5.786 -0.6095 -0.5337 -0.0502
17619TIP3    H174348   5.722   0.419   5.880 -1.7997 -1.4460 -0.2824
17619TIP3    H274349   5.731   0.338   5.753  0.9097 -0.3337 -0.8517
17620TIP3   OH274350   0.258   2.220   3.430 -0.1179 -0.1705 -0.3766
17620TIP3    H174351   0.233   2.131   3.403 -1.1234  0.6190 -2.2948
17620TIP3    H274352   0.350   2.227   3.404 -0.0066 -0.6644 -0.1372
17621TIP3   OH274353   3.603   4.193   2.687 -0.0343 -0.1250 -0.0735
17621TIP3    H174354   3.661   4.137   2.635 -1.8845  0.5349 -3.0973
17621TIP3    H274355   3.545   4.131   2.733  0.7063 -0.7096  0.0951
17622TIP3   OH274356   3.329   0.434   3.518 -0.1950 -0.0224 -0.1665
17622TIP3    H174357   3.301   0.355   3.472 -2.1540 -0.2745  1.3177
17622TIP3    H274358   3.352   0.495   3.448 -0.8779 -1.1292 -1.4148
17623TIP3   OH274359   5.373   3.009   2.224 -0.0608 -0.0241 -0.5493
17623TIP3    H174360   5.406   2.925   2.193 -2.6306 -1.0783 -0.7149
17623TIP3    H274361   5.290   2.988   2.267 -0.3057  2.3246  0.2798
17624TIP3   OH274362   0.818   2.438  15.156 -0.1717  0.0388 -0.4603
17624TIP3    H174363   0.796   2.496  15.229 -0.8287  0.7038 -1.1780
17624TIP3    H274364   0.908   2.411  15.174 -0.7369 -0.8456  1.2785
17625TIP3   OH274365   3.403   6.055   2.745  0.1896  0.2541 -0.1816
17625TIP3    H174366   3.435   6.142   2.771  0.8284 -0.1686  0.5073
17625TIP3    H274367   3.377   6.014   2.828  1.8567 -0.9699 -0.2119
17626TIP3   OH274368   2.667   6.565   6.177 -0.0763 -0.2575 -0.2847
17626TIP3    H174369   2.640   6.573   6.269 -0.4719  0.3994 -0.4555
17626TIP3    H274370   2.593   6.600   6.127  0.7538  0.8113 -0.7943
17627TIP3   OH274371   2.754   5.950   0.383  0.0691 -0.7336  0.1049
17627TIP3    H174372   2.740   5.855   0.380 -0.4431 -0.6702  0.4752
17627TIP3    H274373   2.734   5.979   0.294 -1.9917 -0.6772  0.5556
17628TIP3   OH274374   6.796   6.287   2.395 -0.4712 -0.6432  0.1419
17628TIP3    H174375   6.706   6.263   2.373 -0.2617  0.5463 -2.4581
17628TIP3    H274376   6.850   6.241   2.330  0.6572 -0.0683  0.6339
17629TIP3   OH274377   2.421   0.347   2.731 -0.4293 -0.2038  0.1836
17629TIP3    H174378   2.384   0.349   2.819  0.9841 -1.1132  0.8339
17629TIP3    H274379   2.417   0.255   2.706 -0.9218  0.0607 -0.7769
17630TIP3   OH274380   0.846   3.895   5.205  0.1414  0.4869 -0.1888
17630TIP3    H174381   0.854   3.821   5.266 -1.7383  0.6716  0.3426
17630TIP3    H274382   0.913   3.878   5.139  2.9505  0.7758  2.3681
17631TIP3   OH274383   3.676   4.476   4.562 -0.0704  0.5504 -0.0518
17631TIP3    H174384   3.615   4.408   4.532  0.9321 -0.2767 -0.2697
17631TIP3    H274385   3.754   4.465   4.507  0.5600  1.1122  0.7029
17632TIP3   OH274386   2.905   0.416   0.982  0.6698 -0.3646 -0.1144
17632TIP3    H174387   2.914   0.426   1.076  0.3724 -0.3516 -0.0871
17632TIP3    H274388   2.815   0.387   0.969  0.0481  1.5599 -0.5233
17633TIP3   OH274389   3.911   1.729  15.092 -0.0754 -0.0803  0.0545
17633TIP3    H174390   3.894   1.650  15.143  0.7660  0.8116  1.7798
17633TIP3    H274391   3.940   1.696  15.006 -0.1391 -1.6348  0.6092
17634TIP3   OH274392   3.344   4.461  16.279  0.6880  0.4536 -0.0121
17634TIP3    H174393   3.344   4.473  16.374  2.3152  1.0031 -0.0433
17634TIP3    H274394   3.308   4.544  16.245 -1.4718 -0.3612  0.1220
17635TIP3   OH274395   0.038   2.451   5.336 -0.9373  0.3798 -0.5240
17635TIP3    H174396  -0.031   2.498   5.383 -0.3083  0.4966  0.2925
17635TIP3    H274397   0.031   2.361   5.368 -0.1758  0.5669  0.1959
17636TIP3   OH274398   3.889   3.333  12.679  0.9859  0.2508 -0.2344
17636TIP3    H174399   3.899   3.407  12.619 -0.1512 -0.0459 -0.8226
17636TIP3    H274400   3.866   3.373  12.763  0.6145  0.5845 -0.4917
17637TIP3   OH274401   2.675   2.654  14.510 -0.0368 -0.0178 -0.2895
17637TIP3    H174402   2.611   2.654  14.439  0.0523  0.1394 -0.3698
17637TIP3    H274403   2.759   2.634  14.468  0.4419  2.3871 -0.6232
17638TIP3   OH274404   2.063   3.060   4.831 -0.1794  0.6769  0.2391
17638TIP3    H174405   2.113   3.062   4.749 -1.6133  2.4879 -0.6524
17638TIP3    H274406   2.130   3.065   4.899  0.9886  0.3325 -0.8310
17639TIP3   OH274407   1.236   2.858  11.733 -0.4376  0.0315 -0.4806
17639TIP3    H174408   1.287   2.880  11.654  0.9970 -1.1438  0.0788
17639TIP3    H274409   1.283   2.901  11.804 -1.4641  0.6934 -0.1794
17640TIP3   OH274410   1.444   6.793  16.722  0.0452 -0.5183 -0.2924
17640TIP3    H174411   1.489   6.876  16.738 -1.4664  0.7577 -2.1994
17640TIP3    H274412   1.499   6.727  16.765  0.9256  1.5071  1.9001
17641TIP3   OH274413   6.663   2.535  13.303  1.1655 -0.2704 -0.3094
17641TIP3    H174414   6.633   2.454  13.262  0.2142 -0.3661  0.5564
17641TIP3    H274415   6.615   2.540  13.385  0.3923  1.7181 -0.8150
17642TIP3   OH274416   0.635   5.345   4.303  0.6019 -0.1593 -0.0795
17642TIP3    H174417   0.621   5.251   4.297 -0.8392 -0.0058  0.5727
17642TIP3    H274418   0.652   5.372   4.213 -1.0353 -0.7585 -0.6054
17643TIP3   OH274419   0.889   6.403   1.564  0.4384  0.3783  0.1038
17643TIP3    H174420   0.976   6.369   1.544  1.1874  1.5011  1.3117
17643TIP3    H274421   0.830   6.352   1.508  1.5400 -2.4460  1.3232
17644TIP3   OH274422   0.534   5.728   1.960 -0.0912  0.0511  0.1936
17644TIP3    H174423   0.608   5.753   2.015  0.1674 -0.5781  0.1375
17644TIP3    H274424   0.573   5.676   1.890 -0.1539  2.3324 -1.6428
17645TIP3   OH274425   2.600   4.716   5.585 -0.6130  0.1935  0.1761
17645TIP3    H174426   2.531   4.683   5.643 -0.8262 -1.2117 -0.8226
17645TIP3    H274427   2.614   4.645   5.523  0.6102  1.1096 -0.6248
17646TIP3   OH274428   0.021   0.512   0.242  0.3625 -0.2543  0.0404
17646TIP3    H174429  -0.059   0.546   0.201  1.0767 -0.0577 -1.2606
17646TIP3    H274430  -0.009   0.472   0.323 -0.7121  2.1012  0.8861
17647TIP3   OH274431   6.497   3.938  16.832  0.0813 -0.1763  0.1371
17647TIP3    H174432   6.557   3.881  16.880 -0.8358 -0.8639  0.4848
17647TIP3    H274433   6.447   3.880  16.776  0.9642  0.5967 -1.5219
17648TIP3   OH274434   1.296   1.223  14.488  0.0060  0.5061  0.8738
17648TIP3    H174435   1.256   1.148  14.444 -1.6054  1.7044  0.1827
17648TIP3    H274436   1.285   1.205  14.581  0.7662 -0.6702  0.7526
17649TIP3   OH274437   6.576   5.968  14.363  0.4141 -0.0988 -0.4917
17649TIP3    H174438   6.523   5.956  14.442 -0.6902  0.0079 -1.1934
17649TIP3    H274439   6.515   6.006  14.299  1.1030 -0.8487 -1.6217
17650TIP3   OH274440   1.027   1.664  16.302 -0.7200  0.3494 -0.1584
17650TIP3    H174441   1.111   1.623  16.326  0.0087  0.2550 -2.5473
17650TIP3    H274442   1.044   1.758  16.309 -0.2470  0.3423 -1.0122
17651TIP3   OH274443   6.676   0.101   0.893  0.0257 -0.2146  0.2885
17651TIP3    H174444   6.720   0.018   0.873  0.1185 -0.1276  0.1255
17651TIP3    H274445   6.585   0.086   0.869  0.2266  0.0501 -0.7055
17652TIP3   OH274446   0.081   0.086   6.014 -0.4202 -1.0007 -0.2520
17652TIP3    H174447   0.165   0.083   6.061 -0.7212 -1.0255  0.2891
17652TIP3    H274448   0.055  -0.006   6.005  0.0062 -1.0534 -1.1628
17653TIP3   OH274449   2.841   0.430   5.444  0.4526  0.3650 -0.6836
17653TIP3    H174450   2.862   0.338   5.458 -0.9941 -0.2123 -1.9730
17653TIP3    H274451   2.902   0.458   5.376 -0.0216 -0.0570 -1.2953
17654TIP3   OH274452   0.016   6.021  11.937  0.7379  1.0659 -0.5489
17654TIP3    H174453   0.041   6.061  11.854 -0.5543  5.2429  0.8156
17654TIP3    H274454  -0.080   6.029  11.939  0.8346  2.4664  1.8900
17655TIP3   OH274455   0.554   4.442   6.089 -0.7429  0.4772  0.3733
17655TIP3    H174456   0.516   4.526   6.114 -2.3409 -0.0396 -0.2105
17655TIP3    H274457   0.506   4.378   6.141  0.8890 -0.0582  1.2810
17656TIP3   OH274458   6.768   3.023  11.431  0.2783  0.7396  0.5224
17656TIP3    H174459   6.825   2.989  11.500 -0.0563 -0.5351  0.1989
17656TIP3    H274460   6.804   2.987  11.350 -0.1530  1.0852  0.1680
17657TIP3   OH274461   4.033   2.876   0.273 -0.6965  0.2215 -0.1165
17657TIP3    H174462   3.972   2.949   0.263  0.3264  1.0999 -0.2041
17657TIP3    H274463   4.078   2.894   0.355 -0.0542 -0.0096 -0.4107
17658TIP3   OH274464   0.103   5.764   6.111 -0.3400  0.2954 -0.4160
17658TIP3    H174465   0.083   5.742   6.020 -0.5336 -1.5884  0.0473
17658TIP3    H274466   0.190   5.728   6.126 -1.6464 -2.6022  1.0741
17659TIP3   OH274467   4.127   0.660   3.137  0.1024  0.6673  0.1356
17659TIP3    H174468   4.166   0.589   3.188  0.3908  0.0895 -0.8508
17659TIP3    H274469   4.120   0.624   3.048  0.6192  2.0127 -0.4752
17660TIP3   OH274470   1.063   1.270  12.981 -0.1046 -0.4079 -0.1681
17660TIP3    H174471   0.990   1.256  13.041 -0.7778  1.7844 -0.4094
17660TIP3    H274472   1.057   1.362  12.956  2.5084 -0.2507 -0.5275
17661TIP3   OH274473   2.987   0.867   0.012 -0.2142 -0.3128 -0.3448
17661TIP3    H174474   2.918   0.865  -0.054 -0.3793  1.6848 -0.2926
17661TIP3    H274475   2.963   0.939   0.070  2.7554  1.6589 -1.3380
17662TIP3   OH274476   0.064   4.421  13.629  0.0641  0.8178  0.0658
17662TIP3    H174477  -0.019   4.380  13.605  1.3655 -2.3902  0.5360
17662TIP3    H274478   0.087   4.474  13.552 -0.5623 -1.4522 -1.8284
17663TIP3   OH274479   2.899   3.796  11.925 -0.6061 -0.0074 -0.2153
17663TIP3    H174480   2.861   3.720  11.969 -2.7419  1.0628 -0.1378
17663TIP3    H274481   2.902   3.770  11.833 -0.1724 -0.6250 -0.0378
17664TIP3   OH274482   4.006   0.399  13.908  0.2313 -0.2093  0.1209
17664TIP3    H174483   3.970   0.321  13.866 -0.3680 -0.0396  0.3145
17664TIP3    H274484   3.955   0.409  13.988  0.6824  0.0614  0.3807
17665TIP3   OH274485   0.230   2.106  11.355 -0.1667 -0.1129 -0.1730
17665TIP3    H174486   0.200   2.196  11.342 -2.0248 -0.5832  0.4840
17665TIP3    H274487   0.300   2.094  11.291 -1.5484  1.0492 -2.0040
17666TIP3   OH274488   3.201   3.560   3.958  0.4122  0.1651 -0.4755
17666TIP3    H174489   3.279   3.507   3.939  0.4585 -0.6939  1.8686
17666TIP3    H274490   3.165   3.523   4.038 -0.3130  2.8695  0.5558
17667TIP3   OH274491   4.385   0.635  11.957  0.1054  0.4669 -0.1099
17667TIP3    H174492   4.309   0.582  11.932  0.3504  0.4822 -0.9234
17667TIP3    H274493   4.454   0.571  11.974  0.0757  0.4787  0.0585
17668TIP3   OH274494   1.309   1.578   2.260 -0.2909 -0.1725 -0.7583
17668TIP3    H174495   1.319   1.516   2.332 -1.1795 -0.2262 -0.6718
17668TIP3    H274496   1.258   1.531   2.194 -1.8370  0.7594 -0.2894
17669TIP3   OH274497   4.029   6.294  14.932  0.2827 -0.4272  0.3092
17669TIP3    H174498   4.065   6.296  14.843 -2.2938 -2.0589 -0.8685
17669TIP3    H274499   4.077   6.363  14.978  0.9427  1.2719 -2.6437
17670TIP3   OH274500   2.065   1.709   4.778  0.4476  0.2413  0.5872
17670TIP3    H174501   2.062   1.653   4.855  1.8343  1.2171  1.4035
17670TIP3    H274502   2.018   1.788   4.804  0.3725  0.3205  0.2195
17671TIP3   OH274503   4.137   4.819  14.494  0.1417  0.0771 -0.1483
17671TIP3    H174504   4.098   4.904  14.474 -1.7876 -0.4194  1.1912
17671TIP3    H274505   4.096   4.759  14.432  1.3565  0.0601 -0.9623
17672TIP3   OH274506   5.613   5.692  11.818 -0.2507  0.0105  0.6760
17672TIP3    H174507   5.558   5.660  11.889 -0.5664 -0.0295  0.4140
17672TIP3    H274508   5.567   5.666  11.738 -1.2328  2.2744  0.4158
17673TIP3   OH274509   2.020   6.430  13.752 -0.4832  0.5693  0.2093
17673TIP3    H174510   1.980   6.409  13.836 -3.2718  3.0975 -0.3239
17673TIP3    H274511   2.027   6.526  13.752  0.2362  0.5793 -2.0875
17674TIP3   OH274512   4.150   6.075  15.050  0.0360 -0.4535  0.2366
17674TIP3    H174513   4.091   6.145  15.022 -0.3421 -0.9017 -0.1019
17674TIP3    H274514   4.200   6.113  15.122  0.5480  0.5062 -0.6070
17675TIP3   OH274515   2.093   6.555   6.071  0.0428 -0.3665 -0.6100
17675TIP3    H174516   2.007   6.557   6.113  0.0857 -0.6935 -0.5043
17675TIP3    H274517   2.134   6.638   6.095 -0.3952 -0.0352 -0.9843
17676TIP3   OH274518   4.761   5.952  14.964 -0.1360  0.3156  0.3093
17676TIP3    H174519   4.848   5.934  14.929  0.5822 -0.3401  2.3019
17676TIP3    H274520   4.761   6.047  14.980  0.2748  0.3013  0.4206
17677TIP3   OH274521   0.951   5.643  16.974  0.8125 -0.4334  0.2416
17677TIP3    H174522   0.990   5.558  16.955 -0.7562 -1.2120  0.3744
17677TIP3    H274523   1.011   5.683  17.037  0.7795 -2.1172  1.4143
17678TIP3   OH274524   1.757   1.979   5.588  0.1448 -0.5515 -0.0198
17678TIP3    H174525   1.790   1.917   5.523  1.9483 -1.2062  1.4119
17678TIP3    H274526   1.833   1.998   5.643 -0.0462  3.7658 -0.9275
17679TIP3   OH274527   0.203   3.417   5.864 -0.1151  0.0278 -0.0091
17679TIP3    H174528   0.203   3.326   5.834 -1.7438  0.1499 -0.4711
17679TIP3    H274529   0.143   3.461   5.804  1.2992  1.6165 -0.3382
17680TIP3   OH274530   6.410   4.537  13.211  0.0331  0.2599 -0.1124
17680TIP3    H174531   6.340   4.475  13.229  0.5649 -0.0667  0.8466
17680TIP3    H274532   6.462   4.495  13.143 -1.8407  1.4023 -2.4315
17681TIP3   OH274533   3.944   6.240  16.636  0.1364 -0.1253  0.6444
17681TIP3    H174534   3.992   6.273  16.560  0.9290 -0.5174  0.9635
17681TIP3    H274535   3.864   6.203  16.600  0.0219  0.6330  0.1108
17682TIP3   OH274536   3.247   0.271  11.515 -0.0667 -0.0598 -0.0353
17682TIP3    H174537   3.262   0.272  11.610 -1.2110 -2.7592  0.2612
17682TIP3    H274538   3.291   0.192  11.485  0.3889  0.8225 -1.8254
17683TIP3   OH274539   2.896   3.785   3.332  0.1229  0.0299 -0.2662
17683TIP3    H174540   2.937   3.870   3.324 -1.0898  0.5029 -2.0988
17683TIP3    H274541   2.947   3.739   3.399  2.9436  0.9252 -1.6567
17684TIP3   OH274542   6.739   5.822  12.893 -0.7647  0.2818  0.2345
17684TIP3    H174543   6.754   5.906  12.848 -1.8254  0.9396  1.0592
17684TIP3    H274544   6.787   5.830  12.975 -0.5625 -0.0732  0.1513
17685TIP3   OH274545   4.192   4.890   4.060  0.2871 -0.2925 -0.5416
17685TIP3    H174546   4.188   4.827   3.988  0.6599 -0.7352 -0.1851
17685TIP3    H274547   4.284   4.911   4.068  0.1471  0.4033 -0.7394
17686TIP3   OH274548   0.199   6.153  13.844  0.1740  0.3238  0.0285
17686TIP3    H174549   0.284   6.164  13.801  0.3301  2.3464  0.7672
17686TIP3    H274550   0.197   6.220  13.913 -1.7573 -0.0993  0.4590
17687TIP3   OH274551   1.164   3.176  16.244  0.2486  0.2432 -0.1530
17687TIP3    H174552   1.235   3.201  16.303  0.4503 -2.3711  0.8146
17687TIP3    H274553   1.180   3.227  16.165  2.3148  0.8438  0.5794
17688TIP3   OH274554   2.222   3.726  12.774  0.0482 -0.2446 -0.4862
17688TIP3    H174555   2.144   3.679  12.746 -0.1739 -0.5439  0.6015
17688TIP3    H274556   2.191   3.815  12.793  0.3052  0.1275 -1.6780
17689TIP3   OH274557   3.107   2.702   3.739  0.4741  0.1852 -0.0286
17689TIP3    H174558   3.115   2.661   3.653  1.2110  0.4530 -0.0949
17689TIP3    H274559   3.140   2.637   3.801 -0.8083 -0.3258  0.1566
17690TIP3   OH274560   4.622   2.128   0.950 -0.0655 -0.2896  0.1224
17690TIP3    H174561   4.585   2.047   0.917  0.6323 -0.3466 -0.5571
17690TIP3    H274562   4.645   2.178   0.871  1.0710 -0.1710  0.5067
17691TIP3   OH274563   1.938   5.796   2.015  0.4770 -0.1458  0.6180
17691TIP3    H174564   1.993   5.832   1.946 -1.4682 -0.2129 -1.0423
17691TIP3    H274565   1.911   5.872   2.067 -0.7126  0.3717 -0.7155
17692TIP3   OH274566   0.602   2.316   3.989  0.1951 -0.2549 -0.4531
17692TIP3    H174567   0.691   2.348   3.981  0.1573 -0.4239 -1.6629
17692TIP3    H274568   0.601   2.269   4.073  1.1248  0.0732 -0.2483
17693TIP3   OH274569   6.765   5.914   1.480  0.4207 -0.0828 -0.0760
17693TIP3    H174570   6.811   5.860   1.544 -1.7010 -3.8768 -1.4335
17693TIP3    H274571   6.753   5.857   1.404 -3.0384  1.9075 -1.2796
17694TIP3   OH274572   2.815   6.095  13.082 -0.2802 -0.8467 -0.7206
17694TIP3    H174573   2.806   6.092  12.987  1.2580  0.2128 -0.9188
17694TIP3    H274574   2.768   6.017  13.113 -0.9501 -1.1020 -2.3184
17695TIP3   OH274575   3.873   4.291  14.992 -0.0660 -0.4870 -0.3879
17695TIP3    H174576   3.893   4.260  14.904 -2.5595 -2.9555 -0.2372
17695TIP3    H274577   3.781   4.269  15.005 -0.1115  0.9096  2.4121
17696TIP3   OH274578   6.305   5.447   4.197 -0.2801 -0.0160  0.1364
17696TIP3    H174579   6.308   5.455   4.102  0.6789  0.8691  0.2227
17696TIP3    H274580   6.254   5.367   4.213 -0.1678 -0.3577 -1.1232
17697TIP3   OH274581   3.559   4.975   1.078  0.3653 -0.3824 -0.5431
17697TIP3    H174582   3.616   5.052   1.073  1.8559 -1.4270 -0.1798
17697TIP3    H274583   3.472   5.011   1.093  1.1594  1.2093  0.4646
17698TIP3   OH274584   4.155   1.494  12.287 -0.0612  0.1732  0.2877
17698TIP3    H174585   4.190   1.479  12.200 -1.2612  0.5320 -0.2820
17698TIP3    H274586   4.096   1.569  12.277 -1.4865 -0.7949  1.0370
17699TIP3   OH274587   0.850   0.958   5.162 -0.3072  0.3721 -0.1376
17699TIP3    H174588   0.900   0.918   5.234  1.2010  2.0493 -0.1919
17699TIP3    H274589   0.819   0.883   5.111  1.0652 -0.7907  0.6390
17700TIP3   OH274590   5.573   1.298   5.022  0.2561 -0.3251  0.3050
17700TIP3    H174591   5.664   1.275   5.004 -0.4061 -2.1715 -1.1316
17700TIP3    H274592   5.523   1.222   4.990 -1.8673  1.1860 -0.1635
17701TIP3   OH274593   2.494   5.128  10.794 -0.6830 -0.0487 -1.0002
17701TIP3    H174594   2.558   5.198  10.786  0.4151 -0.5485  2.1906
17701TIP3    H274595   2.428   5.162  10.854  0.7201 -2.1527  1.9657
17702TIP3   OH274596   5.794   6.632  12.166  0.0880 -0.2113  0.2278
17702TIP3    H174597   5.718   6.677  12.202 -0.5377 -0.7858 -0.3385
17702TIP3    H274598   5.768   6.610  12.076  0.2895 -1.8653  0.5351
17703TIP3   OH274599   0.746   0.654  12.492  0.1822  0.0467  0.3202
17703TIP3    H174600   0.778   0.690  12.409 -0.7470  0.0479 -0.0482
17703TIP3    H274601   0.717   0.730  12.542 -4.0174 -0.1287 -1.3821
17704TIP3   OH274602   3.268   4.671   5.310 -0.0628 -0.7981  0.1871
17704TIP3    H174603   3.331   4.601   5.328 -1.3783 -1.5680  2.1119
17704TIP3    H274604   3.184   4.634   5.336 -0.5152  2.3790  4.2196
17705TIP3   OH274605   5.357   3.939  17.100 -0.5563  0.2474  0.2074
17705TIP3    H174606   5.262   3.945  17.104 -0.6122 -0.0894 -0.4539
17705TIP3    H274607   5.374   3.872  17.034  0.1507  2.2149 -1.7500
17706TIP3   OH274608   6.541   4.336   1.593 -0.4212 -0.1730  0.9831
17706TIP3    H174609   6.576   4.352   1.680  1.0246 -3.2961  1.1339
17706TIP3    H274610   6.524   4.242   1.591 -1.6756  0.0064 -1.6888
17707TIP3   OH274611   4.726   4.287  11.813 -0.0469 -0.6604  0.3498
17707TIP3    H174612   4.705   4.380  11.806  0.6820 -0.5661 -0.9130
17707TIP3    H274613   4.812   4.284  11.853 -0.2493 -0.8151  0.7770
17708TIP3   OH274614   1.810   2.894   6.085 -0.2026 -0.3969  0.3627
17708TIP3    H174615   1.801   2.948   6.164 -0.0045 -0.1914  0.2418
17708TIP3    H274616   1.887   2.928   6.041 -1.1362  0.4448 -0.6769
17709TIP3   OH274617   6.722   5.596   0.352 -0.4455 -0.1946  0.2759
17709TIP3    H174618   6.793   5.647   0.390 -0.2824 -0.1138 -0.1314
17709TIP3    H274619   6.676   5.558   0.428  0.2367 -0.5255  0.5356
17710TIP3   OH274620   3.589   0.602  17.118  0.3816  0.0566 -0.2673
17710TIP3    H174621   3.508   0.556  17.094  1.0449 -2.3247  1.6418
17710TIP3    H274622   3.648   0.589  17.044 -0.7193  1.3531 -1.4422
17711TIP3   OH274623   0.412   0.524   2.443 -0.4291  0.0391 -0.1784
17711TIP3    H174624   0.444   0.447   2.489 -0.4833  0.2338  0.1926
17711TIP3    H274625   0.490   0.568   2.412 -0.4035 -0.2223 -0.4808
17712TIP3   OH274626   4.945   0.646  16.276 -0.1706  0.3465  0.5486
17712TIP3    H174627   5.011   0.701  16.317 -0.3165  0.6305  0.4014
17712TIP3    H274628   4.888   0.620  16.349  1.0106 -1.2348  0.9749
17713TIP3   OH274629   1.773   6.269   1.540  0.5239  0.0003 -0.0342
17713TIP3    H174630   1.772   6.191   1.484  1.0049 -0.1377  0.1500
17713TIP3    H274631   1.767   6.235   1.629  1.6951  0.1170  0.1044
17714TIP3   OH274632   2.808   3.008   5.603 -0.3882 -0.1952  0.1521
17714TIP3    H174633   2.797   3.086   5.547 -0.0057 -0.1437  0.1471
17714TIP3    H274634   2.768   2.937   5.553  0.8777 -0.3540 -0.6673
17715TIP3   OH274635   6.176   1.057  14.778  0.8767  0.5463  0.4937
17715TIP3    H174636   6.132   1.114  14.842 -0.1547 -0.6262  0.8794
17715TIP3    H274637   6.252   1.022  14.825  0.6027  0.3582  0.8019
17716TIP3   OH274638   3.638   3.839   3.224  0.1923 -0.6413  0.5932
17716TIP3    H174639   3.633   3.890   3.305  0.3760 -0.7280  0.6596
17716TIP3    H274640   3.714   3.875   3.178 -0.7171  0.3478 -0.1851
17717TIP3   OH274641   0.231   6.775  11.153  0.3459 -0.2657  0.1374
17717TIP3    H174642   0.140   6.794  11.129 -0.3681 -1.8030  1.4136
17717TIP3    H274643   0.283   6.812  11.082 -1.3468 -0.4771 -1.2857
17718TIP3   OH274644   5.677   4.949   1.526 -0.0143  0.0013  0.6841
17718TIP3    H174645   5.703   4.859   1.510 -2.1086 -0.6178  0.4762
17718TIP3    H274646   5.721   4.972   1.608  1.9485 -0.5602 -0.1517
17719TIP3   OH274647   5.659   3.426   1.375  0.2386 -0.0124 -0.6873
17719TIP3    H174648   5.677   3.500   1.317 -1.2073 -0.0964 -1.2748
17719TIP3    H274649   5.564   3.425   1.385  0.3357 -0.9721  0.4188
17720TIP3   OH274650   0.530   6.528   2.674  0.2045  0.5717 -0.7462
17720TIP3    H174651   0.592   6.601   2.684  0.7568  0.1552 -1.1129
17720TIP3    H274652   0.460   6.564   2.620  0.0205  1.1082 -0.1678
17721TIP3   OH274653   0.642   4.779   4.351 -0.1487  0.2979 -0.6677
17721TIP3    H174654   0.667   4.870   4.366 -0.1451  0.0409  1.0517
17721TIP3    H274655   0.571   4.763   4.413 -2.1196 -0.0828 -2.8642
17722TIP3   OH274656   5.581   5.440  15.037 -0.2332 -0.2798 -0.3153
17722TIP3    H174657   5.500   5.389  15.045 -0.2012 -0.2656  0.1134
17722TIP3    H274658   5.618   5.441  15.125 -0.5087  0.9323 -0.1944
17723TIP3   OH274659   4.109   1.625  15.339  0.6466 -0.7881  0.6271
17723TIP3    H174660   4.158   1.561  15.391 -0.5037 -0.2122  2.5319
17723TIP3    H274661   4.036   1.575  15.303  1.5570 -1.2346 -0.6404
17724TIP3   OH274662   4.234   1.728   4.103  0.4391 -0.4497  0.0173
17724TIP3    H174663   4.156   1.674   4.095 -0.3734  0.6501  0.3322
17724TIP3    H274664   4.232   1.758   4.194  1.4006 -0.6462  0.1134
17725TIP3   OH274665   4.776   6.510   3.090 -0.1620  0.1315 -0.7447
17725TIP3    H174666   4.736   6.457   3.159  0.1872  0.6790 -0.1130
17725TIP3    H274667   4.708   6.519   3.023  0.2167 -2.3908 -1.6129
17726TIP3   OH274668   2.118   0.177   3.561 -0.3633 -0.2822  0.1543
17726TIP3    H174669   2.047   0.143   3.507 -0.4744  0.0463  0.0934
17726TIP3    H274670   2.099   0.270   3.571  1.1234  0.2767 -1.5877
17727TIP3   OH274671   2.287   3.257   2.458 -0.3838 -0.3058  0.3216
17727TIP3    H174672   2.358   3.223   2.512 -0.8949 -1.0361  0.5530
17727TIP3    H274673   2.208   3.234   2.507 -0.7841  0.3811  0.0012
17728TIP3   OH274674   4.651   4.651  14.509 -0.2505  0.2989 -0.1500
17728TIP3    H174675   4.673   4.599  14.587  2.9359 -1.4889 -2.0134
17728TIP3    H274676   4.556   4.641  14.499 -0.0634 -4.1533  0.4371
17729TIP3   OH274677   2.400   3.675  15.760 -0.0817  0.4446  0.3979
17729TIP3    H174678   2.437   3.732  15.692 -0.4048 -0.9304 -1.0141
17729TIP3    H274679   2.476   3.636  15.803  0.1288  1.3917  0.9026
17730TIP3   OH274680   5.183   0.706   2.066 -0.1326  0.1882  0.1367
17730TIP3    H174681   5.245   0.698   1.993  0.2408  1.2257  0.3278
17730TIP3    H274682   5.101   0.671   2.031  0.4457 -0.8626 -0.2407
17731TIP3   OH274683   1.989   3.012  13.197 -0.2695 -0.6334 -0.0257
17731TIP3    H174684   2.006   3.081  13.132 -0.5339  0.9798  1.5562
17731TIP3    H274685   1.894   3.001  13.196 -0.3351 -0.1568  0.5113
17732TIP3   OH274686   5.807   5.841  17.095 -0.2235  0.2417 -0.1576
17732TIP3    H174687   5.754   5.763  17.078 -0.9254  0.7658 -0.4258
17732TIP3    H274688   5.863   5.816  17.169 -0.7751 -0.3540  0.0727
17733TIP3   OH274689   5.698   0.055  13.858 -0.4739 -0.2978  0.4044
17733TIP3    H174690   5.702  -0.039  13.873  1.2888 -0.3157  0.0350
17733TIP3    H274691   5.625   0.067  13.798 -0.0952 -1.5449 -0.3295
17734TIP3   OH274692   5.492   0.237   3.174 -0.1376  0.3458  0.0191
17734TIP3    H174693   5.442   0.306   3.130 -1.6154 -0.6247  0.1284
17734TIP3    H274694   5.473   0.158   3.125  1.5157 -0.0229 -0.0777
17735TIP3   OH274695   3.577   5.996  12.744  0.1659  0.2380 -0.3042
17735TIP3    H174696   3.665   5.966  12.767  1.0250  1.6322 -1.6214
17735TIP3    H274697   3.574   6.087  12.775 -1.4229 -0.2459  1.1756
17736TIP3   OH274698   5.442   4.015  16.784  0.3044  0.2793  0.4524
17736TIP3    H174699   5.437   3.920  16.795  1.5221  0.2035  0.5554
17736TIP3    H274700   5.402   4.032  16.699 -1.3999 -0.1286  1.1389
17737TIP3   OH274701   3.074   5.659   3.090  0.0341 -0.1021 -0.3003
17737TIP3    H174702   2.995   5.680   3.040  0.5747  1.4254 -0.5563
17737TIP3    H274703   3.131   5.615   3.027  0.2082  0.6664 -0.6825
17738TIP3   OH274704   6.503   3.732   0.437  0.5244 -0.2791  0.1771
17738TIP3    H174705   6.541   3.818   0.453 -2.1791  1.0523  0.1155
17738TIP3    H274706   6.508   3.722   0.342 -1.1722  0.9307 -0.0927
17739TIP3   OH274707   1.245   0.802  11.881  0.1081 -0.5961 -0.4721
17739TIP3    H174708   1.174   0.854  11.844  2.2746  2.0948 -1.1518
17739TIP3    H274709   1.221   0.792  11.974  0.5226  3.7080  0.3173
17740TIP3   OH274710   1.076   4.781   5.790 -0.0937 -0.2486 -0.0815
17740TIP3    H174711   1.014   4.842   5.830 -0.5619 -1.7981  1.7078
17740TIP3    H274712   1.068   4.701   5.842 -0.0732 -2.1307 -2.7770
17741TIP3   OH274713   1.099   3.462   4.136  0.0789  0.6464  0.7636
17741TIP3    H174714   1.056   3.468   4.221 -1.7227  0.1171 -0.0697
17741TIP3    H274715   1.177   3.409   4.153 -0.1037  0.7785  2.1275
17742TIP3   OH274716   0.087   6.566  14.289 -0.4393  0.2161 -0.2603
17742TIP3    H174717   0.165   6.511  14.292 -0.9576 -0.6041 -1.2243
17742TIP3    H274718   0.054   6.566  14.379 -0.8719 -1.7213 -0.3712
17743TIP3   OH274719   6.678   6.026  13.370 -0.5246 -0.4523 -0.3906
17743TIP3    H174720   6.669   5.943  13.322 -0.3724 -1.2614  0.9303
17743TIP3    H274721   6.669   6.093  13.303 -1.2845 -1.5208 -1.4108
17744TIP3   OH274722   0.016   0.396   6.551  0.3241 -0.3173  0.4185
17744TIP3    H174723  -0.054   0.418   6.612  1.4963  0.8308  1.4024
17744TIP3    H274724   0.059   0.479   6.531  0.5447 -0.7876 -1.3058
17745TIP3   OH274725   0.798   1.144   2.611  0.0780  0.3089 -0.1011
17745TIP3    H174726   0.875   1.200   2.602  0.9609 -0.6515  1.0159
17745TIP3    H274727   0.729   1.190   2.564  0.9590  1.9252  0.1023
17746TIP3   OH274728   5.244   5.574   4.408 -0.1879 -0.8743  0.2606
17746TIP3    H174729   5.192   5.583   4.488  0.7428 -2.6300  1.1331
17746TIP3    H274730   5.181   5.568   4.338 -1.0323  1.2149  0.7516
17747TIP3   OH274731   1.778   3.959   3.983  0.5409 -0.0654  0.2341
17747TIP3    H174732   1.839   3.894   3.949  1.0308 -0.1748  1.2933
17747TIP3    H274733   1.826   4.042   3.982 -0.0076  0.2572 -0.9032
17748TIP3   OH274734   3.371   5.981   5.328 -0.2666  0.4188  0.4373
17748TIP3    H174735   3.288   5.934   5.336  1.3485 -2.8332 -0.2716
17748TIP3    H274736   3.405   5.985   5.417  0.6011 -1.9763  0.2879
17749TIP3   OH274737   5.732   1.282   5.820  0.0613 -0.5547 -0.2159
17749TIP3    H174738   5.763   1.349   5.759  1.7644 -1.0552  0.0723
17749TIP3    H274739   5.671   1.328   5.878 -1.1179  0.0672 -1.8751
17750TIP3   OH274740   0.572   1.804  12.201 -0.0638  0.1070  0.1919
17750TIP3    H174741   0.615   1.812  12.115 -0.1573  0.0547  0.1400
17750TIP3    H274742   0.492   1.753  12.183  0.6370 -1.1754  0.5557
17751TIP3   OH274743   0.290   1.420   1.894 -0.2210 -0.5096 -0.3697
17751TIP3    H174744   0.338   1.423   1.977  2.7813 -0.2211 -2.0050
17751TIP3    H274745   0.219   1.358   1.910 -0.2095  0.0911  2.6050
17752TIP3   OH274746   0.741   2.704   2.726  0.2068  0.6794  0.1800
17752TIP3    H174747   0.725   2.783   2.675  2.0848  1.9553  1.4390
17752TIP3    H274748   0.726   2.632   2.665  0.9729  2.0749 -1.7560
17753TIP3   OH274749   1.199   6.431   4.293 -0.7476 -0.3923 -0.7509
17753TIP3    H174750   1.160   6.509   4.253 -0.3992  0.2134  0.0581
17753TIP3    H274751   1.284   6.422   4.251  0.3769  1.2649  0.9767
17754TIP3   OH274752   3.790   5.971   2.359 -0.5009  0.0962  0.1590
17754TIP3    H174753   3.795   5.932   2.446 -0.1362  0.6058  0.3735
17754TIP3    H274754   3.703   6.011   2.356 -1.2096 -1.4237 -0.3730
17755TIP3   OH274755   5.925   1.757   1.172 -0.3851  0.4965  0.3860
17755TIP3    H174756   5.890   1.677   1.210 -2.2983  1.3209  0.4895
17755TIP3    H274757   5.911   1.747   1.077  0.5668  0.1966  0.2606
17756TIP3   OH274758   2.354   2.340  13.462 -0.9285 -0.0187 -0.6083
17756TIP3    H174759   2.349   2.433  13.482  1.6827 -0.0822  0.7065
17756TIP3    H274760   2.411   2.303  13.529 -0.7557 -2.3216 -1.8914
17757TIP3   OH274761   6.376   6.362   3.115  0.3468 -0.5907 -0.1547
17757TIP3    H174762   6.428   6.428   3.160  0.4928 -1.3772  0.8931
17757TIP3    H274763   6.286   6.379   3.144 -0.0386  0.8133 -2.0211
17758TIP3   OH274764   6.488   0.126  17.194  0.0532  0.3382  0.2573
17758TIP3    H174765   6.492   0.106  17.101 -0.6741 -1.1524  0.5149
17758TIP3    H274766   6.578   0.120  17.224  0.1529 -0.2554 -0.1491
17759TIP3   OH274767   6.083   2.876  12.381  0.0337 -0.0538  0.0398
17759TIP3    H174768   6.021   2.943  12.411 -0.0162  0.5814 -1.3968
17759TIP3    H274769   6.074   2.876  12.286  0.1650 -2.0129 -0.0076
17760TIP3   OH274770   2.583   2.476   3.608  0.3093  0.3184  0.5132
17760TIP3    H174771   2.523   2.534   3.656 -0.3583  0.2186 -0.1724
17760TIP3    H274772   2.670   2.503   3.636 -0.0100  1.2847  0.6259
17761TIP3   OH274773   5.816   4.662  17.026  0.2462  0.3781 -0.3156
17761TIP3    H174774   5.720   4.668  17.024 -0.0034 -2.3690 -2.3817
17761TIP3    H274775   5.834   4.568  17.026  2.9730  0.8225 -0.6806
17762TIP3   OH274776   2.733   0.420   2.197  0.3785  0.3312  0.0338
17762TIP3    H174777   2.673   0.452   2.264  1.4957  1.7599  0.4088
17762TIP3    H274778   2.762   0.334   2.229 -2.1421 -0.8531 -0.6359
17763TIP3   OH274779   6.189   5.522  10.680 -0.0675 -0.1259 -0.3597
17763TIP3    H174780   6.213   5.457  10.746 -0.8161  0.2330  0.2829
17763TIP3    H274781   6.171   5.470  10.601 -0.0257 -0.6391 -0.0381
17764TIP3   OH274782   2.713   4.770  12.148  0.4316 -0.3751  0.2526
17764TIP3    H174783   2.638   4.775  12.089  0.6872  0.8452 -0.0003
17764TIP3    H274784   2.736   4.677  12.150  0.1961 -0.4981 -1.2872
17765TIP3   OH274785   3.125   5.487   4.656 -0.0741 -0.5336  0.0114
17765TIP3    H174786   3.047   5.522   4.699  0.8581  1.7591 -0.0320
17765TIP3    H274787   3.138   5.545   4.581  1.2591 -1.3472 -0.4065
17766TIP3   OH274788   0.723   5.401   5.623  0.7982 -0.1320 -0.1531
17766TIP3    H174789   0.630   5.388   5.606  1.0670  2.0267 -4.7485
17766TIP3    H274790   0.766   5.324   5.585  1.0024  0.4446 -1.1170
17767TIP3   OH274791   6.489   2.203   3.637 -0.0733  0.0188 -0.0097
17767TIP3    H174792   6.466   2.240   3.552  1.0157  0.1161 -0.2845
17767TIP3    H274793   6.441   2.256   3.700 -1.6361 -0.6518 -0.5908
17768TIP3   OH274794   1.107   2.994  12.519 -0.4612  0.0439  0.1167
17768TIP3    H174795   1.049   3.042  12.577  0.7892  0.4699  1.0536
17768TIP3    H274796   1.161   3.062  12.477 -1.9124 -0.1585 -2.2549
17769TIP3   OH274797   5.599   2.509  14.580 -0.0572  0.4152  0.2402
17769TIP3    H174798   5.685   2.523  14.541 -0.3685 -1.7114 -1.4060
17769TIP3    H274799   5.539   2.506  14.505 -1.6099  1.8871  1.3543
17770TIP3   OH274800   5.891   4.338   3.333 -0.1368 -0.0865 -0.4424
17770TIP3    H174801   5.906   4.334   3.427 -1.5957 -1.0503 -0.2142
17770TIP3    H274802   5.833   4.414   3.321 -2.8138 -1.9306 -0.0572
17771TIP3   OH274803   6.182   2.077   3.160  0.1244  0.5111 -0.1751
17771TIP3    H174804   6.240   2.151   3.182 -0.0308  1.1031 -1.6529
17771TIP3    H274805   6.099   2.100   3.202  0.5510  0.3336  0.7963
17772TIP3   OH274806   5.015   4.866   6.686 -0.1918 -0.4979 -0.0479
17772TIP3    H174807   5.046   4.815   6.761  3.3484  1.3082 -0.1055
17772TIP3    H274808   5.065   4.833   6.612  1.4782  2.2816 -0.2593
17773TIP3   OH274809   1.064   5.015   4.060 -0.5921 -0.6078  0.1147
17773TIP3    H174810   1.137   4.985   4.006 -1.4866  0.4435 -1.7504
17773TIP3    H274811   1.042   5.101   4.025 -2.5006 -0.7476  0.8720
17774TIP3   OH274812   3.337   0.630   1.478  0.3563  0.5582  0.0102
17774TIP3    H174813   3.318   0.700   1.415  0.0232 -0.1190 -0.6531
17774TIP3    H274814   3.362   0.676   1.558 -0.0938  1.4395 -0.3446
17775TIP3   OH274815   6.528   4.351  17.217  0.3481 -0.4732 -0.0578
17775TIP3    H174816   6.596   4.414  17.195 -0.6838  1.0332  0.9022
17775TIP3    H274817   6.461   4.362  17.149  0.3495 -0.8362 -0.1206
17776TIP3   OH274818   3.083   5.761  14.550  0.3928 -0.4116  0.3646
17776TIP3    H174819   3.132   5.790  14.627  1.4455 -2.9246  0.7629
17776TIP3    H274820   3.148   5.719  14.494 -0.7177 -0.5910 -0.8578
17777TIP3   OH274821   0.463   6.076   2.440  0.4775  0.0099  0.4917
17777TIP3    H174822   0.532   6.066   2.505 -0.2382 -0.7527  1.1510
17777TIP3    H274823   0.390   6.024   2.474  0.7547 -2.1386 -1.8875
17778TIP3   OH274824   4.626   0.077   0.754 -0.5981  0.2589  0.3163
17778TIP3    H174825   4.613   0.017   0.681 -0.2270  0.6916 -0.1105
17778TIP3    H274826   4.538   0.096   0.786 -0.6841 -1.8423  1.5753
17779TIP3   OH274827   2.429   2.090  16.439 -0.0167 -0.1422 -0.1344
17779TIP3    H174828   2.416   2.166  16.496  1.2740 -0.1635  0.2261
17779TIP3    H274829   2.431   2.015  16.498  0.4805 -0.2586 -0.2914
17780TIP3   OH274830   0.460   6.150  17.279 -0.1444 -0.5287  0.1753
17780TIP3    H174831   0.421   6.140  17.366  1.7757  0.8592  1.2536
17780TIP3    H274832   0.463   6.245  17.264  0.0854 -0.7237 -1.1736
17781TIP3   OH274833   4.403   2.485   5.313  0.6957 -0.7641  0.3737
17781TIP3    H174834   4.385   2.406   5.262 -0.5928 -0.3748  0.1992
17781TIP3    H274835   4.481   2.524   5.271  0.7298 -1.3974 -0.1641
17782TIP3   OH274836   6.474   5.680   0.531  0.1942  0.7249 -0.0125
17782TIP3    H174837   6.386   5.672   0.567  1.1953  0.9811  2.6895
17782TIP3    H274838   6.499   5.590   0.510 -0.0497  0.4275  0.9327
17783TIP3   OH274839   4.757   2.588   0.537 -0.6420 -0.4657  0.1153
17783TIP3    H174840   4.781   2.511   0.589  0.9444  0.1738  0.4061
17783TIP3    H274841   4.729   2.552   0.452  0.1873 -1.3674  0.2034
17784TIP3   OH274842   1.156   3.327   3.665 -0.1278 -0.3795  0.5324
17784TIP3    H174843   1.089   3.260   3.654 -0.2721 -0.2876  0.8325
17784TIP3    H274844   1.213   3.317   3.590 -0.5902 -0.3356  0.1727
17785TIP3   OH274845   2.309   3.651   4.709 -0.1565  0.0218 -0.0785
17785TIP3    H174846   2.276   3.730   4.753 -0.6396  0.1606 -0.6566
17785TIP3    H274847   2.376   3.684   4.649 -0.9749  0.1306 -0.9649
17786TIP3   OH274848   0.139   2.747  14.553  0.0083 -0.3867 -0.5665
17786TIP3    H174849   0.130   2.787  14.466  0.5743 -1.9635 -1.3851
17786TIP3    H274850   0.224   2.779  14.585 -0.7406  1.1733 -0.0257
17787TIP3   OH274851   0.257   6.592   5.573  0.6772 -0.2892  0.2110
17787TIP3    H174852   0.227   6.510   5.535 -1.0372 -0.4227  1.7216
17787TIP3    H274853   0.324   6.566   5.637  0.7264 -0.4375  0.0984
17788TIP3   OH274854   5.806   3.750   2.169 -0.2746  0.1740  0.1491
17788TIP3    H174855   5.783   3.664   2.133  0.2374 -0.1389  0.5635
17788TIP3    H274856   5.748   3.760   2.244  0.2475 -0.1835  0.6054
17789TIP3   OH274857   0.642   6.323   4.078  0.1344  0.4183  0.4442
17789TIP3    H174858   0.654   6.233   4.046 -2.4650 -0.0751  0.6206
17789TIP3    H274859   0.730   6.361   4.077  1.1283 -1.7231 -0.8250
17790TIP3   OH274860   0.680   4.478  10.859  0.1433 -0.3611  0.2819
17790TIP3    H174861   0.762   4.449  10.898  1.7383  0.1533 -2.4399
17790TIP3    H274862   0.622   4.403  10.867  1.7827 -1.7372 -0.1033
17791TIP3   OH274863   3.843   4.920  15.481 -0.2908 -0.0790 -0.2147
17791TIP3    H174864   3.799   4.932  15.397 -1.3070  1.7774  0.5297
17791TIP3    H274865   3.823   4.999  15.530  0.4831 -1.0130  1.7029
17792TIP3   OH274866   3.179   2.251   5.575  1.1857  0.3068  0.2195
17792TIP3    H174867   3.169   2.177   5.515 -1.7530  0.1770  0.6862
17792TIP3    H274868   3.125   2.320   5.535  1.5990  1.2199  1.2039
17793TIP3   OH274869   4.830   6.065  14.639  0.1983  0.6530  0.3223
17793TIP3    H174870   4.896   6.018  14.690 -0.3346  0.6663  1.0498
17793TIP3    H274871   4.844   6.036  14.549 -0.4813 -1.3973  0.8082
17794TIP3   OH274872   3.641   2.558  13.366 -0.5552 -0.0622  0.3198
17794TIP3    H174873   3.723   2.544  13.414 -1.9318 -1.4608  2.4320
17794TIP3    H274874   3.657   2.637  13.314  2.4999 -0.9229 -0.2767
17795TIP3   OH274875   2.347   5.946   4.160  0.0232 -0.0877  0.0999
17795TIP3    H174876   2.427   5.994   4.181  1.0441 -0.5126 -2.4619
17795TIP3    H274877   2.361   5.913   4.071 -2.7058 -0.8378 -0.1468
17796TIP3   OH274878   5.821   4.236  10.795  0.2073  0.0225 -0.5593
17796TIP3    H174879   5.876   4.305  10.834  0.6403 -0.6785  0.0974
17796TIP3    H274880   5.870   4.155  10.811 -0.8890 -0.5793 -0.2154
17797TIP3   OH274881   5.270   1.817  16.422 -0.7846  0.1761 -0.3955
17797TIP3    H174882   5.254   1.907  16.451  1.1393  0.4901 -0.1455
17797TIP3    H274883   5.262   1.765  16.502 -1.7492  0.1389 -0.5109
17798TIP3   OH274884   2.028   6.626  16.213  0.3875  0.1506  0.5843
17798TIP3    H174885   2.106   6.571  16.208 -0.7427 -1.4030 -0.8040
17798TIP3    H274886   2.015   6.657  16.124 -1.1434 -0.4549  0.5711
17799TIP3   OH274887   1.630   0.900   4.123  0.0225 -0.6221 -0.1192
17799TIP3    H174888   1.547   0.897   4.076 -0.5177 -2.0392  0.8455
17799TIP3    H274889   1.630   0.820   4.176  1.0897  0.3629  1.4459
17800TIP3   OH274890   3.278   1.640   5.713 -0.1577  0.0316  0.0651
17800TIP3    H174891   3.360   1.600   5.743 -0.1675  0.4308  0.6448
17800TIP3    H274892   3.216   1.622   5.784 -0.5025 -0.0268 -0.2464
17801TIP3   OH274893   3.031   2.003   0.840  0.0659  0.0673  0.0291
17801TIP3    H174894   3.028   2.093   0.805 -2.6413  1.2348  2.8182
17801TIP3    H274895   3.099   2.005   0.907  0.9770 -0.4300 -0.8492
17802TIP3   OH274896   1.964   6.009   4.073 -0.3321  0.6685 -0.2794
17802TIP3    H174897   2.005   6.010   3.986  0.9447 -2.2895  0.1508
17802TIP3    H274898   1.939   5.917   4.086 -2.7011  1.4817  1.5401
17803TIP3   OH274899   0.201   6.687  15.497  0.1119  0.0937  0.5327
17803TIP3    H174900   0.270   6.654  15.440 -0.8763 -0.4673 -0.3934
17803TIP3    H274901   0.226   6.777  15.516  2.6923 -0.9515  2.8146
17804TIP3   OH274902   4.116   3.381   0.774 -0.3530 -0.9642 -0.3033
17804TIP3    H174903   4.190   3.400   0.833 -2.3263 -0.2097  2.1230
17804TIP3    H274904   4.076   3.303   0.811 -1.8270 -0.3030 -0.4541
17805TIP3   OH274905   1.917   2.364  14.805  0.0199  0.9579  0.2010
17805TIP3    H174906   2.002   2.364  14.848  0.0436  1.2704  0.1594
17805TIP3    H274907   1.854   2.358  14.876  0.0929 -0.8213  0.1614
17806TIP3   OH274908   3.265   1.338  14.964  0.1056  0.2790  0.5892
17806TIP3    H174909   3.320   1.306  15.036  0.1481 -0.8632  0.0690
17806TIP3    H274910   3.326   1.358  14.894 -0.0987 -0.9009  0.0433
17807TIP3   OH274911   1.172   3.055  16.816 -0.1389 -0.6537 -0.2139
17807TIP3    H174912   1.132   3.142  16.806 -0.3494 -0.6974  0.2435
17807TIP3    H274913   1.207   3.035  16.729 -1.4176 -0.7639 -0.7272
17808TIP3   OH274914   0.149   1.886   6.139  0.3475  0.1262  0.2815
17808TIP3    H174915   0.114   1.798   6.158  0.1600  0.2354  0.4515
17808TIP3    H274916   0.141   1.933   6.222 -0.2028  0.5220  0.0161
17809TIP3   OH274917   1.691   5.112  17.031  0.5274 -0.0619  0.5043
17809TIP3    H174918   1.606   5.152  17.015  0.6528 -0.5300 -1.7596
17809TIP3    H274919   1.673   5.018  17.039  0.5228  0.0974  3.2436
17810TIP3   OH274920   5.771   2.313   1.422 -0.4211  0.4961 -0.8633
17810TIP3    H174921   5.771   2.220   1.399  0.5545  0.3333 -0.2516
17810TIP3    H274922   5.723   2.318   1.505 -1.1898  0.6627 -1.3051
17811TIP3   OH274923   5.982   0.986   2.085  0.3568  0.2281 -0.2424
17811TIP3    H174924   6.075   1.011   2.082  0.1701  0.9654 -0.1030
17811TIP3    H274925   5.960   0.985   2.178  0.9399 -2.7650 -0.0535
17812TIP3   OH274926   2.544   1.689   5.376  0.2427 -0.4080  0.0998
17812TIP3    H174927   2.555   1.612   5.321 -0.8236 -0.3778 -0.1674
17812TIP3    H274928   2.632   1.706   5.411  0.5557 -1.5389 -0.0924
17813TIP3   OH274929   3.275   3.739   2.131  0.2559 -0.3836  0.2332
17813TIP3    H174930   3.324   3.692   2.064  1.3589 -0.1134  0.8331
17813TIP3    H274931   3.214   3.675   2.166  1.8848 -1.4807  1.1926
17814TIP3   OH274932   3.480   5.917  15.210 -0.0049 -0.3781 -0.1455
17814TIP3    H174933   3.412   5.939  15.145 -0.7380 -1.0924  0.3486
17814TIP3    H274934   3.562   5.944  15.169 -0.5939  0.6314 -0.7092
17815TIP3   OH274935   0.426   1.441  15.688  0.0143 -0.0014  0.1787
17815TIP3    H174936   0.476   1.518  15.658  2.8500 -2.0507 -0.7658
17815TIP3    H274937   0.423   1.383  15.612 -0.4828 -1.5887  1.3646
17816TIP3   OH274938   0.886   3.427  15.479 -0.2002 -0.0667  0.6260
17816TIP3    H174939   0.839   3.471  15.550 -2.0780  0.0729 -0.6443
17816TIP3    H274940   0.869   3.334  15.494  1.6274 -0.2461  1.8367
17817TIP3   OH274941   3.085   3.445   4.161 -0.1770 -0.1382 -0.2640
17817TIP3    H174942   3.009   3.420   4.213  0.5736  0.4914  1.1889
17817TIP3    H274943   3.139   3.497   4.220  0.4787  1.0636 -1.8304
17818TIP3   OH274944   3.152   4.561   2.457  0.0333 -0.2690  0.1934
17818TIP3    H174945   3.092   4.510   2.402 -1.6152  0.3150  1.3777
17818TIP3    H274946   3.212   4.496   2.494 -0.3168 -0.9684 -0.4371
17819TIP3   OH274947   1.565   4.579   3.574 -0.1070  0.2114 -0.2332
17819TIP3    H174948   1.552   4.553   3.483 -1.2779  0.3820 -0.1348
17819TIP3    H274949   1.650   4.542   3.598 -0.8707 -1.9786 -0.6616
17820TIP3   OH274950   0.673   2.190  14.374 -0.0281  0.8391  0.2677
17820TIP3    H174951   0.655   2.278  14.341 -1.1658  0.0341 -1.3818
17820TIP3    H274952   0.587   2.153  14.392  0.4609  0.2416  1.5120
17821TIP3   OH274953   2.656   4.767   4.450  0.4878 -0.2762 -0.3778
17821TIP3    H174954   2.678   4.755   4.543  1.0509 -0.6469 -0.5523
17821TIP3    H274955   2.591   4.837   4.450 -2.9359 -3.1813  0.6852
17822TIP3   OH274956   5.098   3.716  15.020 -0.0163  0.6371  0.1752
17822TIP3    H174957   5.121   3.666  14.942  0.0915 -0.0248  0.6180
17822TIP3    H274958   5.071   3.802  14.987  0.4821  0.5271 -0.5502
17823TIP3   OH274959   2.077   4.445  15.928  0.1583  0.2512 -0.2813
17823TIP3    H174960   2.143   4.415  15.991 -0.2542 -1.0207 -0.4278
17823TIP3    H274961   2.064   4.537  15.949  0.5250  0.0149  1.0729
17824TIP3   OH274962   4.047   3.150  11.449  0.0677  0.2313 -0.1682
17824TIP3    H174963   4.098   3.069  11.444 -0.0437  0.1499  0.0275
17824TIP3    H274964   4.061   3.192  11.364  1.0745  0.5786  0.1614
17825TIP3   OH274965   2.635   1.468  13.327 -0.0848 -0.0478  0.0972
17825TIP3    H174966   2.727   1.459  13.301 -0.1034 -0.5257  0.1861
17825TIP3    H274967   2.607   1.550  13.287  0.6183  0.5422  0.7736
17826TIP3   OH274968   5.933   1.861  15.709  0.1005 -0.1805  0.0308
17826TIP3    H174969   5.915   1.787  15.652 -0.1203 -1.1563  1.3229
17826TIP3    H274970   5.968   1.822  15.790 -0.7369  1.0456  1.0333
17827TIP3   OH274971   6.670   0.535   1.058  0.4223 -0.1463  0.3599
17827TIP3    H174972   6.673   0.483   0.978 -0.9817 -1.6723  1.2373
17827TIP3    H274973   6.577   0.552   1.072  0.6669  0.3544  1.4874
17828TIP3   OH274974   3.623   3.007  15.542 -0.3428  0.8233  0.5599
17828TIP3    H174975   3.594   3.005  15.451 -2.1089 -0.7759  1.1073
17828TIP3    H274976   3.640   2.915  15.564 -0.7356  1.0896  2.0763
17829TIP3   OH274977   2.168   5.867   1.879 -0.2223  0.3068 -0.4017
17829TIP3    H174978   2.263   5.864   1.887 -0.1637  2.2343  0.1822
17829TIP3    H274979   2.153   5.886   1.786 -0.1201 -1.5087 -0.8133
17830TIP3   OH274980   2.049   0.677   3.839 -0.3409 -0.4027  0.0948
17830TIP3    H174981   1.977   0.693   3.900 -0.9749 -0.2604 -0.6627
17830TIP3    H274982   2.009   0.690   3.752 -0.0364 -2.7069 -0.4617
17831TIP3   OH274983   0.407   0.277  12.763  0.4146  0.0600  0.2927
17831TIP3    H174984   0.447   0.350  12.809  3.2980 -2.2267  1.7622
17831TIP3    H274985   0.317   0.272  12.797  0.6379  1.9693  1.2368
17832TIP3   OH274986   0.252   2.049  17.216  0.3143  0.4351 -0.5478
17832TIP3    H174987   0.251   2.126  17.272 -4.3259 -0.1608  0.6044
17832TIP3    H274988   0.244   2.084  17.127  0.5023  1.2593 -0.2497
17833TIP3   OH274989   6.237   3.903  13.616  0.1410  0.7683 -0.1536
17833TIP3    H174990   6.249   3.855  13.698  0.4111  1.5988  0.3107
17833TIP3    H274991   6.323   3.944  13.601  0.4434 -0.3000 -1.4646
17834TIP3   OH274992   0.571   5.086   6.243  0.0015  0.1235 -0.5153
17834TIP3    H174993   0.594   5.010   6.297  1.6950 -0.7806 -2.3765
17834TIP3    H274994   0.518   5.141   6.300  2.1835 -0.4557  2.2642
17835TIP3   OH274995   3.829   2.428  15.844  0.4418  0.2424 -0.3825
17835TIP3    H174996   3.738   2.421  15.815  0.0346  0.4251  0.8057
17835TIP3    H274997   3.854   2.517  15.822 -0.2979  0.8162  0.9743
17836TIP3   OH274998   5.788   1.770   0.450  0.3340  0.1536  0.8389
17836TIP3    H174999   5.754   1.798   0.365  0.8334 -1.6899 -0.0080
17836TIP3    H275000   5.710   1.751   0.502  0.0244  1.4389  0.8711
17837TIP3   OH275001   4.532   2.078   4.100 -0.4071  0.3649 -0.0092
17837TIP3    H175002   4.570   2.154   4.057 -0.4843 -0.4913 -1.7071
17837TIP3    H275003   4.549   2.006   4.039 -2.3443 -0.5475  0.4497
17838TIP3   OH275004   4.979   1.624  15.195  0.1913  0.7222 -0.2203
17838TIP3    H175005   4.920   1.680  15.145  0.2473  0.2254 -0.8458
17838TIP3    H275006   4.943   1.536  15.186 -0.8970  0.8485  2.1904
17839TIP3   OH275007   3.468   5.283  14.890 -0.4906  0.2738  0.5016
17839TIP3    H175008   3.498   5.316  14.805 -0.0787 -0.7595  0.2377
17839TIP3    H275009   3.481   5.188  14.885 -1.6761  0.0573  1.2383
17840TIP3   OH275010   2.404   5.556  13.332 -0.1403 -0.0707  0.8704
17840TIP3    H175011   2.463   5.547  13.407 -0.1910 -1.0674  0.7925
17840TIP3    H275012   2.417   5.477  13.280  0.2985  0.8584 -0.4878
17841TIP3   OH275013   4.465   2.771  15.599 -0.1870 -0.0212  0.1408
17841TIP3    H175014   4.500   2.846  15.647  0.9423 -0.6050  0.2579
17841TIP3    H275015   4.527   2.758  15.526  0.2319 -1.4726  0.7217
17842TIP3   OH275016   3.495   0.884  16.891 -0.2261 -0.0865 -0.2461
17842TIP3    H175017   3.524   0.800  16.857  2.2156  0.8208 -0.5629
17842TIP3    H275018   3.438   0.919  16.823 -2.0546 -1.8209  0.2893
17843TIP3   OH275019   2.963   4.231  11.809  0.3561  0.1714 -0.0469
17843TIP3    H175020   2.957   4.140  11.781  2.0206  0.2330 -0.7677
17843TIP3    H275021   2.885   4.273  11.772  1.0930 -0.3497 -2.4064
17844TIP3   OH275022   2.025   0.162  16.402 -0.2336 -0.3998  0.8229
17844TIP3    H175023   2.060   0.104  16.334 -1.2334  0.8311 -0.8098
17844TIP3    H275024   2.026   0.109  16.481  3.3869 -1.0663  0.4646
17845TIP3   OH275025   0.683   5.552   4.825  0.1166  0.6249  0.9084
17845TIP3    H175026   0.685   5.485   4.757 -0.8903 -0.9422  2.3191
17845TIP3    H275027   0.736   5.624   4.791  2.0185 -1.2620 -0.3011
17846TIP3   OH275028   5.386   0.476   0.850  0.2530 -1.0550 -0.0076
17846TIP3    H175029   5.436   0.398   0.824  0.9300 -0.6880  0.1718
17846TIP3    H275030   5.306   0.472   0.797  1.0927 -0.9118 -1.3426
17847TIP3   OH275031   4.031   4.719   6.318  0.3126  0.3021  0.0139
17847TIP3    H175032   4.073   4.794   6.362  4.0673 -0.3660 -1.9766
17847TIP3    H275033   4.042   4.647   6.379 -1.0246  0.8069  0.8840
17848TIP3   OH275034   3.435   5.228   3.167 -0.7845 -0.2590  0.2466
17848TIP3    H175035   3.366   5.294   3.163 -0.3228  0.2381  0.4052
17848TIP3    H275036   3.509   5.273   3.208 -0.2433 -0.6814 -0.2523
17849TIP3   OH275037   1.738   4.996  13.463  0.6509 -0.0218 -0.0009
17849TIP3    H175038   1.673   4.932  13.431 -1.5813  1.4151  1.3722
17849TIP3    H275039   1.816   4.978  13.411  0.2128 -3.9351  0.3956
17850TIP3   OH275040   0.544   1.575   5.525 -0.1668  0.2214 -0.4095
17850TIP3    H175041   0.493   1.565   5.444 -1.4816  1.3856  0.2331
17850TIP3    H275042   0.633   1.549   5.501 -0.7009 -0.2133 -2.0198
17851TIP3   OH275043   3.627   6.174   2.093 -0.1905 -0.5881  0.1100
17851TIP3    H175044   3.624   6.188   2.188  0.4546  1.1197 -0.0936
17851TIP3    H275045   3.569   6.099   2.078 -1.7863  0.2783  1.6293
17852TIP3   OH275046   3.486   6.570   4.198  0.2409  0.7852 -0.0822
17852TIP3    H175047   3.516   6.529   4.280  1.5118  0.3910 -0.7165
17852TIP3    H275048   3.542   6.646   4.187  0.3559  0.6001 -0.8011
17853TIP3   OH275049   4.874   0.680  13.912 -0.1865  0.2256 -0.3660
17853TIP3    H175050   4.870   0.716  13.824 -1.2762 -0.1854 -0.4997
17853TIP3    H275051   4.830   0.745  13.967 -0.5414 -0.0530 -0.3167
17854TIP3   OH275052   0.156   2.023   0.538 -0.0555 -0.3642  0.2035
17854TIP3    H175053   0.143   2.078   0.460 -0.1446 -1.3748 -0.5141
17854TIP3    H275054   0.097   1.949   0.525  1.1163 -1.3698  0.4278
17855TIP3   OH275055   0.975   6.081  15.335 -0.5030  0.2455  0.2086
17855TIP3    H175056   0.880   6.080  15.346 -0.3517 -0.8890  1.9302
17855TIP3    H275057   0.994   6.001  15.286 -0.5654  1.6366 -2.2325
17856TIP3   OH275058   0.253   2.149   1.091 -0.1583 -0.5404  0.0392
17856TIP3    H175059   0.230   2.127   1.181  0.3120  1.0607  0.5837
17856TIP3    H275060   0.348   2.143   1.088 -0.1402 -0.1536 -0.2162
17857TIP3   OH275061   3.938   6.681   1.508  0.6610  0.3477 -0.0251
17857TIP3    H175062   3.999   6.752   1.529  1.5629 -1.2679  3.4667
17857TIP3    H275063   3.993   6.608   1.482  0.0906 -0.4596  0.9812
17858TIP3   OH275064   1.371   2.130  14.941  0.5736 -0.3597 -0.1277
17858TIP3    H175065   1.314   2.179  14.883  1.5634  0.2582 -0.6186
17858TIP3    H275066   1.450   2.114  14.889  1.3444 -0.0898  0.9268
17859TIP3   OH275067   3.261   4.823  15.228  0.2793  0.1056 -0.3214
17859TIP3    H175068   3.301   4.735  15.229  3.1120  1.2470 -1.8613
17859TIP3    H275069   3.292   4.864  15.309 -0.3475 -0.0300 -0.0116
17860TIP3   OH275070   5.006   0.791  12.293 -0.0354  0.3417  0.5559
17860TIP3    H175071   5.049   0.711  12.322 -1.3989 -0.3453  0.8063
17860TIP3    H275072   5.026   0.856  12.360  0.2492 -0.0760  0.8745
17861TIP3   OH275073   0.570   1.298  17.296  0.0802 -0.0085 -0.2731
17861TIP3    H175074   0.600   1.212  17.266 -0.6433 -0.8500  1.2688
17861TIP3    H275075   0.610   1.360  17.235  2.5142 -1.2588 -0.0794
17862TIP3   OH275076   6.634   1.928   1.611  0.0172  0.1088 -0.3958
17862TIP3    H175077   6.564   1.952   1.672 -1.0138 -1.8111 -0.7207
17862TIP3    H275078   6.715   1.945   1.659 -0.5511  3.3986 -0.3925
17863TIP3   OH275079   4.126   2.777  11.147 -0.0538  0.3817 -0.0696
17863TIP3    H175080   4.118   2.772  11.052 -1.5612 -0.0429  0.0391
17863TIP3    H275081   4.191   2.711  11.170 -1.3406 -1.1638 -0.6651
17864TIP3   OH275082   2.556   4.443  11.678 -0.0914  0.8189 -0.3012
17864TIP3    H175083   2.468   4.405  11.679  0.9381 -1.7241  1.3694
17864TIP3    H275084   2.572   4.469  11.768  1.8115 -1.1742 -0.0075
17865TIP3   OH275085   3.871   3.864  11.667 -0.3971  0.0477 -0.1021
17865TIP3    H175086   3.915   3.893  11.747 -1.0152 -1.2603  0.7505
17865TIP3    H275087   3.813   3.936  11.644 -0.8370  0.1277  1.1361
17866TIP3   OH275088   2.030   2.409   4.788 -0.0235 -0.1774  0.2038
17866TIP3    H175089   1.975   2.422   4.865  1.4019  1.5436  1.0170
17866TIP3    H275090   2.119   2.408   4.823  0.5929 -0.7311 -1.2960
17867TIP3   OH275091   1.087   5.924   3.490 -0.3068  0.0711  0.1826
17867TIP3    H175092   1.117   6.015   3.487  0.9883 -0.3504 -0.1622
17867TIP3    H275093   1.062   5.910   3.582 -1.3520  1.0144  0.0599
17868TIP3   OH275094   4.285   4.479   3.828  0.3460 -0.1372 -0.0484
17868TIP3    H175095   4.246   4.431   3.900  0.2804 -0.7709 -0.4943
17868TIP3    H275096   4.215   4.487   3.763  0.8388 -0.9736 -0.7080
17869TIP3   OH275097   2.367   2.093   2.756 -0.1224 -0.4397 -0.3648
17869TIP3    H175098   2.286   2.126   2.795  0.3962 -0.9921  1.2663
17869TIP3    H275099   2.378   2.006   2.793  1.3142 -0.3095 -0.4167
17870TIP3   OH275100   4.067   4.948   1.669 -0.8245  0.3299 -0.1804
17870TIP3    H175101   4.106   5.030   1.699 -0.8444  0.9641 -1.8243
17870TIP3    H275102   3.978   4.949   1.702 -0.7740  0.8972 -0.0644
17871TIP3   OH275103   5.574   4.943  16.378 -0.0491 -0.1202 -0.8813
17871TIP3    H175104   5.662   4.920  16.348  0.2062  0.6368 -0.7422
17871TIP3    H275105   5.570   4.908  16.467  1.2962  2.5212  0.3281
17872TIP3   OH275106   1.607   4.872   0.611 -0.2614 -0.0572 -0.5577
17872TIP3    H175107   1.555   4.830   0.679  0.2466  0.5304  0.2092
17872TIP3    H275108   1.640   4.952   0.652  2.5669 -1.1497 -0.4426
17873TIP3   OH275109   4.809   6.243  15.000 -0.0951  0.6971 -1.0271
17873TIP3    H175110   4.887   6.196  15.029 -1.4253 -0.2949  1.1849
17873TIP3    H275111   4.758   6.257  15.079 -2.7118  0.2774 -2.5245
17874TIP3   OH275112   6.139   6.459   2.368  0.0048 -0.4285  0.1709
17874TIP3    H175113   6.138   6.364   2.371 -0.7480 -0.4364 -0.0373
17874TIP3    H275114   6.047   6.484   2.360  0.2609  0.2804 -0.8036
17875TIP3   OH275115   0.781   4.055   5.404 -0.1841 -0.0552 -0.2327
17875TIP3    H175116   0.796   4.149   5.393 -0.5240 -0.0658 -0.8041
17875TIP3    H275117   0.797   4.018   5.318  0.1779 -0.5612  0.0461
17876TIP3   OH275118   3.310   3.677   4.546 -0.3532 -0.2951 -0.2122
17876TIP3    H175119   3.376   3.610   4.562 -2.1311 -1.8906  0.8382
17876TIP3    H275120   3.280   3.703   4.633  0.0665  1.7093 -0.6060
17877TIP3   OH275121   0.772   1.811   2.034 -0.2931 -0.2272  0.7208
17877TIP3    H175122   0.776   1.866   2.112 -1.0399  1.5365 -0.4364
17877TIP3    H275123   0.740   1.869   1.965  0.7830 -1.6197 -1.0292
17878TIP3   OH275124   3.365   5.910   0.533  0.3135 -0.0874  0.3997
17878TIP3    H175125   3.450   5.877   0.503 -0.3137 -1.1075 -0.3110
17878TIP3    H275126   3.368   6.004   0.514  0.6213 -0.4047 -1.2900
17879TIP3   OH275127   0.386   5.510   1.575  0.3174 -0.6026  0.1587
17879TIP3    H175128   0.345   5.450   1.514  1.7565 -0.2798 -1.1995
17879TIP3    H275129   0.480   5.498   1.561  0.6639  0.4097  1.3902
17880TIP3   OH275130   2.698   2.782   3.577 -0.0805  0.3406  0.3859
17880TIP3    H175131   2.620   2.764   3.524 -0.2917  0.4521  0.6536
17880TIP3    H275132   2.771   2.780   3.515 -0.0722 -1.5077  0.4066
17881TIP3   OH275133   1.606   5.246   6.418  1.1682  0.0468  0.8349
17881TIP3    H175134   1.664   5.178   6.385  0.2299 -0.1937 -0.3975
17881TIP3    H275135   1.575   5.212   6.502  0.8540 -0.9786  0.3219
17882TIP3   OH275136   0.633   0.570  14.388 -0.0116  0.3277  0.0991
17882TIP3    H175137   0.543   0.541  14.372  0.0860 -0.1501  0.3840
17882TIP3    H275138   0.657   0.617  14.308  0.4535 -1.9549 -1.1924
17883TIP3   OH275139   4.287   2.882  14.203  0.0536 -0.4149  0.6565
17883TIP3    H175140   4.321   2.825  14.133 -2.3432 -3.7752  1.9663
17883TIP3    H275141   4.339   2.859  14.280 -0.6137 -0.5053  1.0875
17884TIP3   OH275142   4.348   6.783  15.322 -0.0017  0.6139 -0.6752
17884TIP3    H175143   4.383   6.838  15.252 -0.7553  1.4746 -0.3954
17884TIP3    H275144   4.253   6.791  15.313 -0.3730 -3.6189 -2.9997
17885TIP3   OH275145   0.367   0.866  14.880  0.6122 -0.3656 -0.4766
17885TIP3    H175146   0.425   0.913  14.820  1.0011 -0.0966  0.1067
17885TIP3    H275147   0.411   0.782  14.896  1.5705  0.3879  1.0717
17886TIP3   OH275148   5.941   3.273   4.463 -0.5664 -0.2707  0.3562
17886TIP3    H175149   6.036   3.277   4.447 -0.7493 -0.5850 -0.9370
17886TIP3    H275150   5.924   3.182   4.486 -0.8079 -0.7122 -1.4098
17887TIP3   OH275151   3.014   4.923  16.611  0.4694 -0.2211 -0.2441
17887TIP3    H175152   2.945   4.888  16.667 -0.2329 -0.8012 -1.4535
17887TIP3    H275153   2.968   4.966  16.539  1.2902  2.5465  0.7291
17888TIP3   OH275154   5.424   2.455  13.239 -0.9532  0.2012  0.7072
17888TIP3    H175155   5.344   2.490  13.280 -0.0902  0.9274  1.8267
17888TIP3    H275156   5.487   2.527  13.244  0.4839 -1.0629  1.9076
17889TIP3   OH275157   4.507   1.285   6.609  0.1132 -0.4464  0.1767
17889TIP3    H175158   4.485   1.201   6.567  1.2909  0.1704 -1.8544
17889TIP3    H275159   4.425   1.335   6.607 -0.8385 -1.7885  2.2145
17890TIP3   OH275160   0.672   3.658   2.910  0.5532  0.3482 -0.8354
17890TIP3    H175161   0.654   3.693   2.997  3.2943  1.1301 -0.4917
17890TIP3    H275162   0.665   3.563   2.920  2.8933  0.2824  0.8462
17891TIP3   OH275163   6.360   4.666   4.606  0.1742  0.1393 -0.3786
17891TIP3    H175164   6.418   4.590   4.599 -2.3836 -2.1323  1.3602
17891TIP3    H275165   6.274   4.634   4.580 -0.8155  2.7870 -0.6878
17892TIP3   OH275166   1.736   5.505   6.433 -0.0667  0.0961  0.2141
17892TIP3    H175167   1.831   5.493   6.435 -0.1406 -1.1728 -1.6903
17892TIP3    H275168   1.701   5.416   6.434 -1.3817  0.5141  2.8524
17893TIP3   OH275169   0.620   4.688  14.450 -0.2229 -0.3558  0.4494
17893TIP3    H175170   0.618   4.621  14.382 -0.9849 -1.0310  1.1205
17893TIP3    H275171   0.701   4.736  14.434 -0.4734 -0.3974 -1.0235
17894TIP3   OH275172   3.105   2.012  12.178 -0.3590 -0.4842  0.2702
17894TIP3    H175173   3.055   2.081  12.221  0.1297 -1.0002  1.7494
17894TIP3    H275174   3.130   2.049  12.094 -0.7752  0.8501  0.7064
17895TIP3   OH275175   5.305   5.793  11.446  0.3558 -0.2087 -0.3499
17895TIP3    H175176   5.287   5.750  11.530  1.4498  0.7215  0.4050
17895TIP3    H275177   5.248   5.750  11.383 -0.5519 -0.8776  0.8980
17896TIP3   OH275178   4.482   4.966  14.633 -0.3157 -0.0405 -0.5495
17896TIP3    H175179   4.477   4.955  14.538 -0.6589 -1.0428 -0.4366
17896TIP3    H275180   4.489   4.876  14.667  1.2312  0.3678  0.3062
17897TIP3   OH275181   4.722   2.111   3.658 -0.2858 -0.7012 -0.0996
17897TIP3    H175182   4.651   2.165   3.624 -0.0771  0.7254  1.5863
17897TIP3    H275183   4.796   2.170   3.666  0.6869 -1.8267 -0.4278
17898TIP3   OH275184   4.177   2.894  11.385 -0.5225 -0.2597  0.4288
17898TIP3    H175185   4.250   2.854  11.432 -1.3739 -1.3584  0.8867
17898TIP3    H275186   4.164   2.836  11.309  0.7386  1.4054 -1.1359
17899TIP3   OH275187   2.206   1.873   4.586 -0.5236 -0.0265  0.1248
17899TIP3    H175188   2.214   1.844   4.677 -0.8042 -0.2867  0.0696
17899TIP3    H275189   2.235   1.964   4.587  1.3694 -0.5824  0.1224
17900TIP3   OH275190   6.617   4.466   3.809 -0.3517  0.7126  0.0833
17900TIP3    H175191   6.650   4.551   3.838 -0.1838  0.8540 -0.4973
17900TIP3    H275192   6.605   4.415   3.889 -0.7080  1.3784  0.4616
17901TIP3   OH275193   4.948   1.035   4.814  0.9008 -0.1282  0.3321
17901TIP3    H175194   4.948   1.099   4.885 -0.3779  0.2321  0.0376
17901TIP3    H275195   4.998   1.077   4.744  0.7174  0.2358  0.4140
17902TIP3   OH275196   1.194   1.989  13.797  0.1840  0.5114 -0.2726
17902TIP3    H175197   1.259   2.013  13.731  1.0027  1.4317  0.8202
17902TIP3    H275198   1.230   1.911  13.840 -1.4077 -1.4851 -2.3224
17903TIP3   OH275199   1.574   1.033  13.737  0.5487 -0.0964  0.1851
17903TIP3    H175200   1.545   0.990  13.656 -0.2870 -0.4088  0.6414
17903TIP3    H275201   1.558   0.969  13.805  0.0622  0.6309  0.7702
17904TIP3   OH275202   1.699   1.006  12.589  0.6734 -0.3272  0.0217
17904TIP3    H175203   1.781   1.029  12.633  0.4819  1.3709 -0.4344
17904TIP3    H275204   1.727   0.970  12.505  0.9695  0.6479 -0.3145
17905TIP3   OH275205   1.856   0.260  14.504 -0.3541 -0.1834  0.5106
17905TIP3    H175206   1.861   0.253  14.409  2.0338 -0.2954  0.5685
17905TIP3    H275207   1.933   0.313  14.528  0.9763 -2.7859  2.5643
17906TIP3   OH275208   0.878   0.334   2.978 -0.0873 -0.2354 -0.0640
17906TIP3    H175209   0.848   0.422   2.954 -1.3744 -1.0557 -1.5883
17906TIP3    H275210   0.802   0.294   3.020  0.7659 -0.3554  1.4301
17907TIP3   OH275211   1.277   1.662  10.362  0.2777  0.4595  0.1218
17907TIP3    H175212   1.253   1.749  10.330 -1.1356 -0.5815 -1.9078
17907TIP3    H275213   1.267   1.668  10.457  3.3570  3.3373  0.4482
17908TIP3   OH275214   1.751   5.106   0.742 -0.8556  0.6845 -0.1712
17908TIP3    H175215   1.755   5.109   0.837  1.7596  1.2248 -0.2266
17908TIP3    H275216   1.745   5.198   0.716  1.8613  0.8630 -0.5030
17909TIP3   OH275217   5.162   0.014  14.893  0.4786  0.0711  0.6271
17909TIP3    H175218   5.170  -0.070  14.937  1.9140 -0.5923 -0.7784
17909TIP3    H275219   5.073   0.015  14.858  1.5108 -2.6718 -2.6323
17910TIP3   OH275220   0.221   0.217  17.141  0.3376  0.1520 -0.2082
17910TIP3    H175221   0.155   0.258  17.196 -2.0040 -2.6453 -0.6689
17910TIP3    H275222   0.298   0.210  17.197 -1.2510 -0.6064  2.0121
17911TIP3   OH275223   5.162   2.712   6.240 -0.2920 -0.0474 -0.0563
17911TIP3    H175224   5.106   2.641   6.209  0.4927  0.3350 -2.6249
17911TIP3    H275225   5.248   2.672   6.249 -0.2874  0.1074  0.6278
17912TIP3   OH275226   6.774   4.074  12.286  0.1814 -0.2035  0.6160
17912TIP3    H175227   6.729   4.131  12.348  0.8375  1.1414 -0.1142
17912TIP3    H275228   6.762   3.986  12.322  1.4136  0.5977  3.2027
17913TIP3   OH275229   6.086   2.603  15.082 -0.3295  0.7117 -0.4512
17913TIP3    H175230   6.121   2.528  15.129 -1.1341  1.1779  0.9402
17913TIP3    H275231   6.020   2.566  15.023 -1.1230  0.3527  0.6270
17914TIP3   OH275232   6.184   1.312   3.977 -0.4323 -0.0859  0.5271
17914TIP3    H175233   6.137   1.344   3.901 -0.7558  0.4065  0.9262
17914TIP3    H275234   6.146   1.225   3.994  1.0715 -1.1119 -1.0906
17915TIP3   OH275235   4.577   2.983   5.525  0.1604  0.3841 -0.3879
17915TIP3    H175236   4.655   2.937   5.494 -0.4334 -0.7531 -0.2517
17915TIP3    H275237   4.556   2.943   5.609 -1.1522 -0.0547 -0.8919
17916TIP3   OH275238   4.114   2.579  12.367  0.0209 -0.1292 -0.1875
17916TIP3    H175239   4.124   2.660  12.318  3.1995 -0.1242  0.2847
17916TIP3    H275240   4.168   2.591  12.445 -1.4149 -1.7987  1.1411
17917TIP3   OH275241   5.416   2.241   0.412 -0.4380 -0.4670  0.1430
17917TIP3    H175242   5.452   2.306   0.351 -2.0606  0.1590 -0.2008
17917TIP3    H275243   5.485   2.175   0.421  0.2013 -0.0939 -1.6461
17918TIP3   OH275244   5.909   0.871  10.519 -0.2511 -0.0571 -0.0308
17918TIP3    H175245   5.876   0.843  10.604  1.5831  0.4714  0.8956
17918TIP3    H275246   5.949   0.956  10.535 -1.8561  1.1455 -1.9167
17919TIP3   OH275247   5.856   3.162   1.375  0.3526 -0.3909  0.3304
17919TIP3    H175248   5.852   3.083   1.429  2.0259  0.2094  1.4304
17919TIP3    H275249   5.925   3.144   1.311  0.6856  0.1290  0.5339
17920TIP3   OH275250   0.892   0.674   4.436 -0.2502 -0.0492  0.2870
17920TIP3    H175251   0.861   0.762   4.414  0.3811  0.5472  1.6970
17920TIP3    H275252   0.812   0.623   4.452 -0.6100  0.2889 -0.3790
17921TIP3   OH275253   4.417   5.133  11.194  0.2816  0.1289  0.0770
17921TIP3    H175254   4.385   5.044  11.179 -1.9794  0.8721  0.2316
17921TIP3    H275255   4.512   5.123  11.197  0.1635 -2.0939 -1.1117
17922TIP3   OH275256   3.458   4.935   4.909 -0.1297  0.1107  0.0302
17922TIP3    H175257   3.367   4.920   4.881  0.4497 -1.3143 -1.2131
17922TIP3    H275258   3.500   4.849   4.901  1.3638  0.7721  0.5067
17923TIP3   OH275259   1.475   1.069  17.066  0.3121  0.1038  0.2077
17923TIP3    H175260   1.403   1.011  17.090  1.8243 -1.5972  0.8306
17923TIP3    H275261   1.523   1.022  16.998  0.8174  1.2426 -0.2537
17924TIP3   OH275262   2.284   4.376  16.502 -0.8814  0.1646  0.0521
17924TIP3    H175263   2.285   4.292  16.456 -0.4888  1.1326 -1.8243
17924TIP3    H275264   2.192   4.392  16.521 -1.2089  0.2582 -1.4830
17925TIP3   OH275265   5.365   0.109   4.559  0.5327 -0.1160  0.4979
17925TIP3    H175266   5.272   0.094   4.574  0.4627  0.3510  0.5320
17925TIP3    H275267   5.372   0.120   4.464  0.8074 -1.8787  0.2653
17926TIP3   OH275268   6.710   2.998  17.265  0.8549 -0.4475 -0.0404
17926TIP3    H175269   6.715   3.093  17.259 -2.0740 -0.2040 -0.6406
17926TIP3    H275270   6.683   2.981  17.355  0.0140 -0.5649 -0.3044
17927TIP3   OH275271   1.718   1.843  17.077  0.0458 -0.2931  0.0489
17927TIP3    H175272   1.744   1.754  17.102  0.5877  0.0470  0.7096
17927TIP3    H275273   1.634   1.831  17.032 -0.0856 -1.0976  0.4892
17928TIP3   OH275274   2.725   5.840  15.574 -0.1675  0.0055 -0.0144
17928TIP3    H175275   2.707   5.808  15.662  1.4737  0.2508  0.4426
17928TIP3    H275276   2.715   5.764  15.517 -0.3459 -0.3632  0.5102
17929TIP3   OH275277   5.495   2.996   0.014 -0.0982  0.0344 -0.2523
17929TIP3    H175278   5.409   3.029   0.042  0.0939  0.4591 -0.1539
17929TIP3    H275279   5.522   2.939   0.086 -0.3126 -0.1284 -0.2989
17930TIP3   OH275280   0.616   3.706  15.397 -0.1087  0.2788 -0.0680
17930TIP3    H175281   0.700   3.707  15.349  0.7426 -0.1365  1.3650
17930TIP3    H275282   0.619   3.784  15.452 -1.9403  1.8534 -2.0128
17931TIP3   OH275283   4.442   1.483   1.684 -0.1691 -0.6328  0.6441
17931TIP3    H175284   4.427   1.577   1.694  1.1712 -0.4469  1.0281
17931TIP3    H275285   4.362   1.450   1.643 -1.3131  0.3972  1.9725
17932TIP3   OH275286   4.686   2.701  13.681 -0.3180  0.1115 -0.5718
17932TIP3    H175287   4.718   2.704  13.771 -0.4897  0.6664 -0.5243
17932TIP3    H275288   4.598   2.737  13.685 -0.0894  0.7523 -1.0542
17933TIP3   OH275289   2.734   5.989   1.488  0.3685 -0.5886 -0.2778
17933TIP3    H175290   2.794   6.025   1.422  0.7005 -1.4844 -0.4825
17933TIP3    H275291   2.673   5.935   1.437 -1.6079  1.4948 -0.2747
17934TIP3   OH275292   3.047   5.259  17.116 -0.3065  0.2991  0.3932
17934TIP3    H175293   3.008   5.325  17.059 -1.0527 -0.2636  0.2396
17934TIP3    H275294   3.121   5.225  17.067 -1.2193 -0.5160 -0.4637
17935TIP3   OH275295   0.085   4.228  12.522  0.9105  0.2572 -0.5271
17935TIP3    H175296   0.140   4.299  12.554  1.0305 -0.4541  0.9093
17935TIP3    H275297   0.142   4.151  12.524  0.1082 -0.3329  0.1994
17936TIP3   OH275298   4.404   4.587  12.497 -0.0418 -0.1992  0.5596
17936TIP3    H175299   4.350   4.536  12.436  0.5553 -1.4386  1.0186
17936TIP3    H275300   4.347   4.658  12.527  0.1176  1.4310 -2.5921
17937TIP3   OH275301   6.024   1.255  15.707  0.0353 -0.2449 -0.1208
17937TIP3    H175302   6.008   1.266  15.800 -0.7113 -2.9123  0.1638
17937TIP3    H275303   5.936   1.257  15.667  0.3674  1.2138 -0.8523
17938TIP3   OH275304   3.377   0.752   3.818  0.1257 -0.3866  0.8362
17938TIP3    H175305   3.311   0.816   3.844 -0.8735 -1.0991  0.0959
17938TIP3    H275306   3.432   0.799   3.754 -1.5771 -0.7062 -0.9473
17939TIP3   OH275307   4.813   1.666  15.410  0.0347 -0.3775 -0.0299
17939TIP3    H175308   4.820   1.683  15.504  1.7018 -2.5941  0.3604
17939TIP3    H275309   4.898   1.691  15.375  0.4798 -2.2067 -0.3771
17940TIP3   OH275310   4.830   2.776   0.915  0.2011 -0.1713  0.5953
17940TIP3    H175311   4.865   2.819   0.994  1.3643  0.2388 -0.1086
17940TIP3    H275312   4.905   2.772   0.856 -0.6425 -0.5148 -0.4762
17941TIP3   OH275313   0.868   4.662  11.766  0.0897 -0.2295 -0.0755
17941TIP3    H175314   0.906   4.624  11.687 -2.2331 -0.8180 -0.9815
17941TIP3    H275315   0.888   4.755  11.760 -0.7596 -0.1258 -1.8175
17942TIP3   OH275316   5.122   3.471   1.497 -0.2435 -0.1705 -1.0548
17942TIP3    H175317   5.031   3.449   1.513  0.0034 -0.2321  0.4197
17942TIP3    H275318   5.126   3.566   1.505 -0.2596 -0.1219 -1.5989
17943TIP3   OH275319   5.637   3.359  11.652  0.0424  0.1869 -0.2955
17943TIP3    H175320   5.562   3.318  11.695 -0.4195 -0.3577 -1.6063
17943TIP3    H275321   5.679   3.289  11.603 -0.1907  1.0543 -1.7839
17944TIP3   OH275322   6.123   2.405  14.725 -0.8117 -0.2383  0.0315
17944TIP3    H175323   6.059   2.398  14.654  0.1584  2.1636 -1.1933
17944TIP3    H275324   6.070   2.427  14.802 -1.5675  0.9518 -0.7925
17945TIP3   OH275325   0.644   4.412   2.327  0.3814 -0.5038 -0.4716
17945TIP3    H175326   0.681   4.367   2.251  0.3956  0.9118 -1.3412
17945TIP3    H275327   0.676   4.501   2.320 -2.9822  0.8031 -1.1931
17946TIP3   OH275328   6.146   0.368  16.335  0.3521  0.6242 -0.1988
17946TIP3    H175329   6.237   0.387  16.312  0.5057  1.3573  0.9839
17946TIP3    H275330   6.127   0.424  16.410 -0.1496 -1.6287  1.4590
17947TIP3   OH275331   4.162   2.882  15.694 -0.4834 -0.2814 -0.1565
17947TIP3    H175332   4.158   2.871  15.599 -3.3127 -2.1674  0.0536
17947TIP3    H275333   4.190   2.797  15.727 -3.6847 -1.1242  0.7658
17948TIP3   OH275334   2.249   4.274  12.825  0.2871  0.2526 -0.2912
17948TIP3    H175335   2.343   4.264  12.842  0.3479  1.5219  0.1803
17948TIP3    H275336   2.209   4.274  12.912  0.0678  1.6842 -0.3758
17949TIP3   OH275337   5.450   5.938   4.086 -0.2240  0.3389  0.2649
17949TIP3    H175338   5.436   5.949   3.992 -1.6706 -0.8872  0.3069
17949TIP3    H275339   5.504   5.859   4.093  1.3017  1.3436  0.4295
17950TIP3   OH275340   2.305   4.716  12.299 -0.3057 -0.2418 -0.6030
17950TIP3    H175341   2.344   4.800  12.278  1.2757 -0.7145  0.2894
17950TIP3    H275342   2.212   4.735  12.313  0.1571  1.5071  0.3897
17951TIP3   OH275343   6.194   6.435   0.731  0.0837  0.1584 -0.1257
17951TIP3    H175344   6.246   6.355   0.722  1.6991  1.1197  0.2236
17951TIP3    H275345   6.159   6.451   0.643 -1.7059 -1.7997  0.1395
17952TIP3   OH275346   2.968   4.267  14.841 -0.2453  0.3531  0.3705
17952TIP3    H175347   2.996   4.251  14.751  3.0999 -0.5339  1.4223
17952TIP3    H275348   3.024   4.339  14.871 -0.6400  0.0237  1.9920
17953TIP3   OH275349   5.206   2.951  12.662 -0.3697  0.0490  0.4389
17953TIP3    H175350   5.116   2.933  12.635 -0.4317 -2.5215  2.0172
17953TIP3    H275351   5.201   2.958  12.757  0.9218  1.2723  0.4374
17954TIP3   OH275352   1.089   6.773   4.396 -0.0681  0.0949  0.0875
17954TIP3    H175353   1.092   6.869   4.395 -0.9443  0.1368  0.5193
17954TIP3    H275354   1.158   6.748   4.458 -0.3623  0.4794  0.5756
17955TIP3   OH275355   1.687   2.988   2.023  0.3461 -0.1304 -0.0934
17955TIP3    H175356   1.715   3.003   2.113 -1.0182 -0.4042  0.4090
17955TIP3    H275357   1.652   2.899   2.023  1.1168 -0.4556 -1.1213
17956TIP3   OH275358   2.834   4.063  12.052  0.0754  0.4708 -0.1544
17956TIP3    H175359   2.763   4.038  12.112 -1.5331  0.5367 -1.9445
17956TIP3    H275360   2.840   3.991  11.990  1.4894  0.5594 -0.1524
17957TIP3   OH275361   5.706   3.722   6.674  0.3760 -0.0734 -0.3118
17957TIP3    H175362   5.713   3.817   6.670  1.6420 -0.1396 -0.2761
17957TIP3    H275363   5.794   3.693   6.700  0.1320 -1.2696 -0.7510
17958TIP3   OH275364   4.454   0.802  14.007 -0.2893 -0.2085 -0.6073
17958TIP3    H175365   4.536   0.792  13.959  0.6172  1.1320  0.5646
17958TIP3    H275366   4.430   0.894  13.995 -1.1345 -0.3618 -0.1847
17959TIP3   OH275367   1.069   6.558   5.489  0.1758  0.3961 -0.2189
17959TIP3    H175368   0.980   6.584   5.464 -0.1249 -0.2844  0.1293
17959TIP3    H275369   1.079   6.591   5.579 -0.7128 -1.8159  0.7575
17960TIP3   OH275370   5.356   5.296  13.079  0.9636  0.3094  0.0663
17960TIP3    H175371   5.377   5.229  13.014  0.4586  0.9423 -0.7684
17960TIP3    H275372   5.294   5.253  13.138  1.4000 -0.2608  0.1183
17961TIP3   OH275373   0.602   3.978   1.302 -0.4415 -0.3165 -0.3004
17961TIP3    H175374   0.574   4.052   1.248  1.2162  1.1717  0.7638
17961TIP3    H275375   0.663   3.930   1.245 -0.8031 -0.3360 -0.6779
17962TIP3   OH275376   2.627   6.131   2.120  0.0837 -0.0823 -0.5589
17962TIP3    H175377   2.552   6.178   2.084  1.0990  0.7622 -1.6747
17962TIP3    H275378   2.608   6.121   2.213 -0.4925  1.9342 -0.4303
17963TIP3   OH275379   0.755   5.551   2.379 -0.1750  0.4974  0.0279
17963TIP3    H175380   0.791   5.626   2.332  0.7012  0.7670  1.0976
17963TIP3    H275381   0.660   5.561   2.370 -0.0246  0.5394 -1.6546
17964TIP3   OH275382   5.012   6.116   5.603 -0.5300 -0.3661 -0.6690
17964TIP3    H175383   4.982   6.115   5.694 -2.1035 -0.8698 -1.1469
17964TIP3    H275384   5.095   6.069   5.604  0.4849  1.3222  0.7895
17965TIP3   OH275385   5.445   0.201  11.368  0.2113  0.5223 -0.0091
17965TIP3    H175386   5.386   0.148  11.421 -1.7920  0.8001 -1.8183
17965TIP3    H275387   5.521   0.216  11.424 -1.5623  0.4536  2.5929
17966TIP3   OH275388   0.318   3.885   3.113 -0.3839  0.2603 -0.0314
17966TIP3    H175389   0.313   3.920   3.202  0.8565  0.4926 -0.0315
17966TIP3    H275390   0.294   3.958   3.057 -0.7174  0.2462  0.0908
17967TIP3   OH275391   4.067   4.098   1.947  0.5748 -0.0608 -0.5129
17967TIP3    H175392   4.009   4.148   2.005 -1.0753 -0.6631 -1.5565
17967TIP3    H275393   4.039   4.007   1.959  0.5540 -0.2461 -1.8410
17968TIP3   OH275394   4.486   1.017  12.146 -0.5880 -0.2584 -0.1848
17968TIP3    H175395   4.552   1.067  12.193 -0.2478  0.2312 -1.1639
17968TIP3    H275396   4.499   0.927  12.176  1.8764 -0.5328 -1.8147
17969TIP3   OH275397   3.647   2.321   0.557  0.2413  0.2174  0.0711
17969TIP3    H175398   3.695   2.404   0.554  1.4714 -0.4815 -0.2204
17969TIP3    H275399   3.645   2.297   0.650 -0.8371  0.9637  0.2543
17970TIP3   OH275400   6.688   5.814   4.411 -0.1939  0.3724  0.6471
17970TIP3    H175401   6.598   5.808   4.380 -0.0425  2.8122 -0.4389
17970TIP3    H275402   6.684   5.876   4.484  0.2633 -1.4668  2.3282
17971TIP3   OH275403   5.622   0.511  14.303 -0.1687  0.0841  0.5917
17971TIP3    H175404   5.534   0.488  14.331 -0.7968  0.9961 -0.5631
17971TIP3    H275405   5.622   0.606  14.297 -0.0114 -0.0028 -2.1384
17972TIP3   OH275406   3.834   2.617  11.261 -0.1380 -1.5690 -0.3648
17972TIP3    H175407   3.822   2.644  11.170  1.0616 -1.8533 -0.6183
17972TIP3    H275408   3.916   2.567  11.261  1.3017  0.6060  1.2931
17973TIP3   OH275409   0.295   4.800   2.127  0.5736  0.3489  0.2036
17973TIP3    H175410   0.244   4.772   2.202  0.2218 -0.1976 -0.2319
17973TIP3    H275411   0.294   4.896   2.132 -0.0804  0.3319  0.4700
17974TIP3   OH275412   0.663   6.058  15.438  0.4910 -0.0740  0.3233
17974TIP3    H175413   0.683   5.982  15.493  0.0107  0.8556  1.8600
17974TIP3    H275414   0.579   6.037  15.397  0.8889 -0.8168 -0.1175
17975TIP3   OH275415   6.018   5.763   3.116  0.1592  0.2713 -0.2520
17975TIP3    H175416   5.925   5.769   3.137  0.3300  0.7756  0.3880
17975TIP3    H275417   6.063   5.791   3.195  0.8681 -0.2272 -0.4634
17976TIP3   OH275418   5.191   6.126   4.167  0.0581  0.1830  0.0486
17976TIP3    H175419   5.150   6.050   4.209 -1.2020 -0.1471 -1.6712
17976TIP3    H275420   5.254   6.087   4.105 -1.4179  0.4239 -1.6888
17977TIP3   OH275421   5.278   4.315   0.419  0.3774  0.2281  0.0639
17977TIP3    H175422   5.209   4.381   0.425 -1.7517 -1.7496 -1.0909
17977TIP3    H275423   5.321   4.333   0.335  0.2241  0.5043  0.0423
17978TIP3   OH275424   0.103   0.796   0.021  0.8243  0.0892  0.4621
17978TIP3    H175425   0.093   0.712  -0.023  0.3910 -0.4318  1.5327
17978TIP3    H275426   0.157   0.848  -0.038 -0.0233 -0.4648 -0.8496
17979TIP3   OH275427   4.736   6.666  14.212  0.0242  0.3784 -0.3513
17979TIP3    H175428   4.673   6.694  14.145  1.0053  0.8595 -1.0943
17979TIP3    H275429   4.815   6.643  14.163  0.3286 -0.5414  0.5389
17980TIP3   OH275430   2.581   2.058   4.586 -0.3281  0.7325 -0.4710
17980TIP3    H175431   2.543   2.115   4.652 -0.9000  0.8142 -0.8644
17980TIP3    H275432   2.569   1.970   4.621 -2.9533  0.5587 -1.5656
17981TIP3   OH275433   1.327   2.935  12.701 -0.4179 -0.2986  0.3740
17981TIP3    H175434   1.317   3.008  12.762 -0.6849  1.8547 -2.0601
17981TIP3    H275435   1.252   2.943  12.641  0.8249 -1.0875 -1.3816
17982TIP3   OH275436   6.449   0.212  16.750  0.2330 -0.0740 -0.2385
17982TIP3    H175437   6.444   0.199  16.656  1.7913 -2.2201 -0.1131
17982TIP3    H275438   6.430   0.125  16.787  0.2909  0.5706  1.3806
17983TIP3   OH275439   5.942   6.098   0.584 -0.2370 -0.5291 -0.2167
17983TIP3    H175440   5.995   6.145   0.519 -3.0832  2.3896 -0.6400
17983TIP3    H275441   5.988   6.110   0.666 -0.6917  3.0725 -0.3280
17984TIP3   OH275442   1.367   4.982  12.083 -0.3773  0.2895 -0.0805
17984TIP3    H175443   1.359   5.076  12.070 -0.6814  0.4094  0.8463
17984TIP3    H275444   1.320   4.943  12.009  1.5581  0.8077 -1.6545
17985TIP3   OH275445   6.712   4.708  13.177 -0.5442  0.1339 -0.3118
17985TIP3    H175446   6.625   4.738  13.204 -0.0592  0.8365  0.5297
17985TIP3    H275447   6.700   4.675  13.088 -1.6451  0.3387 -0.2477
17986TIP3   OH275448   4.532   5.001  11.543  0.0718  0.2549  0.1302
17986TIP3    H175449   4.608   5.048  11.577 -1.0260  1.7560  0.6373
17986TIP3    H275450   4.479   4.981  11.620 -0.6633  0.3672 -0.3306
17987TIP3   OH275451   5.105   2.162   5.624 -0.0405 -0.0594 -0.3795
17987TIP3    H175452   5.160   2.103   5.674 -0.5019  0.0909  0.3353
17987TIP3    H275453   5.017   2.125   5.631 -0.0696 -0.2048 -1.3573
17988TIP3   OH275454   1.702   5.097   1.727 -0.6836  0.1986 -0.5698
17988TIP3    H175455   1.674   5.005   1.719 -0.9863  0.2725 -0.3802
17988TIP3    H275456   1.760   5.098   1.803  0.6709 -0.1464 -1.5578
17989TIP3   OH275457   5.816   4.812  11.494  0.0291 -0.3485 -0.6730
17989TIP3    H175458   5.782   4.792  11.406 -1.8455  2.0003 -0.5810
17989TIP3    H275459   5.854   4.899  11.486  1.8273 -0.9612  0.4227
17990TIP3   OH275460   6.484   2.391   1.106 -0.2995 -0.1626  0.1640
17990TIP3    H175461   6.402   2.379   1.059 -0.5542 -0.2638  0.6251
17990TIP3    H275462   6.459   2.439   1.185  0.4129  1.7330 -0.7225
17991TIP3   OH275463   6.669   6.192   0.613  0.1846 -0.2182 -0.3963
17991TIP3    H175464   6.623   6.158   0.690 -0.4863  0.7826 -0.3407
17991TIP3    H275465   6.739   6.129   0.598 -0.2599 -0.9439  0.4556
17992TIP3   OH275466   5.976   3.583  14.354 -0.1068 -0.7621  0.0650
17992TIP3    H175467   6.063   3.548  14.339 -0.8372 -2.4074 -0.5869
17992TIP3    H275468   5.988   3.678  14.356  1.7175 -0.9682  0.2775
17993TIP3   OH275469   1.379   4.723   5.513 -0.6571  0.1561  0.2523
17993TIP3    H175470   1.335   4.729   5.429 -1.4931 -0.1770  0.6532
17993TIP3    H275471   1.466   4.689   5.492 -1.0787 -0.5417 -0.4184
17994TIP3   OH275472   2.734   3.018  15.364  0.0521 -0.0783  0.3826
17994TIP3    H175473   2.790   3.054  15.295  0.0779 -0.9707 -0.0688
17994TIP3    H275474   2.661   3.079  15.369  1.1028  1.1809  1.0682
17995TIP3   OH275475   0.026   1.971  13.772 -0.2233  0.4071  0.5675
17995TIP3    H175476  -0.049   1.969  13.712  2.2621 -1.4936 -2.8185
17995TIP3    H275477   0.082   1.899  13.742  2.0313  0.3938  4.2570
17996TIP3   OH275478   6.570   0.859  13.427  0.1095 -0.8680 -0.4510
17996TIP3    H175479   6.527   0.872  13.512 -1.6448 -1.4780 -1.2189
17996TIP3    H275480   6.537   0.776  13.395  1.3054 -0.9955 -1.4459
17997TIP3   OH275481   3.073   1.613  11.412 -0.0985  0.3765  0.6870
17997TIP3    H175482   3.038   1.701  11.422  2.5573  1.6708 -0.3592
17997TIP3    H275483   3.051   1.589  11.322  0.5638  0.6713  0.4397
17998TIP3   OH275484   2.299   0.041  14.874  0.2115 -0.2525 -0.6547
17998TIP3    H175485   2.286   0.116  14.932 -0.9515 -0.8533 -0.1115
17998TIP3    H275486   2.229   0.048  14.809  0.9306 -0.1195 -1.4459
17999TIP3   OH275487   0.836   6.150  13.801 -0.2887  0.0968  0.2324
17999TIP3    H175488   0.883   6.232  13.788 -1.8573  1.1735  0.9143
17999TIP3    H275489   0.879   6.088  13.743  0.3302  1.6612 -1.0695
18000TIP3   OH275490   0.075   0.570  15.843 -0.6186  0.2132 -0.1496
18000TIP3    H175491  -0.010   0.613  15.837 -0.7011  0.3709  1.6209
18000TIP3    H275492   0.138   0.641  15.843 -0.6792  0.3034  1.3966
18001TIP3   OH275493   0.995   2.591   5.907  0.2564 -0.4327  0.5568
18001TIP3    H175494   1.027   2.677   5.936 -0.2796 -0.1680  0.3720
18001TIP3    H275495   0.907   2.608   5.876  0.6964 -0.7668 -0.9279
18002TIP3   OH275496   0.032   6.267  14.743 -0.1873 -0.1831  0.2965
18002TIP3    H175497   0.058   6.259  14.835  0.6618  1.4879  0.2325
18002TIP3    H275498  -0.053   6.312  14.746 -0.8614 -1.3910  0.2863
18003TIP3   OH275499   4.541   3.718   3.018  0.5003 -0.2413 -0.2893
18003TIP3    H175500   4.587   3.801   3.031 -3.1563  2.1165 -0.8750
18003TIP3    H275501   4.520   3.717   2.925 -0.6883 -1.1221 -0.0312
18004TIP3   OH275502   3.354   1.765   3.862 -0.3190 -0.2438 -0.6180
18004TIP3    H175503   3.330   1.852   3.831 -0.5059  0.0773  0.4262
18004TIP3    H275504   3.337   1.708   3.787 -0.2481  0.6017 -1.2929
18005TIP3   OH275505   0.497   3.731   5.290 -0.6000  0.1518 -0.1210
18005TIP3    H175506   0.411   3.691   5.278 -0.0443 -0.7936 -1.1712
18005TIP3    H275507   0.524   3.706   5.378 -0.5635 -1.2612 -0.5074
18006TIP3   OH275508   1.024   0.042   3.314  0.4460  0.6109 -0.0715
18006TIP3    H175509   1.094   0.029   3.250 -0.5625  1.2481 -1.3511
18006TIP3    H275510   0.980   0.123   3.286 -1.6509 -0.4674 -0.1417
18007TIP3   OH275511   2.103   3.227  15.224  0.5994 -0.2072 -0.5606
18007TIP3    H175512   2.076   3.143  15.262  1.3074 -0.2456 -0.1184
18007TIP3    H275513   2.069   3.226  15.135 -0.1971 -0.5669 -0.2667
18008TIP3   OH275514   4.787   4.249   1.508  0.1255  0.2192 -0.4107
18008TIP3    H175515   4.865   4.303   1.522  0.2599 -0.3678  1.3279
18008TIP3    H275516   4.731   4.270   1.582 -0.8012 -0.3651 -0.9348
18009TIP3   OH275517   0.185   2.228   0.743 -0.2133 -0.1100  0.5442
18009TIP3    H175518   0.141   2.192   0.820  0.7061 -0.0780  1.0879
18009TIP3    H275519   0.181   2.158   0.678  0.1261 -0.6006  1.0476
18010TIP3   OH275520   0.831   2.021   6.268 -0.3769 -0.3728 -0.3214
18010TIP3    H175521   0.869   2.108   6.282 -0.6953 -0.1901 -0.5780
18010TIP3    H275522   0.904   1.968   6.234 -0.4475  0.0868 -1.2204
18011TIP3   OH275523   3.469   5.025  16.540 -0.1590  0.4109 -0.3132
18011TIP3    H175524   3.386   5.069  16.523 -0.9391 -0.6711  0.5471
18011TIP3    H275525   3.505   5.070  16.617  0.3957  1.3036 -1.0712
18012TIP3   OH275526   1.486   6.559  15.103  0.5075  0.1709 -0.6088
18012TIP3    H175527   1.492   6.464  15.100 -2.1161 -0.1667  1.3564
18012TIP3    H275528   1.393   6.578  15.114  1.1306  2.8469  1.1877
18013TIP3   OH275529   1.338   2.750   1.788  0.2600 -0.1586 -0.2813
18013TIP3    H175530   1.426   2.713   1.784  0.7207  0.9139 -0.6567
18013TIP3    H275531   1.289   2.701   1.722  0.1806 -1.7046  0.8910
18014TIP3   OH275532   0.792   0.039   1.848 -0.3418 -0.5890  0.3637
18014TIP3    H175533   0.854  -0.030   1.825 -0.4042 -0.0066 -1.7904
18014TIP3    H275534   0.820   0.069   1.934  1.9269 -0.8549 -0.2253
18015TIP3   OH275535   1.313   4.831   1.612 -0.5327 -0.2056 -0.0503
18015TIP3    H175536   1.359   4.852   1.693 -0.3723 -2.4265  0.4905
18015TIP3    H275537   1.333   4.905   1.554  0.3921  0.8201  1.4999
18016TIP3   OH275538   3.082   2.114   2.190 -0.2744 -0.0304 -0.0986
18016TIP3    H175539   3.018   2.142   2.124 -0.5526  1.2324  0.6629
18016TIP3    H275540   3.142   2.057   2.143 -3.0131 -2.8819 -0.4520
18017TIP3   OH275541   0.100   3.442   2.083 -0.5009  0.3843  0.0162
18017TIP3    H175542   0.085   3.455   2.177  0.9091 -0.8972  0.4519
18017TIP3    H275543   0.062   3.357   2.064 -0.2075  0.3502 -0.4408
18018TIP3   OH275544   1.202   6.230   2.093 -0.1593 -0.0921  0.2712
18018TIP3    H175545   1.155   6.238   2.010  2.3183 -3.9858 -1.8093
18018TIP3    H275546   1.138   6.191   2.153 -0.6392 -2.0995 -1.4394
18019TIP3   OH275547   3.680   5.652   5.320 -1.0868  0.9338  0.0465
18019TIP3    H175548   3.770   5.678   5.338 -0.9509  0.6861 -0.2726
18019TIP3    H275549   3.642   5.637   5.406 -0.2526 -0.8781  0.1494
18020TIP3   OH275550   2.643   1.200   0.664  0.4127 -0.1365  0.0652
18020TIP3    H175551   2.553   1.231   0.663  1.6306  4.0323 -0.9160
18020TIP3    H275552   2.643   1.123   0.608 -2.3556  0.3397 -0.7251
18021TIP3   OH275553   1.713   4.127   1.124  0.3066 -0.6276  0.0556
18021TIP3    H175554   1.679   4.045   1.088  0.6415 -0.6239 -0.2779
18021TIP3    H275555   1.659   4.144   1.201 -1.3922  0.0780 -1.2115
18022TIP3   OH275556   6.117   5.762  14.265  0.2175  0.1352 -0.0100
18022TIP3    H175557   6.104   5.856  14.253  1.0097  0.1793 -0.5458
18022TIP3    H275558   6.200   5.754  14.312  0.6819 -0.3407 -0.8972
18023TIP3   OH275559   3.927   3.078  13.927 -0.0005 -0.3608  0.5075
18023TIP3    H175560   3.898   3.164  13.896  0.2133 -0.5016 -0.0873
18023TIP3    H275561   3.849   3.023  13.921  0.0011 -0.3479  0.3722
18024TIP3   OH275562   2.011   4.746  15.508 -0.1832  0.1991 -0.2309
18024TIP3    H175563   1.969   4.744  15.594 -0.5900 -2.3243 -0.4094
18024TIP3    H275564   2.089   4.692  15.518  0.4845  0.9457 -1.1498
18025TIP3   OH275565   6.333   1.230   2.658  0.4212 -0.2774 -0.0990
18025TIP3    H175566   6.396   1.196   2.721 -0.9573 -0.9472  0.9696
18025TIP3    H275567   6.318   1.158   2.597 -0.8058 -0.8690  0.8505
18026TIP3   OH275568   2.350   3.606   1.350  0.1598 -0.3405  0.0354
18026TIP3    H175569   2.429   3.612   1.405 -0.7652 -0.0804  1.3818
18026TIP3    H275570   2.324   3.515   1.356 -1.3472  0.1688  2.1241
18027TIP3   OH275571   2.245   2.752  16.159  0.4468  0.1582 -0.1125
18027TIP3    H175572   2.293   2.762  16.077  1.5766  0.6739  0.5893
18027TIP3    H275573   2.306   2.705  16.217 -1.1014 -2.1231 -0.2062
18028TIP3   OH275574   3.074   1.527  16.857  0.0019 -0.1141 -0.0762
18028TIP3    H175575   3.091   1.563  16.770 -0.9987  1.1908  0.2449
18028TIP3    H275576   3.141   1.459  16.868  2.4284  2.0455 -0.4546
18029TIP3   OH275577   0.076   5.429  16.153  0.1479  0.3411 -0.3364
18029TIP3    H175578   0.035   5.459  16.234 -1.3725  1.8733 -1.5889
18029TIP3    H275579   0.170   5.430  16.171  0.0299  3.1708  0.6553
18030TIP3   OH275580   3.929   0.902  12.806  0.0990  0.5307  0.7124
18030TIP3    H175581   3.888   0.946  12.732  1.7045  0.4613 -0.2682
18030TIP3    H275582   3.857   0.885  12.867 -1.2510  0.6595 -0.7862
18031TIP3   OH275583   2.797   2.335   0.650 -0.6483 -0.0165  0.5691
18031TIP3    H175584   2.767   2.415   0.605 -0.1246 -0.5064 -0.7085
18031TIP3    H275585   2.888   2.326   0.623 -0.3785 -0.4632  1.5955
18032TIP3   OH275586   6.127   5.217  11.526  0.0478  0.2734 -0.0832
18032TIP3    H175587   6.142   5.310  11.510  1.3450 -0.1285 -1.4389
18032TIP3    H275588   6.185   5.195  11.599  1.1650  0.1623 -0.9733
18033TIP3   OH275589   5.980   5.525  14.301  0.0809  0.0690 -0.3605
18033TIP3    H175590   6.001   5.617  14.283  1.2275 -0.2470 -0.6551
18033TIP3    H275591   6.064   5.482  14.309 -0.4414 -0.7423  1.0016
18034TIP3   OH275592   1.630   6.667  16.907  0.2928 -0.8170  0.1390
18034TIP3    H175593   1.674   6.741  16.949 -2.0121  0.7265  0.0168
18034TIP3    H275594   1.591   6.617  16.979  1.3704 -1.6445  0.1794
18035TIP3   OH275595   4.286   3.514  15.005 -0.8957 -0.1483 -0.2476
18035TIP3    H175596   4.305   3.553  14.920  0.1528 -3.3350 -1.5883
18035TIP3    H275597   4.372   3.493  15.042 -1.3936 -0.4317  0.8060
18036TIP3   OH275598   3.341   1.550  11.373  0.0774 -0.7772 -0.3076
18036TIP3    H175599   3.409   1.618  11.371  0.8353 -1.5280 -2.2621
18036TIP3    H275600   3.262   1.596  11.401  0.0504  1.4938 -3.5502
18037TIP3   OH275601   2.576   3.022  16.235  0.6536  0.8765 -0.3980
18037TIP3    H175602   2.552   3.105  16.194  1.6396  1.6811  0.5940
18037TIP3    H275603   2.568   2.958  16.164  3.1254  2.3268 -2.1725
18038TIP3   OH275604   6.503   4.885   0.816 -0.1040 -0.0641 -0.4451
18038TIP3    H175605   6.591   4.853   0.836  0.2304  0.9241 -0.3169
18038TIP3    H275606   6.459   4.810   0.775  0.0226 -1.3289  1.6268
18039TIP3   OH275607   5.969   2.223   4.205 -0.4175 -0.2098 -0.7047
18039TIP3    H175608   5.997   2.170   4.279  0.6725  1.6674  0.2876
18039TIP3    H275609   6.010   2.182   4.129 -1.2346 -1.9265 -0.2728
18040TIP3   OH275610   3.217   1.043  16.941  0.1519  0.0465 -0.5591
18040TIP3    H175611   3.260   1.057  16.856  1.0013 -0.4791 -0.2302
18040TIP3    H275612   3.149   1.110  16.944  0.6404  0.6017 -1.3055
18041TIP3   OH275613   1.021   3.818  13.441  0.4817 -0.3624  0.0690
18041TIP3    H175614   1.027   3.731  13.401  1.5348 -0.3354  0.1269
18041TIP3    H275615   1.042   3.878  13.369  2.5025 -0.3186  0.6457
18042TIP3   OH275616   0.234   0.124  14.487  0.0500 -0.3600  0.5074
18042TIP3    H175617   0.141   0.135  14.507  0.3691  0.1580  1.8326
18042TIP3    H275618   0.236   0.103  14.394 -1.4469 -1.1655  0.6182
18043TIP3   OH275619   0.563   1.948   5.294  0.0235 -0.5493 -0.3857
18043TIP3    H175620   0.480   1.971   5.337  0.5271  0.1384  0.2219
18043TIP3    H275621   0.631   1.982   5.352  0.7355  1.7878 -2.4155
18044TIP3   OH275622   1.715   5.712  14.018 -0.2897  0.2048  0.4326
18044TIP3    H175623   1.624   5.684  14.011 -0.7794  1.7063  0.3047
18044TIP3    H275624   1.709   5.807  14.033  1.3016  0.6991 -1.6601
18045TIP3   OH275625   1.083   2.710   0.544  0.8260  0.2978  0.1334
18045TIP3    H175626   1.085   2.740   0.634 -1.0111  0.2905  0.2020
18045TIP3    H275627   1.122   2.623   0.546  1.4602  0.5886  0.7741
18046TIP3   OH275628   0.516   3.017  15.083 -0.1366  0.4156  0.4297
18046TIP3    H175629   0.509   2.943  15.143  1.4142  0.6274  0.9406
18046TIP3    H275630   0.518   3.094  15.140 -0.5284  0.7677 -0.0196
18047TIP3   OH275631   3.860   3.192  13.551  0.8127 -0.2459  0.2925
18047TIP3    H175632   3.767   3.201  13.526  1.2283  0.5651 -1.0987
18047TIP3    H275633   3.861   3.202  13.646 -0.5200 -0.2205  0.3238
18048TIP3   OH275634   3.900   0.818   3.802  0.5086 -0.6663 -0.9054
18048TIP3    H175635   3.942   0.895   3.840  0.2772 -0.6198 -0.7427
18048TIP3    H275636   3.940   0.809   3.715  0.5483 -0.3751 -0.9164
18049TIP3   OH275637   2.869   3.379   4.336  0.7933  0.0750  0.6522
18049TIP3    H175638   2.787   3.350   4.376 -1.1318  2.8431 -0.8832
18049TIP3    H275639   2.893   3.458   4.385  0.9871  0.8138 -0.5709
18050TIP3   OH275640   1.409   6.537   3.890 -0.1176  0.0972  0.1886
18050TIP3    H175641   1.433   6.447   3.908  1.4858  0.1548 -1.3692
18050TIP3    H275642   1.490   6.587   3.899 -0.5561  1.0595 -0.8202
18051TIP3   OH275643   4.235   3.914   1.258 -0.9818  0.1801  0.6084
18051TIP3    H175644   4.295   3.942   1.189 -1.2279 -1.6033 -0.4148
18051TIP3    H275645   4.214   3.994   1.306  0.6916  1.1595 -0.1946
18052TIP3   OH275646   3.889   4.296   0.200  0.3281  0.0396 -0.2518
18052TIP3    H175647   3.843   4.356   0.140  0.1312 -0.3368 -0.4810
18052TIP3    H275648   3.975   4.284   0.159  0.9101  1.2954  0.5339
18053TIP3   OH275649   3.113   0.686  16.473 -0.0510  0.0724  0.3064
18053TIP3    H175650   3.137   0.594  16.484 -0.7579 -0.4624 -2.0628
18053TIP3    H275651   3.106   0.720  16.562 -3.0717 -3.0382  1.4574
18054TIP3   OH275652   3.420   1.852   3.505  0.0833 -0.1411 -0.3813
18054TIP3    H175653   3.376   1.817   3.582  1.0199  0.2310  0.3380
18054TIP3    H275654   3.352   1.903   3.460 -0.7380 -1.1836 -0.3579
18055TIP3   OH275655   6.716   3.551   4.986 -1.3542 -0.1669  0.4044
18055TIP3    H175656   6.668   3.619   5.034  0.8906  1.8602 -0.0209
18055TIP3    H275657   6.684   3.558   4.896 -1.5176 -0.0241  0.4738
18056TIP3   OH275658   5.078   3.847  11.461  0.1850  0.2245 -0.4669
18056TIP3    H175659   5.154   3.882  11.416  1.9909 -1.0484  1.3887
18056TIP3    H275660   5.113   3.810  11.542 -2.2528 -1.4480 -0.0581
18057TIP3   OH275661   0.502   3.228   2.219 -0.7008 -0.2020  0.0509
18057TIP3    H175662   0.536   3.300   2.273 -0.4259 -0.9056  0.8468
18057TIP3    H275663   0.525   3.149   2.269  1.8285 -1.0861 -2.2604
18058TIP3   OH275664   4.947   5.234   0.491 -1.0242  0.9965 -0.8492
18058TIP3    H175665   5.024   5.290   0.501 -1.2618  1.3492 -0.9703
18058TIP3    H275666   4.958   5.193   0.405 -1.3468  1.6418 -1.2093
18059TIP3   OH275667   6.053   4.288  14.904 -0.1567 -0.0760  0.0853
18059TIP3    H175668   6.008   4.290  14.988 -0.2962  0.6017 -0.0034
18059TIP3    H275669   6.016   4.361  14.855  2.0699  1.4609  0.5485
18060TIP3   OH275670   2.451   4.518  12.393  0.2294 -0.5258 -0.3818
18060TIP3    H175671   2.378   4.484  12.445  1.7600  0.0773  2.3668
18060TIP3    H275672   2.415   4.593  12.347 -1.4258 -1.6161 -0.9444
18061TIP3   OH275673   5.540   1.076  17.216  0.4129  0.4489  0.6451
18061TIP3    H175674   5.537   1.155  17.162  0.3244  0.3956  0.5707
18061TIP3    H275675   5.464   1.025  17.188  0.8667  0.0065  0.1801
18062TIP3   OH275676   0.886   3.067   4.889  0.1879 -0.0963 -0.2077
18062TIP3    H175677   0.845   2.985   4.915 -1.7451  1.1487  0.9985
18062TIP3    H275678   0.907   3.110   4.972  0.4170  0.9687 -0.7992
18063TIP3   OH275679   5.083   3.715  16.593 -0.3030  0.5152  0.3833
18063TIP3    H175680   5.127   3.640  16.553  0.2576  1.1519 -0.2054
18063TIP3    H275681   4.990   3.693  16.588 -0.2422  0.5443 -1.1854
18064TIP3   OH275682   4.693   3.743   3.613  0.0479  0.3545  0.2371
18064TIP3    H175683   4.728   3.771   3.697 -1.1888  0.7751  0.6228
18064TIP3    H275684   4.654   3.657   3.630 -1.6491  1.1308  0.5155
18065TIP3   OH275685   4.436   3.820  16.436  0.4120 -0.1515 -0.2755
18065TIP3    H175686   4.447   3.794  16.527  0.2552 -2.8338 -0.9518
18065TIP3    H275687   4.493   3.897  16.426  1.6299 -0.7266  1.6759
18066TIP3   OH275688   0.072   4.453   0.873  0.0820 -0.0834  0.0659
18066TIP3    H175689   0.030   4.459   0.959 -3.1228  0.2254 -1.3680
18066TIP3    H275690   0.164   4.439   0.892 -0.5087 -0.1057  3.5379
18067TIP3   OH275691   5.374   4.005   6.567  0.2569 -0.2561  0.0017
18067TIP3    H175692   5.343   3.983   6.479 -0.7960  0.1629  0.2535
18067TIP3    H275693   5.394   3.920   6.607  0.3630 -0.4737 -0.5098
18068TIP3   OH275694   0.973   0.619  16.231 -0.7927  0.6341  0.6288
18068TIP3    H175695   0.933   0.662  16.306 -2.0623 -1.1590  1.0361
18068TIP3    H275696   0.993   0.530  16.261  2.2220  0.9952 -0.0227
18069TIP3   OH275697   1.988   6.293  11.186  0.0149 -0.7315 -0.5316
18069TIP3    H175698   2.065   6.317  11.135  0.9239 -0.2054  1.0044
18069TIP3    H275699   1.919   6.350  11.154  1.0127  0.8455 -0.0186
18070TIP3   OH275700   5.943   1.556  16.989 -0.2334 -0.6382  0.9120
18070TIP3    H175701   5.852   1.532  17.004 -0.5829 -0.4535 -0.7342
18070TIP3    H275702   5.963   1.523  16.901  1.2856 -0.6675  1.2392
18071TIP3   OH275703   6.222   5.159  17.031  0.0771 -0.0497 -0.0746
18071TIP3    H175704   6.149   5.212  17.065 -0.5043  0.3733 -1.8425
18071TIP3    H275705   6.219   5.079  17.083 -0.0041  0.9953  1.6226
18072TIP3   OH275706   0.767   4.665  14.737  0.0453 -0.0162 -0.4128
18072TIP3    H175707   0.781   4.748  14.784 -0.0436 -1.0327  1.5134
18072TIP3    H275708   0.764   4.690  14.645  2.5781  1.7838 -0.1103
18073TIP3   OH275709   2.510   3.091  15.813  0.2238  0.4946 -0.2853
18073TIP3    H175710   2.519   3.172  15.763  0.2528  1.3279  1.0189
18073TIP3    H275711   2.441   3.109  15.876  0.5339 -0.3403  0.3156
18074TIP3   OH275712   1.139   2.363  14.501  0.1039  0.1731 -0.3661
18074TIP3    H175713   1.194   2.434  14.537 -0.1467 -0.3460  1.1087
18074TIP3    H275714   1.052   2.380  14.537  0.5496 -2.2931  2.2757
18075TIP3   OH275715   5.094   6.172   0.805 -0.9179  0.1181 -0.3743
18075TIP3    H175716   5.137   6.173   0.719 -0.3767  0.6678 -0.1026
18075TIP3    H275717   5.123   6.090   0.845  2.7302  1.9518  1.1895
18076TIP3   OH275718   1.145   4.686  14.793  0.5849  0.6623  0.2283
18076TIP3    H175719   1.187   4.602  14.776 -0.7356 -0.2982  1.4743
18076TIP3    H275720   1.164   4.739  14.716  0.6845 -1.0794 -0.9862
18077TIP3   OH275721   2.293   6.465  11.830  0.0144 -0.4479  0.4911
18077TIP3    H175722   2.199   6.448  11.816  0.2385 -2.3115  0.9574
18077TIP3    H275723   2.317   6.404  11.900  1.8728 -0.9235 -0.5217
18078TIP3   OH275724   4.420   4.438  14.043 -0.1360  0.2290 -0.0678
18078TIP3    H175725   4.352   4.390  14.089 -1.1750  1.5932 -0.1164
18078TIP3    H275726   4.491   4.447  14.107  0.8993 -2.8665 -0.6094
18079TIP3   OH275727   3.711   6.090   1.206  0.4190 -0.1865  0.1647
18079TIP3    H175728   3.623   6.120   1.225  0.8572  0.3493  1.4261
18079TIP3    H275729   3.700   6.025   1.137 -0.7043  1.7503 -1.5929
18080TIP3   OH275730   0.162   0.575   2.513  0.4738  0.2197 -0.6042
18080TIP3    H175731   0.248   0.551   2.479 -0.3828 -0.1992 -2.6152
18080TIP3    H275732   0.176   0.659   2.557  1.9168  0.1201 -0.8389
18081TIP3   OH275733   5.474   0.295  16.265  0.2187 -0.0743 -0.3818
18081TIP3    H175734   5.568   0.276  16.273  0.0367 -2.2242 -2.3840
18081TIP3    H275735   5.465   0.386  16.295  2.7521 -0.1275  0.8065
18082TIP3   OH275736   2.317   0.249  14.306 -0.3763  0.4401  0.0690
18082TIP3    H175737   2.395   0.226  14.357 -0.7619  1.8993  1.3976
18082TIP3    H275738   2.351   0.291  14.227  0.2174  0.8397  0.5271
18083TIP3   OH275739   3.720   3.127   6.270 -0.4648 -0.4153 -0.4872
18083TIP3    H175740   3.736   3.217   6.243  0.9937 -0.4776  0.0285
18083TIP3    H275741   3.631   3.108   6.242 -1.4300  1.7316  0.8569
18084TIP3   OH275742   1.621   5.050   5.269 -0.1303 -0.4849  0.4986
18084TIP3    H175743   1.582   5.125   5.222  1.8687 -1.0411 -2.2553
18084TIP3    H275744   1.547   5.012   5.317 -1.8218  1.5146 -0.3279
18085TIP3   OH275745   0.307   5.041   5.121  0.0310 -0.1119 -1.1812
18085TIP3    H175746   0.346   5.127   5.104 -1.1676  0.9612  1.1688
18085TIP3    H275747   0.345   4.985   5.054  1.9083  1.9307 -1.9501
18086TIP3   OH275748   4.400   6.170  11.134  0.5578  0.3993 -0.5044
18086TIP3    H175749   4.365   6.180  11.046 -0.4856  0.2246 -0.1261
18086TIP3    H275750   4.346   6.228  11.188  1.6999  1.1340 -0.0910
18087TIP3   OH275751   6.047   5.413  16.297  0.0579 -0.0695 -0.3832
18087TIP3    H175752   5.982   5.476  16.330  0.4686 -0.1154  0.5597
18087TIP3    H275753   6.130   5.461  16.299 -0.0004  0.1534 -2.0683
18088TIP3   OH275754   4.255   5.431  15.703  0.2402  0.3767 -0.4362
18088TIP3    H175755   4.178   5.437  15.759  0.3065 -1.0467 -0.1384
18088TIP3    H275756   4.220   5.427  15.614 -0.1196 -1.1507 -0.2540
18089TIP3   OH275757   6.545   3.001  14.163  0.1267  0.1182 -0.2701
18089TIP3    H175758   6.471   3.007  14.225 -2.0107 -3.2178 -2.1794
18089TIP3    H275759   6.609   2.946  14.208  1.1007  2.1810  0.9928
18090TIP3   OH275760   6.002   0.795  14.624 -0.8516 -0.1886 -0.4088
18090TIP3    H175761   6.069   0.802  14.555 -0.4831  1.8641  0.1033
18090TIP3    H275762   6.051   0.772  14.703 -1.1896 -1.8460 -0.6444
18091TIP3   OH275763   4.364   1.525  16.364 -0.8123 -0.1377  0.0300
18091TIP3    H175764   4.319   1.448  16.396  0.0920  0.0464  1.8763
18091TIP3    H275765   4.425   1.549  16.434 -1.7843  2.8632  0.0056
18092TIP3   OH275766   4.300   3.083   5.900  0.1675  0.0401  0.2053
18092TIP3    H175767   4.274   3.059   5.989 -0.8604 -0.3363 -0.1781
18092TIP3    H275768   4.328   3.174   5.907  0.8581 -0.2292  1.0544
18093TIP3   OH275769   5.152   2.977  16.354  0.1637 -0.4964 -0.3010
18093TIP3    H175770   5.120   3.058  16.315 -1.3288 -0.3364  1.1489
18093TIP3    H275771   5.076   2.940  16.398  1.4754 -1.2216  1.4628
18094TIP3   OH275772   4.930   3.137   3.504 -0.0407 -0.0315 -0.3908
18094TIP3    H175773   4.887   3.067   3.553 -0.3439  0.6641  0.3739
18094TIP3    H275774   4.908   3.121   3.413 -0.8164 -0.4374 -0.1351
18095TIP3   OH275775   6.127   5.402  12.711 -0.2734 -0.4611 -0.1411
18095TIP3    H175776   6.120   5.498  12.707  0.0427 -0.4626 -0.8474
18095TIP3    H275777   6.077   5.378  12.789 -0.7463  0.2403 -0.2170
18096TIP3   OH275778   1.154   3.558   1.661  0.2147  0.0112 -0.1160
18096TIP3    H175779   1.113   3.631   1.614  0.1683  0.1393  0.1224
18096TIP3    H275780   1.081   3.505   1.693  0.2540 -0.3836 -0.6647
18097TIP3   OH275781   0.675   5.585  16.954  0.2642 -0.3911 -0.5308
18097TIP3    H175782   0.644   5.617  16.869 -0.4050  0.0919 -0.1182
18097TIP3    H275783   0.768   5.609  16.956 -0.4789  2.9498  0.3322
18098TIP3   OH275784   1.910   0.750   2.183  0.1652  0.0853 -0.0993
18098TIP3    H175785   1.886   0.836   2.150  1.7508  0.8860  0.7680
18098TIP3    H275786   1.892   0.691   2.109  0.0436  1.2854 -1.0617
18099TIP3   OH275787   4.648   5.870   0.173 -0.1212 -0.0435 -1.0605
18099TIP3    H175788   4.646   5.808   0.246 -1.4001  0.3582 -0.7283
18099TIP3    H275789   4.685   5.820   0.100  1.9731 -0.2016  0.0534
18100TIP3   OH275790   3.466   3.708  14.464  0.5641  0.3582 -0.1981
18100TIP3    H175791   3.547   3.673  14.428 -0.5817 -1.0830 -1.5454
18100TIP3    H275792   3.410   3.631  14.477 -0.8204  1.3556  0.0668
18101TIP3   OH275793   2.780   5.413   1.478 -0.1129  0.4815 -0.0800
18101TIP3    H175794   2.713   5.479   1.459 -1.1336 -0.4419  0.1980
18101TIP3    H275795   2.816   5.390   1.393 -0.4376  0.6963 -0.2758
18102TIP3   OH275796   6.355   5.480   6.198 -0.0478  0.0351 -0.2109
18102TIP3    H175797   6.352   5.476   6.102  0.2710 -0.7463 -0.1914
18102TIP3    H275798   6.337   5.572   6.218 -1.4228 -0.0318 -0.9637
18103TIP3   OH275799   3.717   1.007  10.913 -0.0871 -0.0610 -0.5395
18103TIP3    H175800   3.622   0.995  10.904 -0.4637 -0.7646  2.8592
18103TIP3    H275801   3.752   0.989  10.826 -3.0605  0.5137 -2.0000
18104TIP3   OH275802   3.667   5.044   2.334  0.3716 -0.1206  0.4185
18104TIP3    H175803   3.600   4.994   2.289  1.4806 -0.6214 -0.7543
18104TIP3    H275804   3.745   4.988   2.331  1.1428  0.8975  0.7215
18105TIP3   OH275805   6.355   5.053   4.657  0.2618 -0.0113 -0.1282
18105TIP3    H175806   6.306   4.994   4.714 -2.5241  1.0203 -1.2552
18105TIP3    H275807   6.386   5.123   4.715  2.4124 -1.7410  0.9723
18106TIP3   OH275808   0.021   6.273  11.174  0.1546 -0.0843  0.4196
18106TIP3    H175809  -0.035   6.272  11.097  2.4756 -1.5407 -1.4016
18106TIP3    H275810   0.000   6.356  11.218 -3.1807 -0.4644 -0.1983
18107TIP3   OH275811   5.945   2.350  14.523  1.1740 -0.1244  0.3555
18107TIP3    H175812   5.917   2.262  14.499  0.6354 -0.3402  1.6984
18107TIP3    H275813   5.872   2.407  14.499  0.8923 -0.2586  0.8717
18108TIP3   OH275814   5.965   5.207   2.566 -0.1898 -0.2651  0.5308
18108TIP3    H175815   6.018   5.198   2.487 -1.5487  0.1586 -0.4770
18108TIP3    H275816   5.924   5.121   2.577  0.8355 -0.6505  1.4175
18109TIP3   OH275817   0.285   3.115  16.074 -0.0983 -0.0665 -1.1959
18109TIP3    H175818   0.254   3.044  16.018 -1.1498  1.5020 -2.7119
18109TIP3    H275819   0.209   3.173  16.084  1.2073  1.8327 -1.6330
18110TIP3   OH275820   2.053   2.822   3.579 -0.1191  0.1285  0.1749
18110TIP3    H175821   2.040   2.889   3.646  0.9103 -0.3984  0.9347
18110TIP3    H275822   1.966   2.784   3.566 -0.4880  0.8093  0.6028
18111TIP3   OH275823   3.666   1.025   4.515 -0.4237  0.0435 -0.5855
18111TIP3    H175824   3.658   1.090   4.446  1.5762 -1.0051 -1.9254
18111TIP3    H275825   3.627   1.066   4.592  0.3371  2.6482 -1.4779
18112TIP3   OH275826   5.494   4.508   0.523 -0.1690  0.8223  0.1155
18112TIP3    H175827   5.454   4.559   0.594  2.5638  0.5095  2.0394
18112TIP3    H275828   5.432   4.438   0.506 -1.5538  1.7255  1.1952
18113TIP3   OH275829   4.818   5.694  12.889 -0.1320 -0.5494 -0.5591
18113TIP3    H175830   4.805   5.603  12.861  1.4256 -0.6988 -0.8641
18113TIP3    H275831   4.887   5.689  12.954  0.1453  0.4579 -0.7632
18114TIP3   OH275832   1.839   1.780  13.953 -0.1981 -0.4188  0.2756
18114TIP3    H175833   1.923   1.800  13.994  0.0708  0.0044 -0.4638
18114TIP3    H275834   1.844   1.687  13.932 -0.0834 -0.4903  0.6162
18115TIP3   OH275835   1.964   4.691  12.187  0.4801  0.8319  0.1734
18115TIP3    H175836   2.026   4.742  12.134  0.8616  1.8181  1.5089
18115TIP3    H275837   1.917   4.757  12.237  0.2251 -0.0766  1.1563
18116TIP3   OH275838   0.088   0.263  13.888 -0.1958 -0.0140 -0.6835
18116TIP3    H175839   0.022   0.238  13.824  1.2530  0.3499 -2.3796
18116TIP3    H275840   0.122   0.179  13.921  0.7586 -0.2992 -2.2609
18117TIP3   OH275841   6.288   1.958  12.891  0.4488 -0.2475 -0.0675
18117TIP3    H175842   6.220   2.025  12.883  0.9044  0.6032  2.2843
18117TIP3    H275843   6.241   1.878  12.914 -0.0015 -0.5193 -1.8094
18118TIP3   OH275844   5.896   2.013  13.130 -0.2921  0.2447  0.0451
18118TIP3    H175845   5.844   2.092  13.117  2.9707  2.5596 -0.2777
18118TIP3    H275846   5.876   1.958  13.054 -3.1367  0.3435  0.6157
18119TIP3   OH275847   4.264   3.242   0.602 -0.2134  0.2181  0.1324
18119TIP3    H175848   4.243   3.161   0.649 -2.6545 -0.7407 -2.3132
18119TIP3    H275849   4.214   3.310   0.648  1.4026  0.3160  1.8539
18120TIP3   OH275850   5.854   0.687  10.733 -0.0041  0.6783  0.4556
18120TIP3    H175851   5.871   0.593  10.741 -1.3534  0.4585  1.0472
18120TIP3    H275852   5.862   0.720  10.822 -0.0751  1.0237  0.3339
18121TIP3   OH275853   3.613   2.993  11.101 -0.2044  0.0312  0.3658
18121TIP3    H175854   3.628   2.986  11.007 -2.1571 -0.9777  0.0760
18121TIP3    H275855   3.696   2.966  11.141  0.2700 -0.6799 -1.0580
18122TIP3   OH275856   0.469   3.330   3.588  0.4405  0.3811  0.0905
18122TIP3    H175857   0.511   3.250   3.556  0.2735  0.2658  0.1567
18122TIP3    H275858   0.527   3.361   3.658  0.8898  0.7205 -0.4226
18123TIP3   OH275859   4.717   6.380  17.182 -0.2397 -0.7440 -0.4071
18123TIP3    H175860   4.723   6.362  17.088  1.5799  0.0373 -0.4920
18123TIP3    H275861   4.624   6.370  17.203 -1.4858  3.0253 -3.1183
18124TIP3   OH275862   2.019   4.901   0.348  0.5675 -0.6527 -0.0945
18124TIP3    H175863   2.042   4.977   0.293  0.9412  0.6095  1.6945
18124TIP3    H275864   1.925   4.891   0.337  1.0189 -2.5186 -3.4199
18125TIP3   OH275865   5.895   0.408   2.620  0.6349  0.5070  0.1454
18125TIP3    H175866   5.967   0.347   2.604  0.2351  0.4978 -1.9279
18125TIP3    H275867   5.938   0.492   2.634  1.1197  0.0739  1.4585
18126TIP3   OH275868   6.677   4.144  16.208 -0.2124 -0.0039 -0.1517
18126TIP3    H175869   6.583   4.143  16.224 -0.0899  0.8504  0.7371
18126TIP3    H275870   6.715   4.108  16.289  0.2392 -0.0840 -0.3959
18127TIP3   OH275871   4.167   1.149   4.149  0.1727 -0.2981 -0.3101
18127TIP3    H175872   4.100   1.217   4.151 -1.0112 -1.3090  3.4458
18127TIP3    H275873   4.245   1.193   4.116 -1.3584  1.9234 -1.2495
18128TIP3   OH275874   0.803   1.513  10.670  0.3112 -0.0062  0.0494
18128TIP3    H175875   0.769   1.597  10.701 -0.1473  0.2232 -1.0496
18128TIP3    H275876   0.728   1.454  10.673  0.8992 -0.7371  1.9686
18129TIP3   OH275877   0.960   5.139  13.117  0.5597 -0.1737 -0.3884
18129TIP3    H175878   0.959   5.079  13.041  0.4628  1.0343 -1.3678
18129TIP3    H275879   1.047   5.128  13.154  1.0357  0.0593 -1.3884
18130TIP3   OH275880   2.565   3.853  11.065 -0.5074  0.0249  0.0298
18130TIP3    H175881   2.565   3.759  11.080 -2.0278 -0.3015 -1.5728
18130TIP3    H275882   2.610   3.891  11.141  0.8010 -2.0213  0.3269
18131TIP3   OH275883   5.254   3.018   0.152  0.2417 -0.0622 -0.0786
18131TIP3    H175884   5.190   3.028   0.082 -0.2427 -0.8771  0.2306
18131TIP3    H275885   5.265   3.106   0.188 -2.1893 -0.1935  1.1472
18132TIP3   OH275886   0.259   2.823   0.456  0.1045 -0.1039  0.6352
18132TIP3    H175887   0.228   2.791   0.372  1.6702 -0.0514  0.0013
18132TIP3    H275888   0.350   2.796   0.460  0.1708  0.2445  2.1449
18133TIP3   OH275889   4.832   3.116  12.967  0.5516 -0.6440 -0.1496
18133TIP3    H175890   4.892   3.098  13.039 -0.3304 -0.7296  0.5732
18133TIP3    H275891   4.822   3.211  12.968  3.0298 -0.2519 -2.2131
18134TIP3   OH275892   5.943   2.564  11.253  0.9694  0.2924  0.0149
18134TIP3    H175893   6.010   2.623  11.287 -1.0876  1.8885  1.6662
18134TIP3    H275894   5.902   2.613  11.182  0.6122  0.0006  0.0156
18135TIP3   OH275895   1.316   6.611  15.472 -0.0698  0.7389  0.5156
18135TIP3    H175896   1.329   6.637  15.563 -0.7854  1.0391  0.5394
18135TIP3    H275897   1.404   6.587  15.441 -0.0607 -1.1602  1.8153
18136TIP3   OH275898   5.197   1.793  16.703  0.0232 -0.1744 -0.1572
18136TIP3    H175899   5.192   1.876  16.655  1.1964  0.8674  1.4296
18136TIP3    H275900   5.114   1.788  16.750 -0.1937 -0.0772 -0.5275
18137TIP3   OH275901   2.600   0.209   5.652 -0.0423 -0.0551 -0.2079
18137TIP3    H175902   2.547   0.155   5.712 -0.5747  1.0044  0.2980
18137TIP3    H275903   2.545   0.219   5.575  0.7869 -1.7204 -1.0681
18138TIP3   OH275904   4.580   4.890  13.310 -0.4131 -0.2300 -0.3411
18138TIP3    H175905   4.615   4.802  13.299  0.4082  0.2060 -1.4877
18138TIP3    H275906   4.616   4.939  13.236  0.4813  1.4896  1.1749
18139TIP3   OH275907   4.448   5.121   6.467  0.1172 -0.0911  0.0030
18139TIP3    H175908   4.399   5.102   6.386  1.4406 -2.0626 -0.3894
18139TIP3    H275909   4.422   5.211   6.489 -1.1090  0.1236 -2.0058
18140TIP3   OH275910   6.172   0.699   1.475  0.2874  0.8164  0.1392
18140TIP3    H175911   6.239   0.729   1.537 -1.6334  0.5075  2.4970
18140TIP3    H275912   6.107   0.656   1.530 -2.3360  1.9158 -1.9134
18141TIP3   OH275913   0.537   2.856   5.667  0.2786 -0.0412  0.0579
18141TIP3    H175914   0.529   2.949   5.684 -1.4627  0.3648 -2.4414
18141TIP3    H275915   0.476   2.815   5.728 -0.8525  0.7049 -0.5480
18142TIP3   OH275916   2.370   6.607   2.596  0.5541 -0.6042  0.2442
18142TIP3    H175917   2.426   6.545   2.643  0.6491 -0.3834  0.4233
18142TIP3    H275918   2.293   6.556   2.572  0.0315 -0.4567  1.5455
18143TIP3   OH275919   4.789   5.692  15.360 -0.4125 -0.1807  0.1911
18143TIP3    H175920   4.724   5.646  15.413 -0.9387  1.7617  1.3298
18143TIP3    H275921   4.738   5.757  15.311  0.3031 -0.7307 -1.3652
18144TIP3   OH275922   4.620   1.624   2.430  0.4658 -0.0549  0.1638
18144TIP3    H175923   4.694   1.684   2.430  1.7888 -1.6330  0.0700
18144TIP3    H275924   4.576   1.639   2.346  0.1017  1.5284  0.6042
18145TIP3   OH275925   4.235   0.130   2.669  0.2443  0.2139 -0.0347
18145TIP3    H175926   4.153   0.089   2.641  1.0722 -1.3289 -0.3479
18145TIP3    H275927   4.214   0.171   2.753 -0.8564 -0.1252 -0.1288
18146TIP3   OH275928   5.750   4.005   6.676 -0.5563 -0.1388 -0.0106
18146TIP3    H175929   5.836   4.048   6.672  0.0732 -1.3209 -4.4519
18146TIP3    H275930   5.696   4.054   6.614 -1.6801 -2.0896 -0.6280
18147TIP3   OH275931   1.919   5.039  10.750  0.5191 -0.1080  0.5848
18147TIP3    H175932   1.991   5.000  10.800  2.4939  0.3068 -1.7681
18147TIP3    H275933   1.888   4.968  10.693  0.3041  0.2079  0.3029
18148TIP3   OH275934   2.215   5.970   5.773 -0.6164  0.3305  0.5041
18148TIP3    H175935   2.253   5.904   5.832 -1.6219 -1.9994 -1.2865
18148TIP3    H275936   2.242   5.942   5.686 -0.1249  3.0246 -0.3004
18149TIP3   OH275937   5.561   5.640   4.339  0.0358  0.5148  0.2252
18149TIP3    H175938   5.612   5.670   4.414 -0.4894  0.5531  0.5675
18149TIP3    H275939   5.482   5.602   4.377  0.0271  0.0176 -0.2804
18150TIP3   OH275940   5.248   1.113   5.621 -0.0522  0.3129 -0.2499
18150TIP3    H175941   5.308   1.068   5.561  0.6671  2.2261 -1.0641
18150TIP3    H275942   5.293   1.109   5.706 -0.6273 -1.5834  0.0076
18151TIP3   OH275943   4.828   4.467  14.402 -0.1872 -0.2289  0.2615
18151TIP3    H175944   4.777   4.544  14.428  1.0607  0.5063  0.6247
18151TIP3    H275945   4.919   4.497  14.402  0.1145 -0.8476 -2.6601
18152TIP3   OH275946   4.276   6.307   1.198  0.4254 -0.9355 -0.2567
18152TIP3    H175947   4.244   6.219   1.218 -1.0000 -0.6825 -1.2268
18152TIP3    H275948   4.222   6.336   1.124  0.1128  1.1638  0.7061
18153TIP3   OH275949   0.134   5.326   1.496  0.2474  0.2835 -0.1555
18153TIP3    H175950   0.132   5.259   1.565  1.1685  0.0538 -0.3363
18153TIP3    H275951   0.159   5.278   1.417  0.1855  0.7156 -0.4393
18154TIP3   OH275952   2.264   0.446  16.777 -0.0663  0.2474 -0.7351
18154TIP3    H175953   2.340   0.455  16.720  0.0932 -1.1180 -0.7496
18154TIP3    H275954   2.225   0.534  16.779  1.3835  0.9145 -0.8863
18155TIP3   OH275955   0.160   2.177  12.101  0.3570 -0.1009  0.4137
18155TIP3    H175956   0.094   2.108  12.099 -1.4134  1.4389 -3.1846
18155TIP3    H275957   0.237   2.138  12.058  0.0061 -0.3917  0.0406
18156TIP3   OH275958   5.309   3.661   0.800 -0.1287  0.4289 -0.0144
18156TIP3    H175959   5.304   3.696   0.711 -0.0186 -1.4485 -0.7933
18156TIP3    H275960   5.321   3.739   0.855  0.6764  1.5568 -1.7009
18157TIP3   OH275961   4.686   3.455   3.634 -0.6146  0.3358  0.0526
18157TIP3    H175962   4.658   3.364   3.621  0.7279 -0.3133  1.5232
18157TIP3    H275963   4.765   3.463   3.581 -2.0146  1.4155 -2.0198
18158TIP3   OH275964   1.237   3.684   4.466 -0.5413 -0.8480 -0.1077
18158TIP3    H175965   1.210   3.755   4.523  0.5970 -0.9540  0.5869
18158TIP3    H275966   1.201   3.605   4.508 -2.7622 -0.6420 -1.4623
18159TIP3   OH275967   1.231   4.238  15.979  0.1040 -0.3580  0.0757
18159TIP3    H175968   1.201   4.150  15.999  0.7121 -0.6104 -0.0749
18159TIP3    H275969   1.313   4.247  16.028  0.2810 -0.0474 -0.2687
18160TIP3   OH275970   1.159   3.112   1.471  0.0433 -0.5195  0.3034
18160TIP3    H175971   1.214   3.180   1.433  0.9560 -0.1424  2.1793
18160TIP3    H275972   1.196   3.097   1.558 -2.1594 -1.0602  1.2210
18161TIP3   OH275973   0.421   3.845  13.963 -0.6047  0.0406 -0.1193
18161TIP3    H175974   0.474   3.876  14.037  1.0868 -2.1345 -0.3076
18161TIP3    H275975   0.344   3.901  13.963 -0.0383  0.9495  2.5027
18162TIP3   OH275976   6.443   2.787   2.277  0.4885 -0.1742 -0.1769
18162TIP3    H175977   6.478   2.780   2.365 -0.2105 -1.8397  0.0057
18162TIP3    H275978   6.353   2.817   2.288  0.5636  0.1282 -0.3639
18163TIP3   OH275979   5.402   1.838   2.146 -0.3159 -0.1604 -0.5988
18163TIP3    H175980   5.392   1.791   2.064 -1.8292  0.2858 -0.6979
18163TIP3    H275981   5.358   1.922   2.131 -0.1867  0.1177  0.5036
18164TIP3   OH275982   3.775   0.961  14.787 -0.1442  0.1005  0.1266
18164TIP3    H175983   3.691   0.965  14.832  0.6476 -0.6374  1.7562
18164TIP3    H275984   3.810   0.875  14.809  0.3190 -0.3066 -1.9420
18165TIP3   OH275985   3.372   1.019  11.253  0.1232  0.4895 -0.6862
18165TIP3    H175986   3.280   0.994  11.255  0.1854  0.2761 -0.2545
18165TIP3    H275987   3.375   1.104  11.297  0.4263 -0.5605  1.4769
18166TIP3   OH275988   0.323   0.493  16.359 -0.4266  0.7802 -0.0742
18166TIP3    H175989   0.408   0.511  16.320 -0.7845 -0.8613 -1.7092
18166TIP3    H275990   0.336   0.507  16.453  1.5605  0.7934 -0.3237
18167TIP3   OH275991   5.062   6.349  16.104 -0.3673  0.0851 -0.4177
18167TIP3    H175992   5.010   6.360  16.183 -1.2988  0.5278 -1.0616
18167TIP3    H275993   5.006   6.295  16.047 -0.5652  1.3778 -1.5028
18168TIP3   OH275994   6.789   1.308   4.738 -0.3072 -0.0411 -0.6229
18168TIP3    H175995   6.731   1.233   4.753  2.5822 -2.1776  0.9916
18168TIP3    H275996   6.806   1.342   4.826 -0.1501  1.4180 -1.1934
18169TIP3   OH275997   2.696   6.498   1.050  0.2109  0.0911 -0.3945
18169TIP3    H175998   2.781   6.536   1.026 -0.8312  0.7955 -3.3984
18169TIP3    H275999   2.709   6.404   1.043  0.8664  0.1822 -0.4601
18170TIP3   OH276000   2.479   2.501   5.527 -0.2287 -0.3579 -0.3257
18170TIP3    H176001   2.451   2.444   5.599  0.4465 -0.7918 -0.4049
18170TIP3    H276002   2.425   2.475   5.453  0.5721 -1.3994 -0.5583
18171TIP3   OH276003   0.433   5.402  16.481  0.0497 -0.1628  0.0737
18171TIP3    H176004   0.518   5.445  16.472  0.0739  0.6121  2.8580
18171TIP3    H276005   0.379   5.466  16.527 -1.4480 -1.3386  0.0198
18172TIP3   OH276006   6.585   3.540   3.110  0.7863 -0.2978  0.1031
18172TIP3    H176007   6.574   3.635   3.117 -0.2327 -0.3177 -0.9200
18172TIP3    H276008   6.500   3.508   3.081  0.5201 -1.7725  2.2645
18173TIP3   OH276009   4.913   1.210   4.382  0.2692 -0.0681  0.0232
18173TIP3    H176010   4.898   1.115   4.383  0.5994 -0.1471 -1.2974
18173TIP3    H276011   4.922   1.233   4.475 -2.4572 -0.8942  0.5964
18174TIP3   OH276012   5.286   3.777  11.673  0.2824  0.1198 -0.1800
18174TIP3    H176013   5.348   3.710  11.702  1.0342  1.7962  2.4648
18174TIP3    H276014   5.334   3.859  11.683 -1.4716  1.2581 -0.7461
18175TIP3   OH276015   4.860   4.364  13.951 -0.4214 -0.1408 -0.7874
18175TIP3    H176016   4.835   4.404  13.867 -1.8237 -0.7439 -0.6875
18175TIP3    H276017   4.779   4.325  13.983  0.5029 -1.4756 -0.0029
18176TIP3   OH276018   5.803   3.267  15.970 -0.0680  0.6506 -0.3354
18176TIP3    H176019   5.842   3.349  15.939  0.2393 -1.1062 -5.4701
18176TIP3    H276020   5.876   3.205  15.971 -0.7510 -0.1865  1.0806
18177TIP3   OH276021   1.454   6.759   6.094  0.8208  0.3204  0.3665
18177TIP3    H176022   1.493   6.754   6.182  0.5110 -0.5609  0.4622
18177TIP3    H276023   1.455   6.853   6.073  1.0171  0.5314  1.2586
18178TIP3   OH276024   4.254   4.472   2.133 -0.1432  0.2066 -0.1477
18178TIP3    H176025   4.180   4.530   2.115  0.2915  0.2652 -1.9518
18178TIP3    H276026   4.216   4.396   2.177 -0.8269  1.4987  1.5842
18179TIP3   OH276027   0.213   0.172  12.065 -0.6471 -0.1078  0.4096
18179TIP3    H176028   0.137   0.119  12.086 -0.4566 -0.1181  1.1279
18179TIP3    H276029   0.232   0.153  11.974 -2.4700  1.1130 -0.2714
18180TIP3   OH276030   0.750   5.016   3.883 -0.2935 -0.3528  0.1307
18180TIP3    H176031   0.689   5.090   3.876 -0.6839 -0.8041 -1.6260
18180TIP3    H276032   0.824   5.052   3.933 -0.3845  1.3132 -0.8351
18181TIP3   OH276033   6.416   6.588   3.591 -0.2729 -0.1529  0.3654
18181TIP3    H176034   6.496   6.549   3.628  0.3662  0.5180 -0.2793
18181TIP3    H276035   6.432   6.682   3.593 -0.6209 -0.0592 -0.7308
18182TIP3   OH276036   6.648   3.059   5.278  0.0782 -0.1916 -0.0547
18182TIP3    H176037   6.662   2.964   5.282 -0.1621 -0.1906  1.2763
18182TIP3    H276038   6.612   3.081   5.364 -0.1885  1.0610 -0.4740
18183TIP3   OH276039   5.094   2.431   5.701 -0.1155  0.0498 -0.1404
18183TIP3    H176040   5.063   2.423   5.792 -1.3537 -0.5075 -0.5926
18183TIP3    H276041   5.137   2.348   5.684 -0.5403 -0.1406 -0.2971
18184TIP3   OH276042   4.093   3.264   1.994  0.0684  0.7929  0.4716
18184TIP3    H176043   4.097   3.359   1.993 -2.0597  0.9508  1.4382
18184TIP3    H276044   4.050   3.242   2.076  0.6170 -1.0176  0.3291
18185TIP3   OH276045   5.751   2.095  15.489  0.0908  0.2268 -1.0765
18185TIP3    H176046   5.830   2.072  15.441  0.8291  0.8095 -0.1768
18185TIP3    H276047   5.755   2.040  15.568  1.6742  2.9879  0.9182
18186TIP3   OH276048   4.420   1.970  15.503  0.1594  0.1954  0.1213
18186TIP3    H176049   4.383   2.047  15.459  0.2268  0.4794  0.5456
18186TIP3    H276050   4.364   1.958  15.580  0.1968 -0.1365  0.0969
18187TIP3   OH276051   4.593   3.705  12.073 -0.3480  0.1607 -0.3415
18187TIP3    H176052   4.589   3.679  11.980 -1.6246  1.8258 -0.8035
18187TIP3    H276053   4.508   3.678  12.108  0.4222 -1.1577  0.5823
18188TIP3   OH276054   4.925   1.889   4.064 -0.4551  0.0613  0.3607
18188TIP3    H176055   4.862   1.944   4.018 -0.2141  0.2305  0.2282
18188TIP3    H276056   4.906   1.801   4.033 -0.2107  0.1899 -0.1673
18189TIP3   OH276057   1.026   3.500   6.177  0.0143 -0.1679  0.0134
18189TIP3    H176058   0.990   3.428   6.230  0.6272 -0.7277 -0.3188
18189TIP3    H276059   1.054   3.565   6.242  0.4411 -0.6993  0.3748
18190TIP3   OH276060   4.544   4.361  17.190  0.2517  0.6507 -0.6918
18190TIP3    H176061   4.577   4.303  17.121  1.2564  0.6774 -0.2488
18190TIP3    H276062   4.589   4.444  17.175 -0.0102  0.8526 -0.3794
18191TIP3   OH276063   6.229   6.019   5.135 -0.2909 -0.0046 -0.4041
18191TIP3    H176064   6.279   6.067   5.201  2.3077  0.7957 -2.7308
18191TIP3    H276065   6.154   6.075   5.116  1.2267  1.9392 -1.0978
18192TIP3   OH276066   1.107   1.027  10.923 -0.5970 -0.1119  0.0901
18192TIP3    H176067   1.116   1.019  11.018 -3.0863  1.4571  0.5431
18192TIP3    H276068   1.076   0.942  10.894  1.3780 -1.0046  0.4473
18193TIP3   OH276069   3.743   1.269  15.413 -0.3101 -0.9572 -0.1841
18193TIP3    H176070   3.665   1.218  15.393 -0.5035 -0.5797 -0.4026
18193TIP3    H276071   3.810   1.203  15.432 -1.5020 -1.3616  3.4631
18194TIP3   OH276072   5.992   1.230   5.817  0.0381  0.2171  0.1009
18194TIP3    H176073   5.992   1.186   5.732 -1.4341 -0.5053  0.4507
18194TIP3    H276074   5.902   1.261   5.828  0.4793  1.2714  0.9181
18195TIP3   OH276075   2.145   5.697   2.277  1.1943  0.6172  0.2767
18195TIP3    H176076   2.132   5.765   2.211  1.5445  1.7698  1.3530
18195TIP3    H276077   2.227   5.654   2.253  0.8818  0.4516 -0.5076
18196TIP3   OH276078   1.962   2.294  16.147 -0.1755 -0.9185  0.2544
18196TIP3    H176079   1.976   2.202  16.126 -0.3581 -1.5574  2.6664
18196TIP3    H276080   1.880   2.296  16.195 -0.8875  0.7370 -0.9338
18197TIP3   OH276081   2.308   5.067   0.198  0.4121 -0.2147 -0.1821
18197TIP3    H176082   2.389   5.107   0.166 -0.2515  0.5207 -0.9807
18197TIP3    H276083   2.329   4.974   0.207  1.1507 -0.1391 -1.0316
18198TIP3   OH276084   2.529   6.527  14.127 -0.2930  0.0358  0.0625
18198TIP3    H176085   2.539   6.607  14.179  0.8858  1.1881 -1.8055
18198TIP3    H276086   2.545   6.555  14.036 -1.6304 -1.9894 -0.8900
18199TIP3   OH276087   2.947   2.295   4.196  0.6626 -0.1718 -0.1408
18199TIP3    H176088   2.993   2.222   4.155 -0.6576 -1.4121  0.4923
18199TIP3    H276089   2.987   2.304   4.282 -0.9184 -1.9943  0.8588
18200TIP3   OH276090   1.986   3.797  13.569  0.6122  0.4016 -0.5611
18200TIP3    H176091   2.025   3.867  13.622 -0.8655  1.8434 -1.3137
18200TIP3    H276092   1.907   3.771  13.617  0.8563 -0.3875 -0.5675
18201TIP3   OH276093   2.475   4.807   3.420  0.5091 -0.0244 -0.3801
18201TIP3    H176094   2.438   4.895   3.422  1.3407  0.3089  0.3063
18201TIP3    H276095   2.449   4.773   3.334 -0.8588  0.4217 -0.1798
18202TIP3   OH276096   1.090   5.074   3.418  0.2568  0.2191 -0.5108
18202TIP3    H176097   1.045   5.054   3.336 -0.9902  1.4526 -0.1509
18202TIP3    H276098   1.020   5.085   3.482  1.1873 -0.0991  0.5962
18203TIP3   OH276099   1.947   5.781   5.198 -0.2506 -0.7727  0.2603
18203TIP3    H176100   1.882   5.729   5.245 -0.7655 -0.4996 -0.1348
18203TIP3    H276101   1.957   5.860   5.250 -0.3347 -0.7583  0.2550
18204TIP3   OH276102   5.122   5.680  16.746  0.7187 -0.6195  0.0744
18204TIP3    H176103   5.212   5.658  16.724  2.3911  2.9031  2.3887
18204TIP3    H276104   5.094   5.741  16.677  0.4742 -0.8792 -0.0603
18205TIP3   OH276105   0.372   1.829   0.280 -0.1028  0.4212  0.1445
18205TIP3    H176106   0.368   1.800   0.189  0.0822 -0.4012  0.3906
18205TIP3    H276107   0.362   1.924   0.275  1.2527  0.5368 -0.8321
18206TIP3   OH276108   6.576   6.745  15.368 -0.5025  0.0035 -0.3313
18206TIP3    H176109   6.551   6.670  15.422 -2.6218 -0.0580 -1.3053
18206TIP3    H276110   6.629   6.799  15.427  1.2383 -2.2839  0.3384
18207TIP3   OH276111   1.966   2.408   5.600  0.1114 -0.2452  0.1603
18207TIP3    H176112   1.900   2.441   5.661 -0.4807 -0.2314 -0.4723
18207TIP3    H276113   1.926   2.332   5.559  1.1940 -1.3610  1.0772
18208TIP3   OH276114   0.084   3.826  12.940 -0.0395  0.0220 -0.6890
18208TIP3    H176115   0.077   3.873  13.023 -0.0828  0.2739 -0.8310
18208TIP3    H276116   0.043   3.885  12.876 -2.2575 -1.2236 -0.4995
18209TIP3   OH276117   1.694   0.750   6.258 -0.2412  0.2372  0.3363
18209TIP3    H176118   1.769   0.793   6.216 -1.8379  0.5362 -2.4544
18209TIP3    H276119   1.654   0.819   6.311 -0.1194  0.8941 -0.4017
18210TIP3   OH276120   0.754   0.361   3.922  0.4353  0.6680  0.4589
18210TIP3    H176121   0.801   0.278   3.915  1.1665  1.0934  0.1751
18210TIP3    H276122   0.819   0.423   3.956 -0.1301  1.0996  0.7673
18211TIP3   OH276123   4.433   3.890  14.556 -0.1522 -0.2313  0.2338
18211TIP3    H176124   4.423   3.816  14.496  0.0116 -1.1249  1.2757
18211TIP3    H276125   4.345   3.906  14.589 -0.5375  1.2685 -1.3423
18212TIP3   OH276126   2.095   1.882  15.170  0.3980  0.5807 -0.0187
18212TIP3    H176127   2.099   1.969  15.129  2.3374  0.4623 -0.1742
18212TIP3    H276128   2.048   1.897  15.252 -0.5079  1.4899 -0.6699
18213TIP3   OH276129   2.303   4.032  15.519  0.0915  0.1172  0.2337
18213TIP3    H176130   2.334   4.101  15.460  0.2394  0.1456  0.3432
18213TIP3    H276131   2.220   4.066  15.553 -1.4311 -1.0747 -2.0648
18214TIP3   OH276132   4.358   0.891  11.771 -0.3274  0.0075  0.2154
18214TIP3    H176133   4.425   0.847  11.717 -0.3796 -0.2928  0.3971
18214TIP3    H276134   4.368   0.852  11.858 -0.8235 -0.1243  0.2124
18215TIP3   OH276135   6.209   0.786   1.226  0.6094 -0.2879  0.4024
18215TIP3    H176136   6.120   0.753   1.214 -0.1984  1.6421  0.7152
18215TIP3    H276137   6.220   0.790   1.321 -1.1292  4.5635  0.6478
18216TIP3   OH276138   4.862   2.060  12.511  0.4486  0.2574  0.1058
18216TIP3    H176139   4.876   2.098  12.424 -1.1811 -2.3902 -1.4321
18216TIP3    H276140   4.886   1.967  12.501 -1.7938 -0.6005  1.8775
18217TIP3   OH276141   5.502   4.364  15.794  0.7294 -0.1362 -0.5934
18217TIP3    H176142   5.432   4.320  15.843  0.3457  1.1974  0.1187
18217TIP3    H276143   5.517   4.308  15.718 -1.2437 -0.3859 -0.8549
18218TIP3   OH276144   6.071   3.882   0.006  0.3317  0.1307 -0.0809
18218TIP3    H176145   6.002   3.921   0.060  0.2860 -0.9681  0.6907
18218TIP3    H276146   6.074   3.790   0.034  0.8173 -0.2885 -1.4416
18219TIP3   OH276147   3.717   0.574  15.446 -0.5062  0.4567  0.2262
18219TIP3    H176148   3.726   0.669  15.449 -0.2534  0.4089  1.2085
18219TIP3    H276149   3.622   0.559  15.448 -0.5506  0.6848 -0.0563
18220TIP3   OH276150   0.024   4.051   6.926  0.0305  0.3592 -0.0308
18220TIP3    H176151   0.113   4.022   6.944  0.5791  2.6590  1.3895
18220TIP3    H276152   0.021   4.060   6.830  0.3642 -2.4206 -0.3665
18221TIP3   OH276153   2.442   1.273   3.723  0.4950 -0.0930  0.4307
18221TIP3    H176154   2.502   1.328   3.672  1.0249  0.0727  1.2207
18221TIP3    H276155   2.490   1.253   3.803 -0.8720  0.9140  1.5598
18222TIP3   OH276156   6.023   0.733  12.807  0.1904  0.3510 -0.0651
18222TIP3    H176157   5.949   0.777  12.765 -0.1496 -1.1060 -1.0749
18222TIP3    H276158   6.096   0.746  12.747  0.0366 -0.5841 -0.4815
18223TIP3   OH276159   3.455   2.606  16.299  0.6873  0.0162 -0.4030
18223TIP3    H176160   3.458   2.673  16.367  0.2913 -0.1317 -0.2347
18223TIP3    H276161   3.431   2.653  16.220 -1.5855 -0.1957  0.1009
18224TIP3   OH276162   3.273   4.986  16.192  0.0496 -0.2137 -0.1842
18224TIP3    H176163   3.303   4.896  16.202  1.8685  0.2496 -1.0371
18224TIP3    H276164   3.341   5.039  16.233 -0.6872  0.8184 -0.2442
18225TIP3   OH276165   1.298   2.807   3.570  0.4618 -0.4893 -0.2070
18225TIP3    H176166   1.328   2.818   3.660  0.7429 -0.5548 -0.2922
18225TIP3    H276167   1.252   2.889   3.550  1.6096  0.1054 -0.4738
18226TIP3   OH276168   3.432   0.457   0.962  0.4388 -0.1288  0.3151
18226TIP3    H176169   3.436   0.435   1.056 -1.1846 -0.5091  0.3317
18226TIP3    H276170   3.421   0.552   0.960  1.6422  0.0281  0.4522
18227TIP3   OH276171   2.918   5.122   5.090 -0.8033  0.3104 -0.5414
18227TIP3    H176172   2.890   5.072   5.014 -2.0475 -1.5250  1.0374
18227TIP3    H276173   2.842   5.123   5.148  0.5935  0.1688  1.4108
18228TIP3   OH276174   6.048   4.878  12.178  0.3855 -0.1588 -0.8096
18228TIP3    H176175   6.133   4.895  12.138  2.1371 -0.4027  2.4769
18228TIP3    H276176   6.064   4.805  12.238 -1.8206  0.5548  0.7813
18229TIP3   OH276177   3.563   4.293  14.490 -0.2702  0.0716  0.0294
18229TIP3    H176178   3.573   4.310  14.584 -2.1143 -0.1666  0.3189
18229TIP3    H276179   3.598   4.371  14.447  3.1168 -0.8988  0.7272
18230TIP3   OH276180   5.367   2.797  16.236  0.0924 -0.1054  0.2061
18230TIP3    H176181   5.298   2.851  16.273  1.9481  2.7961 -0.2709
18230TIP3    H276182   5.324   2.746  16.168 -1.4610  2.3761 -0.7984
18231TIP3   OH276183   4.119   3.875  16.633 -0.1237  0.3024  0.9037
18231TIP3    H176184   4.191   3.812  16.634 -0.9904 -0.7295  0.3015
18231TIP3    H276185   4.162   3.960  16.642  1.3340 -0.1346 -1.1449
18232TIP3   OH276186   6.477   3.902  12.276 -0.4640 -0.5964  0.0019
18232TIP3    H176187   6.388   3.902  12.312 -0.4044 -1.5218  0.1778
18232TIP3    H276188   6.497   3.995  12.261 -0.7191 -0.2046  1.8105
18233TIP3   OH276189   4.544   2.713   0.654 -0.2111  0.1027 -0.5366
18233TIP3    H176190   4.613   2.656   0.620  0.3639  1.4087 -1.6423
18233TIP3    H276191   4.534   2.781   0.588  0.2356  2.1959  1.4211
18234TIP3   OH276192   4.745   2.689  17.254  0.4865 -0.3324 -0.1945
18234TIP3    H176193   4.761   2.607  17.208  0.2610  0.1692 -1.1883
18234TIP3    H276194   4.728   2.753  17.185 -0.8284  0.2337  0.6223
18235TIP3   OH276195   4.257   1.495   4.355 -0.0951 -0.4818  0.3926
18235TIP3    H176196   4.313   1.562   4.395  1.6456 -0.9103 -1.1722
18235TIP3    H276197   4.208   1.542   4.288  1.4691 -0.7621 -1.0266
18236TIP3   OH276198   0.421   1.093   2.911  0.3443  0.0466  0.8815
18236TIP3    H176199   0.464   1.174   2.940  1.7635 -0.2101 -0.3585
18236TIP3    H276200   0.333   1.098   2.947  0.0042  2.7294 -0.1098
18237TIP3   OH276201   6.705   4.361   0.695 -0.2484  0.4022 -0.0330
18237TIP3    H176202   6.623   4.352   0.743  0.1359 -0.2169  0.5289
18237TIP3    H276203   6.768   4.392   0.760  0.4077 -0.9647  0.0220
18238TIP3   OH276204   6.373   3.905   2.679  0.7007  0.0282 -0.1634
18238TIP3    H176205   6.332   3.818   2.674 -2.6477  1.4296  0.3915
18238TIP3    H276206   6.409   3.919   2.591 -0.7548 -1.0155 -0.9726
18239TIP3   OH276207   4.591   0.520   1.074  0.5137  0.1230  0.0159
18239TIP3    H176208   4.595   0.490   0.983 -1.9175 -1.3783  0.3199
18239TIP3    H276209   4.500   0.505   1.100  1.4012 -0.6200  3.0651
18240TIP3   OH276210   3.015   1.706  14.594  0.4462  0.2313 -0.2051
18240TIP3    H176211   2.999   1.635  14.656 -4.0223 -1.4040 -2.7527
18240TIP3    H276212   2.938   1.707  14.538  0.1510  7.0999 -0.5794
18241TIP3   OH276213   4.394   2.343   4.234  0.3325 -0.1100 -0.1124
18241TIP3    H176214   4.451   2.338   4.157 -1.6867  2.2134 -1.9041
18241TIP3    H276215   4.327   2.276   4.218  0.8762 -0.8319  0.5480
18242TIP3   OH276216   4.080   5.508  13.132 -0.3461 -0.3967  0.2237
18242TIP3    H176217   4.110   5.475  13.217  1.0929  0.2246 -0.0161
18242TIP3    H276218   4.133   5.460  13.068 -1.1579 -0.5920 -0.3206
18243TIP3   OH276219   3.259   1.080  16.409  0.3696 -0.3560  0.2774
18243TIP3    H176220   3.206   1.155  16.382  1.0473 -0.2068 -0.7246
18243TIP3    H276221   3.335   1.118  16.452 -0.2246 -0.5604  1.5416
18244TIP3   OH276222   2.714   6.625  11.753 -0.2471  0.3123  0.7280
18244TIP3    H176223   2.682   6.553  11.808 -0.1887  0.3304  0.7863
18244TIP3    H276224   2.635   6.671  11.725 -0.3318 -0.1875  0.1177
18245TIP3   OH276225   5.030   3.655  11.676  0.0986  0.3785  0.3007
18245TIP3    H176226   5.001   3.644  11.766 -1.4675  0.6765 -0.1310
18245TIP3    H276227   5.122   3.682  11.682  0.8827 -2.3030  1.7104
18246TIP3   OH276228   5.725   1.618  12.018 -0.0469 -0.3676  0.1316
18246TIP3    H176229   5.802   1.654  11.974  0.0853  0.8511  1.3033
18246TIP3    H276230   5.651   1.646  11.963  0.0822  1.4862  0.8191
18247TIP3   OH276231   2.418   2.785  13.299 -0.0952 -0.3470  0.0098
18247TIP3    H176232   2.498   2.756  13.255 -0.6410 -0.4257 -0.9686
18247TIP3    H276233   2.439   2.872  13.332 -0.1902  0.5090 -1.9933
18248TIP3   OH276234   2.491   6.059  12.041  0.0722 -0.2919  0.0565
18248TIP3    H176235   2.587   6.061  12.045  0.1521  0.5514 -1.5068
18248TIP3    H276236   2.465   6.017  12.122  1.7139  0.7777  1.2072
18249TIP3   OH276237   6.766   0.827  12.059  0.5072 -0.7135 -0.1822
18249TIP3    H176238   6.735   0.910  12.021  0.2133 -0.1894  1.1516
18249TIP3    H276239   6.849   0.810  12.014  0.8254  0.5855 -0.1278
18250TIP3   OH276240   6.458   4.019   5.146  0.4234 -0.0551 -0.2318
18250TIP3    H176241   6.454   4.075   5.069 -0.0158 -0.2199 -0.3348
18250TIP3    H276242   6.522   3.952   5.124  0.1704 -0.2021 -0.5244
18251TIP3   OH276243   5.565   1.522  14.448 -0.3061 -0.2114  0.1806
18251TIP3    H176244   5.482   1.490  14.412 -0.5161  1.2030 -0.6571
18251TIP3    H276245   5.628   1.512  14.376  0.1502 -0.8067  0.6503
18252TIP3   OH276246   0.795   4.016  16.758 -0.5308 -0.6614  0.0892
18252TIP3    H176247   0.744   3.988  16.683 -2.4478  1.4344  0.5280
18252TIP3    H276248   0.767   3.958  16.829 -0.8133 -0.8002 -0.1354
18253TIP3   OH276249   1.836   2.773   1.784 -0.6758  0.8127  0.1269
18253TIP3    H176250   1.824   2.842   1.720  0.7929 -0.1280 -1.2404
18253TIP3    H276251   1.913   2.800   1.834 -1.3410  1.1520  0.9915
18254TIP3   OH276252   6.679   2.861   3.545 -0.1532  0.1568 -0.2400
18254TIP3    H176253   6.709   2.951   3.534 -1.4688  0.4982 -1.3042
18254TIP3    H276254   6.650   2.855   3.635  1.0335  0.4315  0.1829
18255TIP3   OH276255   5.034   1.482   0.862 -0.3652  0.0108  0.0325
18255TIP3    H176256   4.996   1.515   0.944  0.4165  0.6154  0.1599
18255TIP3    H276257   4.991   1.533   0.794  0.6265  1.1200  0.2120
18256TIP3   OH276258   5.214   2.047  16.592 -0.0785  0.3100 -0.0291
18256TIP3    H176259   5.241   2.097  16.515  3.1779  1.1459  1.4823
18256TIP3    H276260   5.204   2.112  16.662  0.3729 -0.7423  1.0567
18257TIP3   OH276261   4.985   0.148   2.709  0.1726  0.0217  0.0626
18257TIP3    H176262   5.003   0.145   2.615  1.2608  0.4768  0.2467
18257TIP3    H276263   5.063   0.111   2.750 -0.3461 -0.2855  0.7876
18258TIP3   OH276264   3.588   3.277   0.221 -0.1193 -0.1068  0.3225
18258TIP3    H176265   3.583   3.338   0.294 -0.2488  0.9493 -0.5322
18258TIP3    H276266   3.553   3.326   0.147  2.1627 -0.2756 -0.9819
18259TIP3   OH276267   6.117   4.804   4.319  0.0298  0.5967  0.7537
18259TIP3    H176268   6.212   4.805   4.331 -0.0868  1.0209  1.6618
18259TIP3    H276269   6.082   4.847   4.396 -1.0359 -1.8504  1.7562
18260TIP3   OH276270   2.052   2.978  15.421 -0.1662 -0.2820 -0.0275
18260TIP3    H176271   2.084   2.892  15.393 -0.2978 -1.0020  1.9254
18260TIP3    H276272   2.111   3.003  15.492 -1.6219  0.0992  1.0842
18261TIP3   OH276273   5.463   4.266  16.897  0.0387  0.0138 -0.1226
18261TIP3    H176274   5.454   4.176  16.867  2.2951 -0.1143 -0.5302
18261TIP3    H276275   5.474   4.259  16.992  0.5995 -0.1838 -0.1995
18262TIP3   OH276276   3.184   2.642   4.754  0.0044  0.4039 -0.0555
18262TIP3    H176277   3.246   2.660   4.683  1.1324 -0.9854  0.5351
18262TIP3    H276278   3.239   2.633   4.832 -1.1827  1.4745  0.9545
18263TIP3   OH276279   6.305   6.807  12.675  0.4770 -0.2559 -0.1715
18263TIP3    H176280   6.399   6.812  12.693  0.4042  1.0497 -0.0061
18263TIP3    H276281   6.265   6.781  12.758  0.6551 -0.2405 -0.0807
18264TIP3   OH276282   0.848   1.835  15.139 -0.0457 -0.4128  0.4855
18264TIP3    H176283   0.841   1.798  15.051 -2.1847  0.4924  0.1970
18264TIP3    H276284   0.920   1.897  15.133 -0.3408 -0.1472 -0.7451
18265TIP3   OH276285   0.938   4.111  17.136 -0.0698 -0.6770 -0.1776
18265TIP3    H176286   1.026   4.082  17.158  0.7316  2.6596  1.7803
18265TIP3    H276287   0.945   4.145  17.047  1.0611  0.8482  0.4609
18266TIP3   OH276288   2.771   2.280  15.911  0.1534  0.0764  0.6058
18266TIP3    H176289   2.754   2.189  15.885  1.0012  0.0224  0.2240
18266TIP3    H276290   2.824   2.272  15.991  0.1381  0.2396  0.6330
18267TIP3   OH276291   1.636   5.185  12.009 -0.2578 -0.1898  0.2266
18267TIP3    H176292   1.662   5.098  12.040 -3.2140 -2.0106 -1.9862
18267TIP3    H276293   1.563   5.210  12.066 -1.2497 -0.4821 -0.8819
18268TIP3   OH276294   2.656   6.414  16.107  0.3157 -0.1574 -0.1002
18268TIP3    H176295   2.705   6.481  16.060 -0.1487  0.4443  0.2496
18268TIP3    H276296   2.694   6.413  16.194  1.0583 -1.1477 -0.4199
18269TIP3   OH276297   2.796   4.465  14.745  0.1089  0.0992  0.0805
18269TIP3    H176298   2.821   4.445  14.654  0.8254  1.8896 -0.1608
18269TIP3    H276299   2.816   4.385  14.793  0.5423 -0.5941 -1.1876
18270TIP3   OH276300   2.620   1.659   1.121 -0.6690  0.0930  0.3056
18270TIP3    H176301   2.525   1.663   1.131 -0.5224  0.7703  1.6581
18270TIP3    H276302   2.654   1.721   1.186  0.7586 -1.5251  1.1912
18271TIP3   OH276303   5.663   1.763  14.832  0.1686 -0.0487 -0.6847
18271TIP3    H176304   5.651   1.671  14.807 -0.3976 -0.7526  1.8983
18271TIP3    H276305   5.758   1.774  14.837  0.2355 -0.7526 -0.2197
18272TIP3   OH276306   2.971   5.214   4.146  0.3217 -0.0321  0.3685
18272TIP3    H176307   3.063   5.190   4.136  0.0222 -1.6817  1.1772
18272TIP3    H276308   2.970   5.284   4.211  1.0372  0.4673 -0.1451
18273TIP3   OH276309   3.765   6.621  11.905  0.5493 -0.6833 -0.2070
18273TIP3    H176310   3.758   6.610  11.810  0.4043 -2.8511 -0.0028
18273TIP3    H276311   3.688   6.577  11.940  0.6281  0.0408  0.9195
18274TIP3   OH276312   1.492   5.903  12.749 -0.5317  0.0563  0.1291
18274TIP3    H176313   1.423   5.911  12.683 -2.2449 -0.3255  1.8112
18274TIP3    H276314   1.476   5.818  12.790  0.5042  0.2907  1.0456
18275TIP3   OH276315   4.852   0.522  12.452  0.3974 -0.2599 -0.1477
18275TIP3    H176316   4.837   0.523  12.357 -0.1894  0.7934 -0.0652
18275TIP3    H276317   4.783   0.578  12.487  1.5922  0.6962  0.7596
18276TIP3   OH276318   3.544   6.101   3.112  0.0316  0.2221  0.2633
18276TIP3    H176319   3.512   6.066   3.029  1.1640 -1.6692  0.5635
18276TIP3    H276320   3.622   6.152   3.088 -0.1082  0.3450  0.0726
18277TIP3   OH276321   1.441   6.430   4.943 -0.0453  0.2186  0.0857
18277TIP3    H176322   1.373   6.375   4.980 -0.9922  0.2499 -1.5283
18277TIP3    H276323   1.437   6.414   4.849  0.3726  2.2176 -0.3287
18278TIP3   OH276324   4.242   2.845  10.502 -0.0145 -0.7965 -0.5966
18278TIP3    H176325   4.231   2.820  10.593  0.7092  1.2109  0.1183
18278TIP3    H276326   4.315   2.791  10.470  0.1830 -1.0292  0.2376
18279TIP3   OH276327   3.812   2.302  16.878 -0.9518  0.2511 -0.4829
18279TIP3    H176328   3.856   2.217  16.873  0.3060  0.7527  1.0496
18279TIP3    H276329   3.813   2.335  16.789  1.1718 -0.1176 -0.6562
18280TIP3   OH276330   2.620   1.030   5.714 -0.2013 -0.0278 -0.0052
18280TIP3    H176331   2.664   1.101   5.668 -1.4376  1.1280  0.5287
18280TIP3    H276332   2.676   1.011   5.789 -0.2558  0.9390  0.2875
18281TIP3   OH276333   6.521   0.725  17.182 -0.2420  0.2136 -0.3826
18281TIP3    H176334   6.541   0.806  17.135 -2.3498  1.1440  0.2041
18281TIP3    H276335   6.430   0.705  17.159  0.4451 -2.4452 -1.0968
18282TIP3   OH276336   0.121   3.698   0.024 -0.2040  0.6398  0.1050
18282TIP3    H176337   0.182   3.760   0.063 -0.1416 -0.5957  2.0984
18282TIP3    H276338   0.113   3.628   0.088 -1.1053 -0.9043 -1.5830
18283TIP3   OH276339   3.734   3.276  16.713  0.5102  0.2407 -0.1835
18283TIP3    H176340   3.684   3.271  16.795 -1.0115 -0.0468 -1.0958
18283TIP3    H276341   3.717   3.193  16.669 -0.2535  1.1266 -1.6414
18284TIP3   OH276342   0.256   4.014   5.686 -0.5028  0.1003 -0.0146
18284TIP3    H176343   0.244   4.107   5.705 -0.8454  0.2219 -0.7914
18284TIP3    H276344   0.291   4.011   5.597 -2.9046 -0.5790 -1.0311
18285TIP3   OH276345   4.741   2.263  13.503  0.3775 -0.0692 -0.6423
18285TIP3    H176346   4.649   2.290  13.503  0.2956 -0.2595 -2.0482
18285TIP3    H276347   4.790   2.341  13.529 -0.1691  0.0979 -0.1081
18286TIP3   OH276348   6.327   3.805  10.520 -0.2932  0.5775  0.2181
18286TIP3    H176349   6.359   3.727  10.474 -2.0265 -0.0775  0.0181
18286TIP3    H276350   6.286   3.858  10.452  0.8547  1.6762  0.3610
18287TIP3   OH276351   3.005   2.554   4.123 -0.4355  0.5699  0.3758
18287TIP3    H176352   2.998   2.607   4.202 -0.0142  1.8337 -0.3974
18287TIP3    H276353   2.977   2.467   4.150  1.3767  0.5093  2.3411
18288TIP3   OH276354   4.706   1.846   2.728  0.1930  0.7682 -0.1455
18288TIP3    H176355   4.718   1.938   2.752 -0.8066  0.6477  0.9056
18288TIP3    H276356   4.783   1.802   2.762  0.3822  1.1181 -0.1156
18289TIP3   OH276357   3.379   1.984  16.402  0.9866  0.5682  0.2768
18289TIP3    H176358   3.373   2.019  16.490  0.9535  1.4888 -0.0752
18289TIP3    H276359   3.465   1.942  16.398  1.1802  0.9354  0.5957
18290TIP3   OH276360   4.161   2.920   0.501  0.4291 -0.2851  0.5125
18290TIP3    H176361   4.254   2.920   0.524  0.5050 -0.3026  0.2051
18290TIP3    H276362   4.116   2.911   0.585  0.7363 -1.5622  0.5685
18291TIP3   OH276363   4.238   5.512   4.835  0.1727 -0.0605  0.9968
18291TIP3    H176364   4.164   5.523   4.894 -1.1990 -0.1828 -0.6254
18291TIP3    H276365   4.216   5.435   4.782 -0.0316  1.6362 -1.5498
18292TIP3   OH276366   3.745   0.833  15.398 -0.1819 -0.1404  0.0078
18292TIP3    H176367   3.752   0.838  15.303 -1.9803 -1.5552 -0.2662
18292TIP3    H276368   3.684   0.903  15.421 -0.7724 -0.6212 -0.0615
18293TIP3   OH276369   0.555   4.565  11.856  0.0457  0.5931  0.2111
18293TIP3    H176370   0.634   4.611  11.886  1.4284 -1.2095 -0.4803
18293TIP3    H276371   0.532   4.508  11.929 -0.7032  1.1822  0.4471
18294TIP3   OH276372   1.642   6.124  13.668  0.4154 -0.4862  0.6671
18294TIP3    H176373   1.716   6.168  13.626 -0.2358  1.3124  1.3187
18294TIP3    H276374   1.678   6.041  13.699  1.8623 -0.1425 -0.0185
18295TIP3   OH276375   6.788   6.001   3.939  0.0826  0.0679  0.2372
18295TIP3    H176376   6.748   6.040   3.861 -0.1183 -0.8197 -0.1131
18295TIP3    H276377   6.882   6.003   3.921  0.6228  4.4334  2.0743
18296TIP3   OH276378   5.871   6.185  13.590  0.1423 -0.4060  0.6229
18296TIP3    H176379   5.868   6.119  13.659  0.2669 -1.4808 -0.3681
18296TIP3    H276380   5.962   6.213  13.587 -0.1039  0.5966  1.7365
18297TIP3   OH276381   3.823   3.775  12.966 -0.0057 -0.0279 -0.0081
18297TIP3    H176382   3.869   3.698  12.996  1.5047  0.9174  0.1977
18297TIP3    H276383   3.791   3.752  12.878  1.4753 -0.4990 -0.4524
18298TIP3   OH276384   6.225   2.978   5.720  0.5585 -0.1185 -0.1887
18298TIP3    H176385   6.249   3.023   5.801 -2.4879 -0.1609  0.8638
18298TIP3    H276386   6.275   2.896   5.722  0.7522  0.0051  1.5301
18299TIP3   OH276387   3.982   3.505  16.282  0.1033  0.2248 -0.1311
18299TIP3    H176388   3.930   3.469  16.210  0.9822 -2.3194  0.4113
18299TIP3    H276389   4.070   3.517  16.245  0.4033 -0.4903  0.3378
18300TIP3   OH276390   2.312   6.238  11.970 -0.5303  0.4123  0.6108
18300TIP3    H176391   2.241   6.184  11.937  0.1626 -0.3186  0.2835
18300TIP3    H276392   2.382   6.176  11.991  0.1237  1.1400  0.6362
18301TIP3   OH276393   2.791   0.178  12.862 -0.3053  0.1039 -0.1160
18301TIP3    H176394   2.806   0.121  12.787 -0.2157  1.4761 -1.1867
18301TIP3    H276395   2.806   0.122  12.939 -0.6324 -1.3867 -1.1043
18302TIP3   OH276396   3.001   5.436  14.247 -0.0437  0.4282 -0.1810
18302TIP3    H176397   2.929   5.479  14.294 -0.1388  0.2532 -0.1615
18302TIP3    H276398   3.009   5.484  14.165  0.3649  0.9664  0.1692
18303TIP3   OH276399   5.952   3.981  12.502  0.7171  0.1310 -0.0172
18303TIP3    H176400   5.928   4.069  12.474  1.0728 -0.2311 -1.5428
18303TIP3    H276401   5.911   3.971  12.588 -1.4549  0.8690 -0.9059
18304TIP3   OH276402   5.501   5.769  13.944 -0.0189  0.0842 -0.3802
18304TIP3    H176403   5.524   5.684  13.982  0.5898 -0.7182 -2.4302
18304TIP3    H276404   5.578   5.823  13.958  0.1488 -0.1563 -0.3711
18305TIP3   OH276405   1.466   6.753  14.409 -0.1040  0.5365 -0.1780
18305TIP3    H176406   1.533   6.744  14.477  1.2658  0.3440 -1.5069
18305TIP3    H276407   1.427   6.665  14.403  0.2354  0.3768 -0.1040
18306TIP3   OH276408   5.630   0.695   5.871  0.2716 -0.5218 -0.4392
18306TIP3    H176409   5.691   0.711   5.943  0.0834  0.9175 -0.5687
18306TIP3    H276410   5.668   0.622   5.823  1.6685  0.0744 -0.2751
18307TIP3   OH276411   2.315   5.145   1.911  0.0434  0.1380  0.0208
18307TIP3    H176412   2.340   5.061   1.949  0.4600 -1.6812 -3.8706
18307TIP3    H276413   2.275   5.193   1.984 -0.9351 -3.6636  2.2447
18308TIP3   OH276414   0.708   1.849  11.962  0.0791  0.1663  0.0152
18308TIP3    H176415   0.722   1.944  11.955  1.5409 -0.0702 -0.8277
18308TIP3    H276416   0.730   1.816  11.875  0.4854 -1.0430  0.5635
18309TIP3   OH276417   0.270   2.578  14.302  0.4675  0.3248  0.6247
18309TIP3    H176418   0.320   2.550  14.379 -0.0489 -1.9764  0.2114
18309TIP3    H276419   0.284   2.672  14.297  1.0608  0.4433  3.1343
18310TIP3   OH276420   3.166   2.977  16.543 -0.1073 -0.0518  0.6163
18310TIP3    H176421   3.082   3.009  16.576 -1.1446 -1.9420 -0.0403
18310TIP3    H276422   3.219   2.961  16.621 -0.5311  0.6969  1.0600
18311TIP3   OH276423   4.617   6.181  11.382 -0.3367 -0.6617 -0.4778
18311TIP3    H176424   4.711   6.162  11.375 -0.5394 -1.7317 -0.5266
18311TIP3    H276425   4.575   6.116  11.326 -1.0696  0.3857 -1.1893
18312TIP3   OH276426   4.681   6.413   4.441  0.2636 -0.3715  1.0538
18312TIP3    H176427   4.705   6.463   4.519  0.3665  2.1455 -0.4664
18312TIP3    H276428   4.761   6.413   4.388 -0.3217 -0.4222  0.1542
18313TIP3   OH276429   0.210   1.649   3.106 -0.1594 -0.3903 -0.2422
18313TIP3    H176430   0.152   1.633   3.031  0.5795  0.4834 -1.0136
18313TIP3    H276431   0.175   1.728   3.147 -1.4996 -1.7059  1.3023
18314TIP3   OH276432   3.705   6.347   1.902  0.7048 -0.0681  0.3669
18314TIP3    H176433   3.708   6.409   1.975  1.9024 -0.1732  0.4181
18314TIP3    H276434   3.697   6.261   1.944  2.0951 -0.1898  0.4238
18315TIP3   OH276435   1.309   1.825  16.669 -0.7608  0.3677  0.1832
18315TIP3    H176436   1.227   1.785  16.698 -0.2618  0.1451  1.3434
18315TIP3    H276437   1.314   1.907  16.718  0.9764 -0.8622  2.2066
18316TIP3   OH276438   0.618   3.015   0.922  0.1777  0.8953 -0.0705
18316TIP3    H176439   0.584   3.070   0.851  1.3298 -0.0930 -1.4487
18316TIP3    H276440   0.541   2.972   0.959 -0.6387  2.7098  0.4466
18317TIP3   OH276441   5.958   1.584  16.460 -0.5935 -0.3678  0.9384
18317TIP3    H176442   6.038   1.619  16.500  0.2163  0.0603 -0.9265
18317TIP3    H276443   5.893   1.653  16.473  0.0110  0.3278  0.3982
18318TIP3   OH276444   3.229   5.942   4.534 -0.6002  0.5095 -0.1447
18318TIP3    H176445   3.289   5.996   4.484 -1.4175  1.7540  0.1686
18318TIP3    H276446   3.285   5.881   4.582  0.2970  0.6239 -1.0222
18319TIP3   OH276447   1.621   2.718   6.167 -0.1918  0.5278  0.6830
18319TIP3    H176448   1.682   2.772   6.116 -1.4235  1.2135 -0.1006
18319TIP3    H276449   1.636   2.629   6.134 -2.5821  1.2150 -2.7002
18320TIP3   OH276450   3.904   1.091   5.599 -0.1227  0.4775 -0.3675
18320TIP3    H176451   3.820   1.090   5.645 -1.0126 -0.6199 -1.8931
18320TIP3    H276452   3.883   1.125   5.512  1.3308  1.6620 -0.2832
18321TIP3   OH276453   5.854   5.734   6.250 -0.2015  0.4966 -0.4320
18321TIP3    H176454   5.853   5.750   6.155 -0.0346 -0.6856 -0.6581
18321TIP3    H276455   5.834   5.640   6.258 -1.1315  0.7674  0.7559
18322TIP3   OH276456   4.683   4.612  16.328 -0.6939 -0.4911 -0.0976
18322TIP3    H176457   4.639   4.660  16.398  0.1134  0.0059  0.0928
18322TIP3    H276458   4.772   4.598  16.362  0.0326  0.6916 -1.4380
18323TIP3   OH276459   4.229   4.657   5.158  0.1009 -0.0136 -0.4949
18323TIP3    H176460   4.149   4.708   5.176  0.1473  0.2214 -0.9353
18323TIP3    H276461   4.299   4.722   5.155  0.1323 -0.0735 -1.2580
18324TIP3   OH276462   2.910   1.036  11.859  0.1795 -0.2479  0.1794
18324TIP3    H176463   2.824   1.018  11.820  0.5831  0.1533 -0.9651
18324TIP3    H276464   2.916   0.977  11.934 -0.2682 -1.7583 -0.9174
18325TIP3   OH276465   3.388   1.876  13.293  0.0847 -0.7058  0.3674
18325TIP3    H176466   3.434   1.938  13.235 -0.8282  0.6498  1.0281
18325TIP3    H276467   3.300   1.913  13.301 -0.0012 -1.2298  2.0687
18326TIP3   OH276468   1.593   5.054  14.112  0.1401  0.0134  0.2808
18326TIP3    H176469   1.556   5.012  14.034 -0.8723  1.3455  0.0022
18326TIP3    H276470   1.563   5.001  14.185  1.6768 -1.6585 -0.2371
18327TIP3   OH276471   0.359   2.767  16.083 -0.4307 -0.2823 -0.4225
18327TIP3    H176472   0.384   2.715  16.006  0.7834 -0.0836 -0.1768
18327TIP3    H276473   0.275   2.729  16.111  0.1599 -1.7707 -0.5576
18328TIP3   OH276474   1.499   6.662  15.721  0.3522  0.4475  0.0931
18328TIP3    H176475   1.579   6.635  15.768  0.3421  1.0905  0.4828
18328TIP3    H276476   1.519   6.750  15.690  0.2818  0.1093 -0.9521
18329TIP3   OH276477   6.540   5.435  14.894 -0.3662 -0.0460 -0.3153
18329TIP3    H176478   6.514   5.410  14.983 -0.1449 -1.4251 -0.6269
18329TIP3    H276479   6.609   5.373  14.871 -0.1603  0.5407 -1.3201
18330TIP3   OH276480   1.577   0.156   1.221 -0.7290 -0.1467 -0.2142
18330TIP3    H176481   1.595   0.198   1.137  0.4880  1.1020  0.6155
18330TIP3    H276482   1.486   0.129   1.216 -0.3837 -1.0943 -2.3291
18331TIP3   OH276483   0.132   3.553  14.189 -0.2265 -0.0718 -0.3798
18331TIP3    H176484   0.197   3.595  14.244 -0.1050  0.3166 -0.8145
18331TIP3    H276485   0.166   3.563  14.100 -0.4623 -0.6136 -0.5326
18332TIP3   OH276486   5.584   4.681  15.476  0.3426  0.4863 -0.3813
18332TIP3    H176487   5.521   4.614  15.503 -1.5055  2.0383 -0.6205
18332TIP3    H276488   5.618   4.650  15.392 -1.2329  0.2853 -0.9789
18333TIP3   OH276489   5.008   1.041  14.627  0.0695 -0.0871 -0.1755
18333TIP3    H176490   5.058   1.117  14.600  2.3927 -1.0484  1.2039
18333TIP3    H276491   5.054   0.966  14.589 -0.7075 -0.9786  0.5632
18334TIP3   OH276492   2.764   0.110  11.896 -0.4623  0.5259  0.0350
18334TIP3    H176493   2.830   0.116  11.966 -0.0554 -0.9880 -0.1868
18334TIP3    H276494   2.776   0.023  11.859 -1.9633  0.5853 -0.6637
18335TIP3   OH276495   1.400   5.240   4.711 -0.5663 -0.1258 -0.2007
18335TIP3    H176496   1.392   5.190   4.630 -0.7574 -1.7332  0.7573
18335TIP3    H276497   1.310   5.254   4.739 -0.4901 -0.6579  0.3381
18336TIP3   OH276498   6.346   2.091  14.403 -0.1205 -0.6583 -1.0981
18336TIP3    H176499   6.296   2.010  14.404 -1.2143  0.0008 -0.4725
18336TIP3    H276500   6.362   2.108  14.310 -3.0474  0.2624 -1.5367
18337TIP3   OH276501   0.006   4.934  12.513  0.5652 -0.2706  0.0651
18337TIP3    H176502   0.051   5.018  12.521  0.6351 -0.4515  2.1478
18337TIP3    H276503  -0.065   4.951  12.451  0.1984  1.5118  0.9169
18338TIP3   OH276504   6.301   4.903   0.434 -0.1294 -0.0730 -0.3996
18338TIP3    H176505   6.392   4.933   0.433 -0.1737  0.0839 -1.3804
18338TIP3    H276506   6.265   4.934   0.517  0.2104  1.4247 -0.7892
18339TIP3   OH276507   2.273   6.229   3.573 -0.1472 -0.6671 -0.0397
18339TIP3    H176508   2.286   6.314   3.532 -1.9795  0.0535  0.7365
18339TIP3    H276509   2.354   6.212   3.621  0.0429  0.9159  0.2478
18340TIP3   OH276510   1.409   6.468  10.879  0.8308 -0.0407  0.5323
18340TIP3    H176511   1.386   6.381  10.913 -0.8087  0.6048  1.1579
18340TIP3    H276512   1.367   6.472  10.793  1.0596  0.0832  0.4258
18341TIP3   OH276513   5.162   4.466  12.333  0.3423 -0.1370  0.2104
18341TIP3    H176514   5.139   4.422  12.251 -0.0830 -1.0627  0.8103
18341TIP3    H276515   5.080   4.505  12.364 -0.0205 -1.6766  1.3003
18342TIP3   OH276516   2.415   5.300   3.069  0.1484 -0.4693 -0.3677
18342TIP3    H176517   2.477   5.293   3.142 -0.9987  4.9119  1.5804
18342TIP3    H276518   2.470   5.291   2.990  2.4440 -0.9655  1.1886
18343TIP3   OH276519   5.452   6.191   0.954 -0.1950  0.2251 -0.1035
18343TIP3    H176520   5.438   6.143   0.873  2.0342  0.3318 -0.6124
18343TIP3    H276521   5.494   6.272   0.927  0.6787  0.2133  1.1542
18344TIP3   OH276522   2.160   5.383   3.600 -0.0780 -0.2125  0.4829
18344TIP3    H176523   2.160   5.389   3.505 -1.9769  2.6511  0.5489
18344TIP3    H276524   2.218   5.454   3.628 -1.7505  0.8582  1.4134
18345TIP3   OH276525   6.163   4.762  14.382  0.1986  0.2774 -0.1032
18345TIP3    H176526   6.098   4.789  14.447  0.2973  0.7757 -0.2112
18345TIP3    H276527   6.112   4.720  14.313 -0.0107  0.6911 -0.2010
18346TIP3   OH276528   3.468   6.567  14.647  0.6583 -0.2097 -0.7142
18346TIP3    H176529   3.472   6.584  14.553  0.6460  0.0049 -0.6755
18346TIP3    H276530   3.421   6.642  14.684  1.6393  0.2649 -0.3960
18347TIP3   OH276531   5.592   5.051   0.462  0.4600  0.3627 -0.2697
18347TIP3    H176532   5.655   5.105   0.509  1.3991 -0.3396 -0.6771
18347TIP3    H276533   5.619   4.961   0.481 -0.1527  0.0546 -0.8129
18348TIP3   OH276534   6.733   6.656  16.028  0.7977  0.7829 -0.5088
18348TIP3    H176535   6.689   6.705  15.959  0.2537  0.6051 -0.2956
18348TIP3    H276536   6.826   6.667  16.010  0.6595  0.7992 -1.2215
18349TIP3   OH276537   5.023   3.986   1.973 -0.0383  0.3943 -0.6390
18349TIP3    H176538   5.012   3.915   2.036  0.1479  0.7544 -0.1937
18349TIP3    H276539   5.000   4.065   2.021 -1.5633  0.5240 -1.5142
18350TIP3   OH276540   6.354   6.260   2.678  0.2943  0.4390  0.5407
18350TIP3    H176541   6.401   6.199   2.736  1.6214  1.2174  0.3307
18350TIP3    H276542   6.420   6.324   2.653  0.3662 -0.8802 -3.3520
18351TIP3   OH276543   0.054   2.776  14.002  0.0440 -0.1224  0.1312
18351TIP3    H176544   0.081   2.845  13.941 -0.9732  0.1361 -0.0439
18351TIP3    H276545   0.101   2.797  14.083 -1.0419  1.4127  0.4140
18352TIP3   OH276546   3.971   2.337   4.298  0.1575 -0.8460 -0.6122
18352TIP3    H176547   3.927   2.355   4.215  0.6036  0.2784 -0.6264
18352TIP3    H276548   3.970   2.421   4.343  0.8067 -1.2155  0.0974
18353TIP3   OH276549   3.323   0.277  12.825  0.0917 -0.4154 -0.1989
18353TIP3    H176550   3.394   0.255  12.885 -1.4076 -1.1998  1.3536
18353TIP3    H276551   3.365   0.278  12.739  1.3811 -4.2228  0.2089
18354TIP3   OH276552   1.032   0.624  16.502 -0.4709  0.0867  0.7962
18354TIP3    H176553   1.022   0.659  16.590  1.5611  1.8628  0.3895
18354TIP3    H276554   1.113   0.573  16.505 -1.7210 -2.0076  0.5520
18355TIP3   OH276555   4.645   4.163  14.039  0.1656 -0.1073  0.4782
18355TIP3    H176556   4.628   4.118  14.122  0.5691 -0.6930  0.2476
18355TIP3    H276557   4.596   4.113  13.974  2.3213 -1.5678 -0.1252
18356TIP3   OH276558   1.923   1.482   2.226 -0.0408 -0.1025 -0.4286
18356TIP3    H176559   2.000   1.469   2.171  0.8033  1.6676  0.2897
18356TIP3    H276560   1.906   1.395   2.263  2.6085 -0.2351  0.6715
18357TIP3   OH276561   2.546   5.649   5.916 -0.1475 -0.1463 -0.0177
18357TIP3    H176562   2.583   5.733   5.889 -1.0578  0.1331 -0.4256
18357TIP3    H276563   2.483   5.627   5.848 -1.4710 -0.1089  1.1576
18358TIP3   OH276564   2.258   2.594   3.539  0.7660  0.2085 -0.7699
18358TIP3    H176565   2.216   2.539   3.472  1.7955 -1.4717 -0.1202
18358TIP3    H276566   2.188   2.652   3.569 -0.4245 -0.8038 -1.4534
18359TIP3   OH276567   4.254   6.717  12.706  0.3036  0.1051 -0.2016
18359TIP3    H176568   4.286   6.802  12.674  0.2986  0.0206 -0.4281
18359TIP3    H276569   4.174   6.701  12.656  1.0148 -0.6696 -1.1259
18360TIP3   OH276570   6.528   3.650   3.645 -0.1390  0.4940 -0.5708
18360TIP3    H176571   6.494   3.565   3.674  1.6292  0.5777  2.1533
18360TIP3    H276572   6.459   3.713   3.669 -0.6149  0.0518 -0.7619
18361TIP3   OH276573   5.204   1.309  16.734  0.1706 -0.5703 -0.1004
18361TIP3    H176574   5.138   1.246  16.704  0.9694 -1.4959  0.0577
18361TIP3    H276575   5.190   1.315  16.829 -1.0343  0.8318 -0.3253
18362TIP3   OH276576   0.951   5.979  13.621  0.2009 -0.8144 -0.1830
18362TIP3    H176577   0.887   5.975  13.550  0.0101 -1.6354  0.0187
18362TIP3    H276578   1.010   5.906  13.604  0.1726 -1.0034  0.4743
18363TIP3   OH276579   3.153   4.185  12.523  0.0506  0.4090 -0.4843
18363TIP3    H176580   3.128   4.175  12.615 -2.2183  0.2962 -1.0384
18363TIP3    H276581   3.146   4.279  12.506  1.2661  0.5353 -0.3677
18364TIP3   OH276582   5.271   0.578  11.350  0.2680  0.5590  0.3931
18364TIP3    H176583   5.269   0.543  11.439  0.1539  0.2374  0.2661
18364TIP3    H276584   5.259   0.673  11.361  0.5324  0.5532  0.7368
18365TIP3   OH276585   4.553   1.250  15.696  0.1090 -0.0575  0.1185
18365TIP3    H176586   4.538   1.160  15.723 -0.3379  0.1195  0.4793
18365TIP3    H276587   4.510   1.303  15.764  0.1920  0.4207 -0.1936
18366TIP3   OH276588   4.386   6.418   2.432 -0.5797 -0.0265  0.1942
18366TIP3    H176589   4.318   6.470   2.389 -1.3972 -0.4318  0.9679
18366TIP3    H276590   4.412   6.354   2.365 -0.0702  0.8991 -0.5186
18367TIP3   OH276591   1.158   0.187   6.273  0.0035 -0.0966  0.1687
18367TIP3    H176592   1.217   0.112   6.279  0.6186  0.4099  0.5611
18367TIP3    H276593   1.142   0.213   6.364  0.1296  0.5051  0.0219
18368TIP3   OH276594   4.255   1.453   3.566  0.3746 -0.1978 -0.2656
18368TIP3    H176595   4.159   1.457   3.567  0.2544 -2.0866  1.0334
18368TIP3    H276596   4.283   1.545   3.559 -1.5244  0.4429  0.0339
18369TIP3   OH276597   3.094   0.564   3.973 -0.0364 -0.3208  0.3098
18369TIP3    H176598   3.181   0.524   3.974  0.4548  0.7008 -0.0517
18369TIP3    H276599   3.068   0.562   3.881 -1.3940 -2.6485  0.6716
18370TIP3   OH276600   2.519   2.654   3.145  0.0412  0.5252 -0.7106
18370TIP3    H176601   2.537   2.711   3.070  1.3168  1.3326  0.1682
18370TIP3    H276602   2.605   2.639   3.185 -0.4513 -0.9092 -0.1133
18371TIP3   OH276603   4.183   5.145   0.460  0.0504  0.2223 -0.6707
18371TIP3    H176604   4.153   5.235   0.448  2.0611  0.8916 -1.0302
18371TIP3    H276605   4.175   5.129   0.554  1.7446  1.5884 -0.2484
18372TIP3   OH276606   0.874   1.315   4.767 -0.4031 -0.4992  0.4626
18372TIP3    H176607   0.859   1.271   4.683 -0.4356  0.2609  0.0516
18372TIP3    H276608   0.809   1.278   4.826 -0.9208 -0.4745 -0.0784
18373TIP3   OH276609   4.302   0.734   3.507  0.4517  0.1465  0.2519
18373TIP3    H176610   4.327   0.816   3.548  0.3574  0.1333  0.3364
18373TIP3    H276611   4.275   0.678   3.580 -2.2611  0.9887  0.0075
18374TIP3   OH276612   4.468   3.245   3.096 -0.0855 -0.1949  0.0761
18374TIP3    H176613   4.551   3.197   3.092  0.5328  0.8444  0.1554
18374TIP3    H276614   4.402   3.180   3.072  0.7425 -1.0549  0.0698
18375TIP3   OH276615   3.105   6.622  13.646  0.5442 -0.0477 -0.4382
18375TIP3    H176616   3.047   6.596  13.574 -0.6564  1.9760 -0.2971
18375TIP3    H276617   3.091   6.717  13.654  0.2047 -0.2525  2.8151
18376TIP3   OH276618   1.483   2.039   1.245 -0.5442 -0.1284 -0.2506
18376TIP3    H176619   1.446   2.047   1.158 -0.9608  0.7016  0.0012
18376TIP3    H276620   1.578   2.034   1.230 -0.6898 -1.6283 -0.8454
18377TIP3   OH276621   2.878   4.742   6.015  0.2999  0.2134  0.0318
18377TIP3    H176622   2.950   4.706   6.066  0.6250  0.3660 -0.3160
18377TIP3    H276623   2.829   4.795   6.077  0.4803  0.0967  0.2749
18378TIP3   OH276624   0.711   5.464  14.934 -0.1000  0.0521  0.6851
18378TIP3    H176625   0.735   5.538  14.878 -0.1369 -1.0058 -0.7901
18378TIP3    H276626   0.678   5.504  15.014  0.2398  1.6173  0.0792
18379TIP3   OH276627   2.796   1.295   1.288  0.1575 -0.1905  0.0276
18379TIP3    H176628   2.774   1.324   1.199  1.2709  0.3285 -0.0928
18379TIP3    H276629   2.888   1.318   1.299  0.3079 -1.1511  0.9658
18380TIP3   OH276630   1.768   0.351  16.652  0.0952 -0.1714  0.8894
18380TIP3    H176631   1.713   0.380  16.579  1.3187  1.1617  0.4606
18380TIP3    H276632   1.827   0.424  16.668  0.8673 -1.0526  2.2166
18381TIP3   OH276633   4.180   0.242  15.656  0.1713  0.2326  0.0301
18381TIP3    H176634   4.241   0.226  15.585  0.4892  0.7553  0.1818
18381TIP3    H276635   4.124   0.313  15.624 -0.6210 -0.5079 -0.2656
18382TIP3   OH276636   5.638   3.235   1.147  0.5026  0.7979 -0.1838
18382TIP3    H176637   5.597   3.281   1.220  1.1542  1.2371 -0.0846
18382TIP3    H276638   5.731   3.232   1.170  0.5286 -0.2034 -0.3933
18383TIP3   OH276639   5.509   4.220  16.421  0.1356 -0.1108  0.0867
18383TIP3    H176640   5.530   4.187  16.334 -4.2395 -0.3634 -1.1082
18383TIP3    H276641   5.445   4.290  16.406 -0.1263  0.4344  3.0721
18384TIP3   OH276642   4.512   4.392   2.088 -0.1279  0.0524 -0.1800
18384TIP3    H176643   4.553   4.319   2.135 -0.7104 -1.1139 -1.4247
18384TIP3    H276644   4.427   4.402   2.129  0.8150  1.6151  1.5368
18385TIP3   OH276645   6.460   5.583  12.306  0.0760 -0.9519 -0.0056
18385TIP3    H176646   6.428   5.569  12.394 -0.7246  0.2730 -0.0724
18385TIP3    H276647   6.400   5.534  12.250 -1.1679  0.5593 -0.0571
18386TIP3   OH276648   0.875   1.500  11.238  0.2171 -0.8238  0.0430
18386TIP3    H176649   0.949   1.514  11.178 -1.6868 -0.0751 -2.2974
18386TIP3    H276650   0.842   1.413  11.216 -0.6299 -0.4556 -0.1866
18387TIP3   OH276651   3.334   2.178   6.545 -0.4111 -0.0282 -0.2660
18387TIP3    H176652   3.378   2.263   6.553 -0.7671  0.0427  1.2253
18387TIP3    H276653   3.242   2.201   6.529 -0.5273 -0.1260  0.2526
18388TIP3   OH276654   1.225   3.185   3.216  0.0638 -0.9613  0.3478
18388TIP3    H176655   1.212   3.263   3.270  0.7660  0.5643 -1.5614
18388TIP3    H276656   1.137   3.149   3.205 -0.3264 -0.2520  0.9830
18389TIP3   OH276657   6.376   5.527   1.925  0.6303 -0.2721  0.2854
18389TIP3    H176658   6.308   5.518   1.859  0.2588 -0.0687  0.6331
18389TIP3    H276659   6.329   5.523   2.009  0.9262  0.7481  0.5227
18390TIP3   OH276660   4.903   4.422  16.905 -0.5709  0.2416  0.1366
18390TIP3    H176661   4.997   4.440  16.906 -0.1390 -1.7044  1.4239
18390TIP3    H276662   4.862   4.508  16.903  1.2294  1.1338 -0.6103
18391TIP3   OH276663   1.434   2.182  11.474 -0.2373 -0.1363  0.2755
18391TIP3    H176664   1.355   2.141  11.440 -0.2756 -0.9771  1.3559
18391TIP3    H276665   1.486   2.201  11.395  0.0168 -2.7054 -0.2588
18392TIP3   OH276666   4.978   5.499  13.565  0.3233  0.3783  0.0209
18392TIP3    H176667   4.900   5.553  13.549  0.0302 -0.4385 -1.5265
18392TIP3    H276668   5.049   5.563  13.574 -0.1394  1.0773 -1.0457
18393TIP3   OH276669   0.090   0.141   1.289  0.5250 -0.1334 -0.0932
18393TIP3    H176670   0.118   0.121   1.199 -0.9709  0.0256 -0.6313
18393TIP3    H276671   0.061   0.057   1.325  0.4712 -0.0831 -0.0174
18394TIP3   OH276672   2.697   4.067   1.019 -0.0724 -0.4603 -0.1727
18394TIP3    H176673   2.731   4.101   0.936  2.2430  0.5174  1.0994
18394TIP3    H276674   2.606   4.097   1.021  0.8953  2.9298 -0.6385
18395TIP3   OH276675   1.385   6.497   5.551 -0.0190 -0.0092 -0.1431
18395TIP3    H176676   1.299   6.514   5.512  0.7307  1.7750 -1.1141
18395TIP3    H276677   1.365   6.462   5.638 -1.7254 -0.2158 -0.5881
18396TIP3   OH276678   1.256   4.114  17.017 -0.1799  0.4713  0.2581
18396TIP3    H176679   1.180   4.108  16.959  1.5991  0.3532 -2.2310
18396TIP3    H276680   1.252   4.034  17.070 -1.7667  0.4886  0.2225
18397TIP3   OH276681   0.166   5.711   3.824  0.1208 -0.7235 -0.4670
18397TIP3    H176682   0.098   5.774   3.800 -0.1341 -1.2879 -1.2894
18397TIP3    H276683   0.246   5.745   3.782  0.3181 -0.1520  0.3558
18398TIP3   OH276684   3.935   4.948   2.287 -0.0852 -0.1721  0.3051
18398TIP3    H176685   4.007   4.982   2.340  0.0830  2.1094 -1.2205
18398TIP3    H276686   3.977   4.912   2.210 -0.4908  2.0781 -1.0733
18399TIP3   OH276687   1.033   3.845  14.090 -0.1007 -0.6834  0.2913
18399TIP3    H176688   1.085   3.885  14.020 -0.7834 -0.8038 -0.2928
18399TIP3    H276689   1.011   3.758  14.058  0.9483 -1.3868  1.3494
18400TIP3   OH276690   0.180   4.482  15.227 -0.0303  0.0477  0.0346
18400TIP3    H176691   0.169   4.422  15.153 -1.8288  0.2864  0.0665
18400TIP3    H276692   0.170   4.426  15.305  0.7130 -0.0134  0.0856
18401TIP3   OH276693   4.578   5.882   5.220 -0.0518  0.3311 -0.6973
18401TIP3    H176694   4.656   5.914   5.266 -0.3657 -0.2312  0.2427
18401TIP3    H276695   4.598   5.791   5.198 -1.7794 -1.1086  2.8728
18402TIP3   OH276696   1.744   5.174   1.317  0.0229 -0.3593  0.4842
18402TIP3    H176697   1.718   5.264   1.336  2.7867  1.4152 -3.0581
18402TIP3    H276698   1.807   5.152   1.386 -0.7946  0.2630  1.4708
18403TIP3   OH276699   3.774   2.528   0.656 -0.4733 -0.0622  0.6096
18403TIP3    H176700   3.713   2.591   0.696 -0.6525  0.5998 -0.6744
18403TIP3    H276701   3.861   2.564   0.674 -0.5748  0.5552 -0.1079
18404TIP3   OH276702   5.934   5.515  17.294  0.5408 -0.2056  0.2312
18404TIP3    H176703   5.842   5.539  17.294  0.7991  0.8595  0.4684
18404TIP3    H276704   5.959   5.513  17.386  0.4018 -2.0040  0.2593
18405TIP3   OH276705   6.599   0.948  15.518 -0.1800  0.0968 -0.2087
18405TIP3    H176706   6.634   1.036  15.529 -0.5032  0.1653  0.2960
18405TIP3    H276707   6.551   0.930  15.599 -1.1813 -0.0547 -0.8090
18406TIP3   OH276708   1.324   1.861   1.915  0.3941 -0.5479 -0.2262
18406TIP3    H176709   1.397   1.923   1.914  0.0192 -0.1110 -1.0922
18406TIP3    H276710   1.278   1.881   1.997  0.8234 -0.3434 -0.0278
18407TIP3   OH276711   2.597   2.684   1.490  0.0948 -0.7541  0.1781
18407TIP3    H176712   2.625   2.746   1.558 -1.4097  1.9988 -1.5278
18407TIP3    H276713   2.679   2.658   1.447  0.9051 -1.2616  1.9512
18408TIP3   OH276714   3.251   1.871  12.817 -0.8696  0.8067 -0.3687
18408TIP3    H176715   3.335   1.846  12.857 -1.5800 -0.1792  0.5740
18408TIP3    H276716   3.222   1.947  12.869 -0.3232  1.5042 -1.0516
18409TIP3   OH276717   5.602   2.650  16.028 -0.2968 -0.5552 -0.1344
18409TIP3    H176718   5.546   2.575  16.010 -1.3737  0.7973 -2.9236
18409TIP3    H276719   5.678   2.638  15.972  0.3556 -0.3750  0.6810
18410TIP3   OH276720   2.819   3.631   1.229  0.2345  0.2644  0.6941
18410TIP3    H176721   2.807   3.672   1.143 -1.3501  1.1286  1.2838
18410TIP3    H276722   2.900   3.580   1.220  0.3842  0.7422 -1.1404
18411TIP3   OH276723   1.493   6.499   0.276  0.0091  0.0569  0.5237
18411TIP3    H176724   1.524   6.476   0.188  2.8431  2.8422  0.6336
18411TIP3    H276725   1.402   6.527   0.261  1.1117  2.8895 -2.1575
18412TIP3   OH276726   1.963   0.830  13.399 -0.2442 -0.6291  0.7558
18412TIP3    H176727   1.942   0.773  13.473 -1.4176 -1.0314  0.1346
18412TIP3    H276728   1.880   0.841  13.352  0.2584  0.4707  0.0816
18413TIP3   OH276729   0.091   4.936  11.801 -0.5371  0.1678 -0.4538
18413TIP3    H176730   0.153   4.945  11.728 -0.4311  0.2709 -0.3526
18413TIP3    H276731   0.105   5.015  11.854  0.0436 -0.3465  0.1783
18414TIP3   OH276732   0.673   1.484   1.390  0.0970  0.1797 -0.0284
18414TIP3    H176733   0.582   1.513   1.384 -0.1488 -0.4221  0.5997
18414TIP3    H276734   0.718   1.557   1.433 -0.0672  0.5230 -0.4371
18415TIP3   OH276735   4.641   1.506   1.912 -0.8045  0.4712  0.1659
18415TIP3    H176736   4.557   1.484   1.870 -0.3065 -0.7207 -0.2496
18415TIP3    H276737   4.646   1.446   1.986  1.0063 -1.6535 -1.5191
18416TIP3   OH276738   2.341   2.610  13.040  0.2633 -0.0859  0.0428
18416TIP3    H176739   2.353   2.515  13.047  1.1769  0.0627  0.7081
18416TIP3    H276740   2.268   2.629  13.100  0.8145 -0.2328  0.7740
18417TIP3   OH276741   0.496   2.794   4.163  0.2155 -0.3697  0.0180
18417TIP3    H176742   0.459   2.707   4.180  1.1594 -1.2555 -1.9973
18417TIP3    H276743   0.581   2.775   4.122  1.5849  1.5537  1.7803
18418TIP3   OH276744   2.234   5.600  12.363 -0.0399 -0.5208  0.3518
18418TIP3    H176745   2.162   5.538  12.375  0.6985 -1.0617  2.5052
18418TIP3    H276746   2.310   5.554  12.398  1.0638  0.6409 -0.4374
18419TIP3   OH276747   0.917   3.719   3.323  0.0638  0.1307 -0.0260
18419TIP3    H176748   0.829   3.744   3.293 -0.5566 -1.3327  0.4873
18419TIP3    H276749   0.937   3.782   3.393 -0.3991  0.7324 -0.4326
18420TIP3   OH276750   5.153   3.805  12.001  0.5554 -0.1592  0.4106
18420TIP3    H176751   5.057   3.803  11.999  0.4632  1.0015  1.7901
18420TIP3    H276752   5.177   3.863  11.930  0.2828 -0.9154 -0.3183
18421TIP3   OH276753   1.947   3.568  16.687 -0.3484 -0.1328  0.1140
18421TIP3    H176754   1.978   3.526  16.607 -0.2355 -1.8071  0.9854
18421TIP3    H276755   1.891   3.640  16.657  0.4196 -0.1574 -1.4476
18422TIP3   OH276756   0.375   3.314   1.866  0.1420  0.3640 -0.0361
18422TIP3    H176757   0.376   3.381   1.934 -1.6101  0.5894 -0.1843
18422TIP3    H276758   0.423   3.353   1.793 -0.0206  1.0768  0.2265
18423TIP3   OH276759   3.834   0.144  11.018 -0.1847  0.6756  0.2619
18423TIP3    H176760   3.805   0.109  10.933 -1.3562  0.5696  0.6943
18423TIP3    H276761   3.762   0.200  11.047 -0.0511  0.2572  1.4579
18424TIP3   OH276762   2.001   0.412  11.113  0.2388 -0.2095  0.0838
18424TIP3    H176763   1.939   0.457  11.056  0.0389 -0.0152  0.4514
18424TIP3    H276764   2.030   0.336  11.062 -1.2775 -1.0329  0.3932
18425TIP3   OH276765   0.883   6.618  16.501 -0.2923  0.9356  0.5457
18425TIP3    H176766   0.828   6.694  16.521  1.3091  2.1256  0.6269
18425TIP3    H276767   0.886   6.568  16.582 -2.0774  0.2666  0.2430
18426TIP3   OH276768   4.010   3.017   2.956 -0.2328  0.0732 -0.0466
18426TIP3    H176769   3.965   2.945   3.001 -0.2023  0.6935  1.0333
18426TIP3    H276770   4.099   3.015   2.991 -0.2501  0.6587  0.0460
18427TIP3   OH276771   0.199   4.244   5.816  0.1226 -0.1356 -0.3018
18427TIP3    H176772   0.280   4.268   5.862 -0.1353 -0.0840  0.1268
18427TIP3    H276773   0.138   4.314   5.837  0.2358  0.2975 -1.3647
18428TIP3   OH276774   0.552   3.073  14.786 -0.4881  0.5342 -0.2118
18428TIP3    H176775   0.580   3.164  14.780 -1.5674  0.9140  0.1222
18428TIP3    H276776   0.551   3.054  14.880 -0.5271  0.2721 -0.2654
18429TIP3   OH276777   0.784   3.338   3.302 -0.0020  0.0351 -0.0391
18429TIP3    H176778   0.761   3.295   3.220 -2.2828  1.9101 -0.5252
18429TIP3    H276779   0.767   3.273   3.369  0.3401 -1.0133 -0.9484
18430TIP3   OH276780   5.724   6.109  14.453 -0.4114 -0.0362 -0.6325
18430TIP3    H176781   5.711   6.121  14.548  0.0244  0.0817 -0.5881
18430TIP3    H276782   5.811   6.143  14.436 -0.3865 -0.2957 -1.0378
18431TIP3   OH276783   1.366   2.651   6.205  0.3549 -0.2552 -0.2830
18431TIP3    H176784   1.457   2.657   6.174  0.0065  1.1422 -1.0760
18431TIP3    H276785   1.337   2.741   6.212 -1.1599 -0.7027 -0.5609
18432TIP3   OH276786   1.298   0.984   2.359 -0.1464  0.6043 -0.3110
18432TIP3    H176787   1.393   0.988   2.347 -0.2512  1.4680 -1.0235
18432TIP3    H276788   1.264   1.056   2.305 -1.1594  0.7338  0.4595
18433TIP3   OH276789   6.049   0.334   4.477  0.2932  0.2987  0.5794
18433TIP3    H176790   6.119   0.270   4.461  1.1709  0.7634  2.3269
18433TIP3    H276791   6.025   0.322   4.568 -0.8462  1.2151  0.4274
18434TIP3   OH276792   3.976   3.085   1.208  0.1344 -0.4778  0.2186
18434TIP3    H176793   3.898   3.092   1.262  1.4202 -1.7024  2.3682
18434TIP3    H276794   3.967   3.000   1.164 -0.1662 -0.1995 -0.2628
18435TIP3   OH276795   4.201   1.345   3.955 -0.4373  0.4068 -0.9906
18435TIP3    H176796   4.291   1.377   3.949 -0.3522  0.4327  0.1073
18435TIP3    H276797   4.149   1.411   3.911 -0.1058  1.3393 -0.0253
18436TIP3   OH276798   4.696   3.979  14.511  0.4777  0.0888  0.0515
18436TIP3    H176799   4.601   3.980  14.523  0.0709  0.7081 -2.5783
18436TIP3    H276800   4.724   4.069  14.532  0.3371  0.1622 -0.0753
18437TIP3   OH276801   2.482   2.497  14.645  0.1495 -0.0191 -0.1143
18437TIP3    H176802   2.545   2.558  14.606 -1.4849  2.3572  0.7432
18437TIP3    H276803   2.454   2.540  14.726 -3.1305 -0.5842 -0.8292
18438TIP3   OH276804   0.065   0.285  15.774  0.1949 -0.0325  0.2394
18438TIP3    H176805   0.064   0.378  15.794 -1.4280  0.3805 -1.4265
18438TIP3    H276806   0.082   0.281  15.680 -1.3781 -1.2840 -0.0454
18439TIP3   OH276807   1.434   1.215  15.897 -0.0141 -0.1729 -0.1202
18439TIP3    H176808   1.385   1.289  15.932  0.5093  0.3600 -0.4942
18439TIP3    H276809   1.491   1.254  15.831  1.2649 -0.7059  0.6413
18440TIP3   OH276810   4.866   4.298  13.082  0.0986  0.2670  0.0811
18440TIP3    H176811   4.932   4.341  13.027  0.6127 -0.9534 -0.3100
18440TIP3    H276812   4.904   4.299  13.170  0.0175  0.7784  0.1106
18441TIP3   OH276813   1.224   6.294   5.024 -0.5280  0.2486  0.4312
18441TIP3    H176814   1.142   6.275   4.980 -1.4184 -0.8143  2.4534
18441TIP3    H276815   1.199   6.332   5.108  1.0738  0.8937  0.6673
18442TIP3   OH276816   2.387   4.321  15.834 -1.1292  0.2557  0.0890
18442TIP3    H176817   2.366   4.361  15.750 -0.6042 -1.5757 -0.9685
18442TIP3    H276818   2.434   4.241  15.811 -0.2465  0.1216  2.1535
18443TIP3   OH276819   5.200   6.067  16.198 -0.3761 -0.5009 -0.2451
18443TIP3    H176820   5.147   6.052  16.120 -1.5836 -1.5347  0.7373
18443TIP3    H276821   5.181   6.158  16.222 -0.0646 -0.2038 -1.0751
18444TIP3   OH276822   4.481   0.453  10.657 -0.1220  0.1523  0.2799
18444TIP3    H176823   4.456   0.385  10.594 -2.2794  0.2319  0.9585
18444TIP3    H276824   4.534   0.407  10.722 -0.2497 -0.5354 -0.0943
18445TIP3   OH276825   6.354   4.016   5.747  0.4741  0.5976 -0.0329
18445TIP3    H176826   6.379   4.098   5.790  2.1828  0.8003 -1.3083
18445TIP3    H276827   6.384   4.026   5.656 -0.8027 -0.7830 -0.6499
18446TIP3   OH276828   0.773   1.988   1.520  0.0645 -0.3770  0.2730
18446TIP3    H176829   0.775   2.023   1.430 -0.8050  0.4759  0.5750
18446TIP3    H276830   0.696   2.028   1.560 -0.1465 -1.5665  1.0877
18447TIP3   OH276831   0.029   6.174  11.659 -0.1235  0.1153 -0.3080
18447TIP3    H176832   0.079   6.113  11.606 -0.0892 -0.8469  0.7770
18447TIP3    H276833   0.089   6.247  11.676 -0.8421  1.5938 -3.4111
18448TIP3   OH276834   5.237   1.112   5.188  0.0951  0.2508 -0.6831
18448TIP3    H176835   5.174   1.066   5.242  1.3083 -0.7386 -0.0492
18448TIP3    H276836   5.317   1.114   5.241  0.9577  0.3714 -1.9324
18449TIP3   OH276837   6.233   0.489   2.439  0.1156 -0.2212  0.1647
18449TIP3    H176838   6.286   0.547   2.494 -1.0943  0.1923  0.9545
18449TIP3    H276839   6.235   0.529   2.352  0.8347 -0.0506  0.2583
18450TIP3   OH276840   2.774   1.536  15.861 -0.1419 -0.5075  0.4899
18450TIP3    H176841   2.743   1.446  15.846  1.3941 -0.9342 -0.3332
18450TIP3    H276842   2.763   1.579  15.776  1.3495 -0.6346  0.2168
18451TIP3   OH276843   1.238   3.999   3.207  0.4789 -0.3577 -0.4258
18451TIP3    H176844   1.307   3.933   3.222 -0.0116 -0.7841 -0.0126
18451TIP3    H276845   1.224   4.038   3.294  0.2443 -0.2284 -0.5235
18452TIP3   OH276846   2.100   2.893   5.724 -0.0209 -0.4152 -0.0372
18452TIP3    H176847   2.162   2.957   5.761 -0.6318  1.1513 -1.5892
18452TIP3    H276848   2.023   2.899   5.781 -0.2134  0.5241 -0.3825
18453TIP3   OH276849   3.769   6.113   0.026  0.5268  0.6571  0.4460
18453TIP3    H176850   3.719   6.068  -0.043  0.9725  0.5056  0.2172
18453TIP3    H276851   3.802   6.042   0.081 -0.6505  0.8179  1.4035
18454TIP3   OH276852   2.319   0.264  13.671 -0.1134 -0.2177  0.1594
18454TIP3    H176853   2.272   0.347  13.673 -0.0506 -0.1296 -1.2545
18454TIP3    H276854   2.252   0.198  13.693 -0.8550 -0.0543 -1.4294
18455TIP3   OH276855   1.085   5.471  11.576  0.7381 -0.2350 -0.0173
18455TIP3    H176856   1.149   5.401  11.590  0.0259 -1.0071 -0.5070
18455TIP3    H276857   1.035   5.442  11.499  1.1308  1.3309 -0.9161
18456TIP3   OH276858   6.370   2.764   5.171  0.0338 -0.0562 -0.0242
18456TIP3    H176859   6.295   2.728   5.218 -0.1523 -0.4090 -0.5825
18456TIP3    H276860   6.344   2.853   5.149 -0.2141 -0.1730 -0.2046
18457TIP3   OH276861   0.682   4.442   1.455  0.6088  0.4274 -0.0171
18457TIP3    H176862   0.765   4.414   1.493  1.3362  2.1404 -0.2614
18457TIP3    H276863   0.658   4.520   1.505 -2.3782 -1.5688  2.0429
18458TIP3   OH276864   3.208   6.284   0.818 -0.5840 -0.1936 -0.1143
18458TIP3    H176865   3.275   6.330   0.767  0.2138 -0.4499  0.6775
18458TIP3    H276866   3.173   6.219   0.757 -0.7801  0.5606 -0.8260
18459TIP3   OH276867   1.603   0.370  11.625  0.3376  0.5148 -0.2276
18459TIP3    H176868   1.623   0.372  11.718  0.1081  1.1762 -0.1887
18459TIP3    H276869   1.634   0.454  11.592  1.0879 -0.0043 -0.8903
18460TIP3   OH276870   2.200   2.268  10.851 -0.2306  0.1373 -0.1791
18460TIP3    H176871   2.123   2.235  10.898  1.9873 -2.2287  2.1645
18460TIP3    H276872   2.199   2.362  10.867 -2.6994  0.2188 -0.4357
18461TIP3   OH276873   2.986   3.196   2.456 -0.5103  0.1108  0.0509
18461TIP3    H176874   2.903   3.195   2.407 -0.4099  0.3442 -0.1307
18461TIP3    H276875   3.043   3.138   2.407 -0.1858  0.8884 -0.5237
18462TIP3   OH276876   6.159   0.957   2.953 -0.3834  0.0532  0.1166
18462TIP3    H176877   6.168   1.040   2.998 -1.4611  0.3262 -0.1465
18462TIP3    H276878   6.070   0.928   2.973 -0.7116 -0.0688 -1.3964
18463TIP3   OH276879   0.452   3.401   1.068 -0.4045 -0.1360  0.5170
18463TIP3    H176880   0.441   3.332   1.134 -0.6621  1.7629  2.5839
18463TIP3    H276881   0.537   3.382   1.028 -0.1678 -1.2689  1.5021
18464TIP3   OH276882   3.896   4.744   2.574  0.6849 -0.0647 -0.0461
18464TIP3    H176883   3.871   4.834   2.591  0.3232 -0.4728  1.8230
18464TIP3    H276884   3.813   4.699   2.554  0.9773  0.1781 -2.0397
18465TIP3   OH276885   0.532   2.905   3.214 -0.3977 -0.1587 -0.3069
18465TIP3    H176886   0.606   2.847   3.236  0.3245  1.2353  1.1150
18465TIP3    H276887   0.538   2.976   3.277 -2.8140  0.1612 -0.3540
18466TIP3   OH276888   6.370   3.904  11.070  0.5438  0.0822 -0.1896
18466TIP3    H176889   6.313   3.834  11.040  0.0810  0.5054 -0.3075
18466TIP3    H276890   6.312   3.978  11.086  1.0653  0.5489 -0.3968
18467TIP3   OH276891   3.226   3.038  12.296  0.0457  0.0023  0.1709
18467TIP3    H176892   3.236   2.948  12.327 -1.4388 -0.2395 -0.0190
18467TIP3    H276893   3.135   3.061  12.316  0.6752  1.8389  1.1943
18468TIP3   OH276894   1.183   1.792   1.680 -0.3555  0.3699 -0.0109
18468TIP3    H176895   1.127   1.858   1.639 -1.1263 -0.2160  0.0794
18468TIP3    H276896   1.231   1.840   1.748 -0.5815  0.9179 -0.2298
18469TIP3   OH276897   4.222   3.637   5.942 -0.1511  0.0999 -0.4489
18469TIP3    H176898   4.180   3.584   5.875 -0.2808  0.5608 -0.7378
18469TIP3    H276899   4.173   3.719   5.942 -0.2771  0.0288  0.3505
18470TIP3   OH276900   1.051   1.184   3.560  0.0195 -0.4704  0.4311
18470TIP3    H176901   1.069   1.092   3.539 -1.7849 -0.5876 -0.8720
18470TIP3    H276902   0.956   1.188   3.572 -0.1110  1.4051 -0.6895
18471TIP3   OH276903   1.049   1.490   1.266  0.1352 -0.5832  0.0892
18471TIP3    H176904   0.996   1.419   1.300 -1.9273  0.6039 -0.4994
18471TIP3    H276905   1.097   1.523   1.342 -0.0501 -1.5891  0.6589
18472TIP3   OH276906   0.907   3.338  11.767  0.1952  0.1294  0.0581
18472TIP3    H176907   0.988   3.302  11.731  0.1527 -0.3384  0.4229
18472TIP3    H276908   0.860   3.373  11.691  0.4039 -0.2626 -0.2528
18473TIP3   OH276909   0.191   5.655   0.003 -0.1183  0.8076 -0.0296
18473TIP3    H176910   0.204   5.563   0.026  0.7388  1.0322  0.4458
18473TIP3    H276911   0.159   5.653  -0.087 -0.7755  0.0191  0.2061
18474TIP3   OH276912   6.183   2.702   1.246 -0.0654  0.1387 -0.3660
18474TIP3    H176913   6.231   2.635   1.294 -0.5220 -0.3899 -0.6228
18474TIP3    H276914   6.157   2.658   1.164 -1.1370  0.3356 -0.1492
18475TIP3   OH276915   2.456   6.345  13.057  0.1333  0.1144  0.0700
18475TIP3    H176916   2.372   6.341  13.104  0.2550  0.0031  0.2780
18475TIP3    H276917   2.519   6.308  13.118  0.6835  1.9728  0.6917
18476TIP3   OH276918   4.418   1.768  16.483  0.1475 -0.0083  0.5930
18476TIP3    H176919   4.486   1.733  16.426 -0.0161  0.0689  0.3462
18476TIP3    H276920   4.443   1.859  16.497  0.5101 -0.1895  1.1406
18477TIP3   OH276921   2.161   4.000   5.454 -0.6179 -0.4902 -0.5669
18477TIP3    H176922   2.211   3.971   5.379  1.0285 -1.4638  0.8308
18477TIP3    H276923   2.205   3.961   5.529 -1.3265  1.5826  1.0341
18478TIP3   OH276924   5.568   5.517  13.701  0.4838 -0.5330 -0.0587
18478TIP3    H176925   5.498   5.522  13.766  1.0669 -1.0869  0.6282
18478TIP3    H276926   5.646   5.495  13.752  0.8682 -1.3906 -0.9952
18479TIP3   OH276927   3.417   4.990   6.118 -0.8911 -0.2553 -0.5055
18479TIP3    H176928   3.353   5.061   6.119 -0.4344  0.1595 -0.1503
18479TIP3    H276929   3.371   4.916   6.077 -1.7902 -0.1528  0.2849
18480TIP3   OH276930   2.688   6.590  13.470 -0.1607  0.1992  0.4587
18480TIP3    H176931   2.662   6.610  13.380  1.3164 -2.7324 -0.7476
18480TIP3    H276932   2.605   6.577  13.516 -0.9514 -0.5114 -1.0842
18481TIP3   OH276933   3.365   5.518  15.770  0.2591  0.0425 -0.2901
18481TIP3    H176934   3.315   5.485  15.845  0.7503 -0.5139 -0.1958
18481TIP3    H276935   3.360   5.448  15.705  0.1683  0.3564 -0.6186
18482TIP3   OH276936   6.270   3.450   1.486 -0.0582  0.3168  0.0445
18482TIP3    H176937   6.226   3.394   1.550  1.2650 -2.2485 -1.1441
18482TIP3    H276938   6.210   3.454   1.411 -0.7729  1.7630  0.6447
18483TIP3   OH276939   5.794   5.357   5.961 -0.2961 -0.2825 -0.0084
18483TIP3    H176940   5.861   5.358   6.030 -1.1422 -2.4380  0.9352
18483TIP3    H276941   5.842   5.333   5.882  0.2187 -0.8826  0.4749
18484TIP3   OH276942   1.621   3.436   2.873  0.3226 -0.3358  0.1045
18484TIP3    H176943   1.712   3.454   2.851  0.4675  0.0354  0.9586
18484TIP3    H276944   1.571   3.495   2.816  0.5664 -1.1017 -0.9294
18485TIP3   OH276945   0.661   0.384  12.105 -0.5659 -0.7994  0.3837
18485TIP3    H176946   0.754   0.408  12.099 -0.8694  0.0275 -2.5165
18485TIP3    H276947   0.633   0.419  12.189  1.5224 -0.2359  0.9130
18486TIP3   OH276948   1.475   2.511   2.891  0.1863  0.9631  0.0432
18486TIP3    H176949   1.550   2.569   2.901  0.6076  0.4230  0.0394
18486TIP3    H276950   1.440   2.500   2.979 -0.4994  2.0149 -0.0874
18487TIP3   OH276951   5.612   4.794   2.130 -0.4810  0.1705 -0.2925
18487TIP3    H176952   5.656   4.799   2.215  0.7897 -1.1789 -0.8263
18487TIP3    H276953   5.525   4.759   2.150  0.5124 -2.1844  0.3073
18488TIP3   OH276954   0.818   1.463  13.073 -0.2277  0.1464 -0.7020
18488TIP3    H176955   0.817   1.373  13.107 -0.3549 -0.0293 -1.1594
18488TIP3    H276956   0.814   1.452  12.978  0.4628  0.6213 -0.7919
18489TIP3   OH276957   4.883   1.991  15.646 -0.0420  0.4271 -0.0608
18489TIP3    H176958   4.811   1.935  15.618  1.7314 -0.6832 -2.7503
18489TIP3    H276959   4.962   1.943  15.622  1.6812  1.7542  2.4533
18490TIP3   OH276960   2.514   0.474  13.176 -0.4129 -0.6877  0.3058
18490TIP3    H176961   2.476   0.461  13.263 -1.3620  0.6374  0.1240
18490TIP3    H276962   2.516   0.387  13.137 -1.3274 -1.0914  1.1228
18491TIP3   OH276963   0.557   5.255  12.431  0.2878 -0.2527 -0.5298
18491TIP3    H176964   0.499   5.204  12.488  1.5123 -0.0563  0.9788
18491TIP3    H276965   0.576   5.196  12.357  0.1116 -1.2411  0.1930
18492TIP3   OH276966   6.355   6.055  13.987  0.8611 -0.4201 -0.2050
18492TIP3    H176967   6.444   6.091  13.989  1.0687 -0.8328 -1.1758
18492TIP3    H276968   6.367   5.961  13.971  0.4953 -1.8115  5.6512
18493TIP3   OH276969   1.869   0.623   2.650 -0.1259 -0.8762  0.0475
18493TIP3    H176970   1.895   0.531   2.637  1.3953 -0.8491  2.3236
18493TIP3    H276971   1.940   0.660   2.702 -1.0758  1.4273 -0.2114
18494TIP3   OH276972   1.284   2.527   6.451 -0.1625  0.5093  0.3002
18494TIP3    H176973   1.287   2.575   6.368  1.3905 -1.5215 -0.9284
18494TIP3    H276974   1.196   2.492   6.456 -0.2898  0.7130 -0.4469
18495TIP3   OH276975   5.601   4.091  11.516 -0.6491 -0.3166 -0.3902
18495TIP3    H176976   5.604   4.167  11.574  0.0493  1.5656 -2.7806
18495TIP3    H276977   5.692   4.068  11.501 -0.7161  0.4620 -2.2229
18496TIP3   OH276978   4.383   1.353  13.858  0.6258  0.2635  0.7702
18496TIP3    H176979   4.464   1.403  13.862  1.6323 -1.3645  1.6624
18496TIP3    H276980   4.399   1.285  13.793  0.7658 -1.3137  2.3770
18497TIP3   OH276981   6.793   5.397  15.469  0.3963 -0.5516 -0.2598
18497TIP3    H176982   6.750   5.379  15.553  0.4071  0.3115 -0.0610
18497TIP3    H276983   6.724   5.434  15.414  0.4205 -0.9957 -0.5968
18498TIP3   OH276984   2.858   4.661   5.279 -0.5821 -0.5105  0.3918
18498TIP3    H176985   2.895   4.732   5.330  0.8775 -0.8413 -0.1598
18498TIP3    H276986   2.797   4.703   5.218 -1.5588 -0.0117  1.6785
18499TIP3   OH276987   0.094   0.576  14.701  0.0422  0.5602  0.1725
18499TIP3    H176988   0.088   0.671  14.689 -0.3601  0.5920  0.6025
18499TIP3    H276989   0.136   0.565  14.786  0.6342  0.3456 -0.1405
18500TIP3   OH276990   3.483   2.055  13.093 -0.4740  0.0623 -0.4032
18500TIP3    H176991   3.547   2.127  13.098 -0.5388  0.0508  1.0534
18500TIP3    H276992   3.449   2.060  13.003  1.0626  0.4977 -0.9950
18501TIP3   OH276993   4.997   2.307   2.377  0.6952  0.4814  0.8570
18501TIP3    H176994   4.921   2.334   2.429 -0.0550  4.4467 -1.8149
18501TIP3    H276995   5.068   2.362   2.409  1.8665 -1.3599  1.5856
18502TIP3   OH276996   4.303   1.177   5.113 -0.1695 -0.0241  0.1736
18502TIP3    H176997   4.210   1.197   5.129 -0.6024 -1.6120 -0.0999
18502TIP3    H276998   4.320   1.210   5.025 -0.0076  1.6858  0.8164
18503TIP3   OH276999   1.851   0.722   0.113  0.0792 -0.3784  0.0060
18503TIP3    H177000   1.823   0.800   0.065 -1.7880  0.0150  1.6132
18503TIP3    H277001   1.780   0.660   0.102  0.1781 -0.7320  1.2160
18504TIP3   OH277002   5.008   4.433  12.906 -1.0666 -0.3569  0.4737
18504TIP3    H177003   5.067   4.494  12.864  0.0585 -1.3601  0.5427
18504TIP3    H277004   4.921   4.470  12.891 -0.5857  0.1923 -1.2569
18505TIP3   OH277005   5.618   2.410  13.424 -0.5321  0.5454 -0.1089
18505TIP3    H177006   5.679   2.340  13.400 -0.6770  0.8641 -1.4734
18505TIP3    H277007   5.531   2.372  13.411 -0.7243 -0.2073  2.6839
18506TIP3   OH277008   0.855   5.529  11.122  0.7065 -0.0809 -0.3709
18506TIP3    H177009   0.898   5.516  11.037 -0.1326 -0.7378 -0.7023
18506TIP3    H277010   0.762   5.513  11.106  0.7768 -2.5848  1.1268
18507TIP3   OH277011   2.804   3.267   3.722 -0.1427  0.6844  0.1882
18507TIP3    H177012   2.829   3.344   3.773 -0.7728  1.5504 -0.7590
18507TIP3    H277013   2.805   3.194   3.785 -1.7082  1.8415  1.6557
18508TIP3   OH277014   1.154   2.589  13.101  0.1910  0.2632  0.1587
18508TIP3    H177015   1.181   2.614  13.013  1.1366 -0.7818  0.1337
18508TIP3    H277016   1.141   2.672  13.147  1.2040  0.8194 -0.5207
18509TIP3   OH277017   6.692   1.532  11.263 -0.8044 -1.0603 -0.0605
18509TIP3    H177018   6.743   1.471  11.315 -1.3945 -1.2549  0.3036
18509TIP3    H277019   6.754   1.569  11.200 -0.2108 -1.2375  0.4185
18510TIP3   OH277020   3.690   6.335  17.012  0.2224  0.5351 -0.5867
18510TIP3    H177021   3.769   6.363  16.966  0.0088 -2.3996 -2.9871
18510TIP3    H277022   3.624   6.325  16.943 -1.1325 -0.7172  0.8183
18511TIP3   OH277023   2.486   4.859  17.073 -0.2050  0.0717 -0.7848
18511TIP3    H177024   2.578   4.832  17.077  0.7385  2.4870 -3.2157
18511TIP3    H277025   2.450   4.811  16.999 -0.5754  0.0333 -0.5808
18512TIP3   OH277026   2.550   2.165   1.447  0.7149 -0.1933 -0.4835
18512TIP3    H177027   2.626   2.199   1.494 -1.2967  1.8738  1.5652
18512TIP3    H277028   2.511   2.242   1.406  0.0935 -1.3233 -2.1136
18513TIP3   OH277029   6.134   4.748  16.351  0.0049  0.3760  0.3401
18513TIP3    H177030   6.144   4.839  16.378  0.9182  0.3835  0.0331
18513TIP3    H277031   6.080   4.753  16.272  0.3512  0.6942  0.1166
18514TIP3   OH277032   6.074   4.525  13.242 -1.0581 -0.3207  0.2982
18514TIP3    H177033   6.137   4.453  13.244 -0.5928  0.0679 -0.2303
18514TIP3    H277034   5.989   4.483  13.251 -0.7629 -0.9025  0.3968
18515TIP3   OH277035   3.960   4.745   4.889  0.6524 -0.1846 -0.1526
18515TIP3    H177036   4.048   4.718   4.916  0.0046 -0.9820  1.3005
18515TIP3    H277037   3.951   4.835   4.922  0.6518 -0.3868  0.4149
18516TIP3   OH277038   3.149   2.124  12.578 -0.1431 -0.0786  0.2026
18516TIP3    H177039   3.145   2.217  12.558 -0.2763 -0.1938 -0.3241
18516TIP3    H277040   3.237   2.110  12.613  0.5781 -0.0888 -1.5030
18517TIP3   OH277041   6.411   4.041  15.573  0.0426 -0.2844 -0.0229
18517TIP3    H177042   6.328   4.005  15.541 -0.4983 -0.9281  1.9375
18517TIP3    H277043   6.387   4.124  15.615  0.5164 -0.1218 -0.0632
18518TIP3   OH277044   5.100   0.350  11.715 -0.0176  0.0106 -0.4983
18518TIP3    H177045   5.144   0.283  11.663 -1.4085 -1.8367  0.5946
18518TIP3    H277046   5.031   0.383  11.658  1.0347  0.9979 -1.2501
18519TIP3   OH277047   5.799   3.087   5.608  0.3333  0.3149 -0.0291
18519TIP3    H177048   5.812   3.026   5.681 -1.1671 -1.9069 -1.4854
18519TIP3    H277049   5.720   3.135   5.630 -1.9451 -2.5028 -1.3740
18520TIP3   OH277050   2.155   5.257  16.980  0.5929 -0.0706  0.0287
18520TIP3    H177051   2.176   5.212  17.061  2.0393  1.1348  0.3721
18520TIP3    H277052   2.076   5.307  17.000 -0.8486 -2.1050 -0.2711
18521TIP3   OH277053   0.068   3.262  12.800 -0.4579 -0.4923 -0.3656
18521TIP3    H177054   0.052   3.353  12.777 -0.3631 -0.6160 -0.9364
18521TIP3    H277055  -0.019   3.222  12.801 -0.4917 -0.4165 -0.1979
18522TIP3   OH277056   6.695   0.383   4.413  0.1660  0.8117  0.3084
18522TIP3    H177057   6.782   0.386   4.453 -0.1420  0.1667  1.0661
18522TIP3    H277058   6.667   0.292   4.426 -0.4202  0.8939 -0.3632
18523TIP3   OH277059   5.567   1.366   4.069  0.2900 -0.2318 -0.0767
18523TIP3    H177060   5.647   1.401   4.031  0.8373 -0.0992  1.1388
18523TIP3    H277061   5.527   1.314   4.000 -0.0166  1.9162 -1.6416
18524TIP3   OH277062   2.918   0.552   5.202  0.1253 -0.2740  0.3835
18524TIP3    H177063   3.002   0.515   5.175  0.2209  0.7117 -0.7939
18524TIP3    H277064   2.941   0.634   5.246 -0.1270 -1.0664  2.0370
18525TIP3   OH277065   5.253   4.261   1.718 -0.6590  0.5332 -0.3070
18525TIP3    H177066   5.182   4.280   1.657 -1.8588  1.8213  1.3738
18525TIP3    H277067   5.234   4.174   1.751 -2.7419  1.6055  1.6309
18526TIP3   OH277068   1.050   1.902  15.970 -0.1988  0.0916 -0.3553
18526TIP3    H177069   1.136   1.944  15.976 -0.0110 -0.4996  2.5028
18526TIP3    H277070   1.065   1.825  15.915  1.0099  0.2254 -0.2412
18527TIP3   OH277071   4.646   1.059   2.367 -0.0868 -0.4909 -0.3607
18527TIP3    H177072   4.715   1.087   2.427 -0.7871 -0.2824  0.3714
18527TIP3    H277073   4.603   0.986   2.411 -0.9250 -0.0209 -0.3570
18528TIP3   OH277074   1.552   4.616   4.312 -0.0516 -0.7490 -0.3660
18528TIP3    H177075   1.569   4.538   4.260 -0.0352 -0.4679 -0.7822
18528TIP3    H277076   1.523   4.582   4.397 -0.6761 -1.2031 -0.7549
18529TIP3   OH277077   3.038   2.186  15.273  0.5316  0.2567  0.1078
18529TIP3    H177078   3.044   2.261  15.332 -1.2620 -1.2052  2.3340
18529TIP3    H277079   2.945   2.181  15.249  0.7334 -0.8705 -0.5277
18530TIP3   OH277080   3.340   2.377  15.616 -0.9239  0.5616 -0.1375
18530TIP3    H177081   3.364   2.292  15.651  0.1873  1.5806  1.7393
18530TIP3    H277082   3.410   2.398  15.554 -0.8866  0.3810 -0.1566
18531TIP3   OH277083   0.583   1.252   2.423  0.4289  0.7348  0.7927
18531TIP3    H177084   0.592   1.333   2.372  1.8822  2.4878  3.5604
18531TIP3    H277085   0.490   1.249   2.446 -0.0583  0.4097 -1.0961
18532TIP3   OH277086   2.400   6.610  16.786 -0.3736  0.0022 -0.1068
18532TIP3    H177087   2.352   6.621  16.704 -0.5740  0.3381  0.0553
18532TIP3    H277088   2.490   6.592  16.759 -0.1744  1.3324 -0.3917
18533TIP3   OH277089   6.518   1.907  13.155 -0.0104 -0.5065  0.1950
18533TIP3    H177090   6.440   1.867  13.192  0.1887 -0.9067  0.1881
18533TIP3    H277091   6.531   1.986  13.207 -0.8144 -0.0591 -0.2563
18534TIP3   OH277092   4.750   5.159  15.020  0.0874  0.4455 -0.0046
18534TIP3    H177093   4.812   5.086  15.023  0.2910  0.5885 -0.5688
18534TIP3    H277094   4.666   5.120  15.045  0.6579  0.5663  2.3113
18535TIP3   OH277095   2.626   1.837  11.551  0.2845  0.0534  0.2082
18535TIP3    H177096   2.550   1.894  11.543 -1.1987 -2.0222 -1.2473
18535TIP3    H277097   2.625   1.808  11.642  0.2581  1.1956  0.5942
18536TIP3   OH277098   3.268   5.207  10.748  0.4380  0.5640  0.8316
18536TIP3    H177099   3.193   5.163  10.789 -0.0806  0.1676 -0.4776
18536TIP3    H277100   3.334   5.210  10.816  0.2477 -1.6768  1.1983
18537TIP3   OH277101   5.885   1.408  13.338  0.2654  0.3735 -0.4679
18537TIP3    H177102   5.871   1.427  13.430 -0.2747  0.4624 -0.5663
18537TIP3    H277103   5.824   1.466  13.292  0.1286 -0.0746 -0.8566
18538TIP3   OH277104   2.705   4.393   5.128  0.4398  0.3540 -0.0704
18538TIP3    H177105   2.761   4.409   5.053  2.1494  2.0330  1.4582
18538TIP3    H277106   2.754   4.330   5.182 -0.4746 -0.3573 -0.0482
18539TIP3   OH277107   5.724   4.908  15.507 -0.6715  0.1790 -0.2801
18539TIP3    H177108   5.660   4.837  15.518 -0.9293  0.5209  0.5064
18539TIP3    H277109   5.785   4.875  15.441 -2.5984  0.5257 -2.3555
18540TIP3   OH277110   0.152   4.446   0.099 -0.3850  0.5212  0.4711
18540TIP3    H177111   0.227   4.469   0.045 -1.4772  0.5128 -1.1256
18540TIP3    H277112   0.086   4.512   0.077 -1.4181 -0.4509  0.5496
18541TIP3   OH277113   3.467   6.504  12.027 -1.0483 -0.2289 -0.5142
18541TIP3    H177114   3.412   6.564  12.077 -1.8239  0.7793 -2.4561
18541TIP3    H277115   3.451   6.528  11.935  1.5964 -0.8324 -1.2030
18542TIP3   OH277116   1.772   4.257   3.284 -0.1614 -0.3364  0.3835
18542TIP3    H177117   1.833   4.225   3.351  0.9201 -0.1026 -0.4462
18542TIP3    H277118   1.824   4.257   3.204 -1.8925 -2.2764 -0.8488
18543TIP3   OH277119   5.403   1.053  10.534  0.1717 -0.2838 -0.2083
18543TIP3    H177120   5.489   1.018  10.558  0.9901  0.1569 -2.2647
18543TIP3    H277121   5.422   1.115  10.463 -1.9378 -1.0120 -1.4936
18544TIP3   OH277122   3.277   3.079   1.695 -0.2031  0.3087  0.4910
18544TIP3    H177123   3.258   3.171   1.674 -1.4651  0.3178  1.5439
18544TIP3    H277124   3.365   3.065   1.661  0.4401  2.2211  1.1799
18545TIP3   OH277125   6.017   3.959  10.945 -0.0278  0.0368 -0.0625
18545TIP3    H177126   6.007   3.962  10.850  1.1185 -1.3669 -0.2510
18545TIP3    H277127   6.090   4.017  10.964  0.7948 -0.9063 -0.2398
18546TIP3   OH277128   3.001   5.571   0.710 -0.7358 -0.4899 -0.5410
18546TIP3    H177129   3.018   5.493   0.763 -0.8066 -1.0227 -1.2816
18546TIP3    H277130   2.922   5.550   0.660 -1.0599  0.2680 -0.3643
18547TIP3   OH277131   6.378   4.975  15.834  0.1464 -0.1381 -0.2813
18547TIP3    H177132   6.325   4.977  15.914 -0.0251 -3.1442 -0.1810
18547TIP3    H277133   6.422   5.060  15.832 -0.5250  0.3882  2.5352
18548TIP3   OH277134   1.038   4.859   1.662  0.3881  0.0518  0.2445
18548TIP3    H177135   0.998   4.926   1.718 -0.4442  0.6694 -1.0468
18548TIP3    H277136   1.132   4.869   1.676  0.3148  1.8545 -0.3042
18549TIP3   OH277137   3.851   3.576   4.608 -0.1729 -0.0881  0.8431
18549TIP3    H177138   3.903   3.546   4.682 -0.1956 -1.1779  0.4355
18549TIP3    H277139   3.762   3.582   4.642 -0.3013 -1.2599  0.7299
18550TIP3   OH277140   4.926   5.118   0.245  0.4013  0.2073 -0.5611
18550TIP3    H177141   4.870   5.051   0.206  2.2064 -1.5645 -0.3240
18550TIP3    H277142   5.002   5.121   0.187  0.5912  1.7009 -0.2650
18551TIP3   OH277143   2.094   1.372  16.816  0.2975 -0.7520  0.6363
18551TIP3    H177144   2.127   1.404  16.901  1.5287  0.5046 -0.2734
18551TIP3    H277145   2.172   1.345  16.769 -0.2097 -0.0618 -0.6426
18552TIP3   OH277146   1.128   1.987   3.918  0.0364  0.5651  0.1919
18552TIP3    H177147   1.048   1.963   3.871 -0.3448 -0.0240  1.0994
18552TIP3    H277148   1.125   2.082   3.924 -1.2878  0.4881  1.3362
18553TIP3   OH277149   5.394   1.256  11.215 -0.1552  0.4856 -0.6969
18553TIP3    H177150   5.420   1.178  11.265 -0.6782  0.5079 -0.3711
18553TIP3    H277151   5.406   1.231  11.124 -0.1362  0.0834 -0.5891
18554TIP3   OH277152   1.983   0.251   0.351 -0.2245  0.2683  0.5410
18554TIP3    H177153   2.061   0.272   0.301  0.1501 -0.7751  0.6686
18554TIP3    H277154   1.972   0.157   0.341 -0.9107  0.2478  1.3197
18555TIP3   OH277155   4.944   5.243   5.509 -0.0366  0.4507 -0.0854
18555TIP3    H177156   4.910   5.158   5.536  0.9074 -0.3574 -1.3575
18555TIP3    H277157   4.927   5.300   5.584  0.0707 -1.0402  1.1193
18556TIP3   OH277158   1.862   1.426   4.147  0.2836  0.3170 -0.2043
18556TIP3    H177159   1.893   1.346   4.190  0.5781  1.4974  1.8920
18556TIP3    H277160   1.934   1.449   4.087  0.8574 -0.1822  0.2721
18557TIP3   OH277161   6.490   3.636   4.362 -0.6833 -0.4980  0.5400
18557TIP3    H177162   6.544   3.649   4.440 -0.1119 -0.5463  0.1667
18557TIP3    H277163   6.484   3.541   4.352  2.1064 -0.6165 -1.3301
18558TIP3   OH277164   5.788   5.657   5.468  0.9239  0.1394 -0.8441
18558TIP3    H177165   5.819   5.717   5.401 -0.6986 -0.4674 -2.2070
18558TIP3    H277166   5.857   5.591   5.475  1.2581  0.3946 -1.6972
18559TIP3   OH277167   6.394   2.510   1.359  0.8661  0.0244  0.1803
18559TIP3    H177168   6.439   2.584   1.400 -0.1692  0.0154  1.4044
18559TIP3    H277169   6.386   2.445   1.429  0.0698 -0.4573 -0.3434
18560TIP3   OH277170   6.289   5.887   2.999  0.3644  0.2323 -0.8468
18560TIP3    H177171   6.268   5.891   3.092 -0.6883 -2.1652 -0.9158
18560TIP3    H277172   6.357   5.953   2.987  0.5846  0.5384  1.6179
18561TIP3   OH277173   2.097   0.405  12.909 -0.8799  0.0510  0.1222
18561TIP3    H177174   2.149   0.435  12.983  1.0290 -0.6842 -0.8268
18561TIP3    H277175   2.133   0.319  12.888 -1.3716  0.2335 -1.6365
18562TIP3   OH277176   6.342   6.433   1.669 -0.0779 -0.2279  0.2440
18562TIP3    H177177   6.407   6.502   1.655 -1.9333  1.9663  1.6919
18562TIP3    H277178   6.337   6.387   1.586  3.2340 -0.4740  0.0613
18563TIP3   OH277179   4.146   4.360  13.155  0.1280  0.1804  0.2737
18563TIP3    H177180   4.172   4.438  13.204 -0.6214  0.9352 -0.4976
18563TIP3    H277181   4.063   4.384  13.114 -0.8021 -1.4987  1.1063
18564TIP3   OH277182   2.580   4.099   6.115  0.2567 -0.2298 -0.0630
18564TIP3    H177183   2.510   4.036   6.131 -0.6633  0.3437 -1.5823
18564TIP3    H277184   2.547   4.181   6.152  1.5318 -0.6302  2.0866
18565TIP3   OH277185   5.619   0.081  15.921 -0.6337 -0.0286  0.3191
18565TIP3    H177186   5.552   0.039  15.974 -1.8022 -0.7053 -1.5778
18565TIP3    H277187   5.589   0.171  15.911 -1.1471 -0.2577 -0.2894
18566TIP3   OH277188   0.541   4.186   1.134  1.2430 -0.1467  0.2079
18566TIP3    H177189   0.590   4.268   1.140 -1.1339  1.5148 -1.7043
18566TIP3    H277190   0.551   4.159   1.043  1.1028 -1.4478  0.5584
18567TIP3   OH277191   1.997   6.394  14.031  0.5836  0.4464  0.6101
18567TIP3    H177192   1.920   6.439  14.066  0.0058 -1.0442  1.3584
18567TIP3    H277193   1.964   6.310  14.001  1.4323  0.9024 -1.7821
18568TIP3   OH277194   4.895   2.448   1.589 -0.4551  0.1154 -0.6985
18568TIP3    H177195   4.864   2.426   1.501  0.4657  0.8269 -1.2216
18568TIP3    H277196   4.923   2.365   1.626 -1.7766 -0.3527 -0.6758
18569TIP3   OH277197   5.127   3.879   0.333 -0.0047 -0.2725 -0.6416
18569TIP3    H177198   5.219   3.856   0.344  0.7398  1.1748 -3.0244
18569TIP3    H277199   5.127   3.975   0.336 -1.1748 -0.2017 -2.2128
18570TIP3   OH277200   3.271   1.281   5.891 -0.0563 -0.4222 -0.4401
18570TIP3    H177201   3.268   1.261   5.797  1.0323  1.7043 -1.0011
18570TIP3    H277202   3.300   1.199   5.932  0.2838 -1.1463 -2.0575
18571TIP3   OH277203   5.368   5.879   4.565 -0.0570 -0.1619  0.0921
18571TIP3    H177204   5.289   5.827   4.580 -0.0970 -0.3450 -0.7199
18571TIP3    H277205   5.370   5.941   4.638 -1.1540  0.0984 -0.0847
18572TIP3   OH277206   1.885   2.202  15.219  0.0586 -0.3161 -0.2813
18572TIP3    H177207   1.976   2.211  15.191  0.1698 -0.3077  0.0720
18572TIP3    H277208   1.862   2.287  15.255  0.2250 -0.6020  0.5185
18573TIP3   OH277209   4.443   3.958   2.789  0.0947  0.0730  0.8860
18573TIP3    H177210   4.519   3.976   2.733 -1.8599  1.7358 -1.4154
18573TIP3    H277211   4.394   3.891   2.741 -1.2215  0.9541  0.9783
18574TIP3   OH277212   6.051   2.253  11.742  0.9253  0.6007  0.5648
18574TIP3    H177213   6.011   2.321  11.688 -0.0502 -0.3599  0.0501
18574TIP3    H277214   6.037   2.282  11.832  4.4884  3.3649  0.4719
18575TIP3   OH277215   1.602   2.891   1.512  0.2308  0.0402  0.1471
18575TIP3    H177216   1.563   2.878   1.599 -1.6641 -0.9869 -0.7825
18575TIP3    H277217   1.609   2.803   1.476  0.9464  0.4648 -0.7716
18576TIP3   OH277218   3.106   5.905   4.025 -0.2133 -0.4237 -0.4740
18576TIP3    H177219   3.084   5.903   4.118 -0.1086  0.0986 -0.4311
18576TIP3    H277220   3.163   5.982   4.016 -1.1685  0.2212 -1.1752
18577TIP3   OH277221   2.549   1.343   4.459 -0.3810 -0.0513 -0.5132
18577TIP3    H177222   2.545   1.319   4.367  0.1981  1.1564 -0.8755
18577TIP3    H277223   2.606   1.277   4.498  0.4021  0.1336 -1.2916
18578TIP3   OH277224   3.792   0.125   1.588  0.8667 -0.5746 -0.3922
18578TIP3    H177225   3.851   0.159   1.656  1.5722  0.9053 -1.6789
18578TIP3    H277226   3.818   0.034   1.576  0.0784 -1.1808  1.9688
18579TIP3   OH277227   2.888   5.572  14.755  0.0645  0.0380  0.0194
18579TIP3    H177228   2.944   5.562  14.832 -0.4532  1.8003  0.6790
18579TIP3    H277229   2.800   5.580  14.790 -0.1135  1.4913 -0.6626
18580TIP3   OH277230   1.707   2.001  15.167 -0.0178 -0.4145 -0.3822
18580TIP3    H177231   1.743   1.975  15.082 -0.5550  1.8320 -1.3933
18580TIP3    H277232   1.751   2.084  15.187 -0.1835 -0.7131  1.3734
18581TIP3   OH277233   2.588   1.305  14.138  0.2120  0.1882  0.5617
18581TIP3    H177234   2.639   1.224  14.128 -1.8583 -1.2636  1.1816
18581TIP3    H277235   2.650   1.375  14.115  2.3591 -1.4771  0.9548
18582TIP3   OH277236   2.487   2.156  11.893  0.4248  0.5367 -0.5176
18582TIP3    H177237   2.417   2.207  11.933  0.4370  0.8321 -0.8626
18582TIP3    H277238   2.550   2.141  11.963  1.9427  3.6336 -1.0507
18583TIP3   OH277239   6.030   6.499  12.972 -0.2621  0.3142 -0.4510
18583TIP3    H177240   5.964   6.494  12.902  0.1142  0.8518 -0.8518
18583TIP3    H277241   6.084   6.575  12.949  1.8987 -1.4030 -1.3414
18584TIP3   OH277242   2.554   0.397   6.016  1.1566 -0.6001  0.1642
18584TIP3    H177243   2.533   0.459   6.085 -2.5455 -2.3327  0.8824
18584TIP3    H277244   2.521   0.439   5.936  0.7702 -0.6421  0.2958
18585TIP3   OH277245   4.444   1.081  13.735 -0.0119  0.4864  0.3013
18585TIP3    H177246   4.519   1.030  13.765 -1.9885 -2.7570  0.2144
18585TIP3    H277247   4.446   1.074  13.639  0.3694  1.6935  0.2038
18586TIP3   OH277248   0.422   1.556   5.273  0.5202  0.1158 -0.7476
18586TIP3    H177249   0.409   1.507   5.192 -0.4671 -0.3850 -0.3065
18586TIP3    H277250   0.370   1.635   5.262 -0.4243 -0.4144 -0.2283
18587TIP3   OH277251   1.968   6.067   4.887 -0.4966  0.7535 -0.5582
18587TIP3    H177252   2.016   6.129   4.941 -0.9247  0.8163 -0.2394
18587TIP3    H277253   1.896   6.118   4.851 -1.6623  0.1450  0.8079
18588TIP3   OH277254   5.229   4.266   6.203  0.4444 -0.3093  0.2171
18588TIP3    H177255   5.233   4.306   6.116 -0.8294 -2.7697 -1.0844
18588TIP3    H277256   5.224   4.339   6.264  0.6684  1.4846 -1.8203
18589TIP3   OH277257   6.281   3.573   5.378  0.8360 -0.1594  0.0443
18589TIP3    H177258   6.205   3.598   5.324  0.7328  0.7148  0.5758
18589TIP3    H277259   6.347   3.547   5.314  0.0151 -1.1691 -0.4165
18590TIP3   OH277260   4.255   3.202  13.840  0.1918 -0.4601  0.0908
18590TIP3    H177261   4.277   3.130  13.781  0.9012 -0.2498  0.0922
18590TIP3    H277262   4.223   3.159  13.919 -3.6850 -0.7810 -1.4108
18591TIP3   OH277263   4.464   1.439  15.478 -0.2815  0.3110  0.2673
18591TIP3    H177264   4.424   1.353  15.466  0.3197 -0.1716  1.5478
18591TIP3    H277265   4.532   1.425  15.544  0.5525  1.5542 -0.2815
18592TIP3   OH277266   6.612   2.164  14.014 -0.4226 -0.3001  0.0332
18592TIP3    H177267   6.635   2.134  13.926  0.3390 -0.2434  0.2048
18592TIP3    H277268   6.683   2.224  14.037 -1.2256  0.5755  0.2316
18593TIP3   OH277269   2.582   1.142  16.505 -0.6841 -0.5867 -0.5077
18593TIP3    H177270   2.665   1.106  16.475 -0.3848 -1.0013  0.7498
18593TIP3    H277271   2.543   1.072  16.558 -1.0748  0.1744  0.2424
18594TIP3   OH277272   4.917   2.395   4.021 -0.8830  0.1185 -0.1411
18594TIP3    H177273   4.822   2.401   4.035 -0.9039  1.0048 -0.5716
18594TIP3    H277274   4.947   2.330   4.085 -1.5640  0.9152  1.0327
18595TIP3   OH277275   6.216   3.886  14.436  0.2385 -0.4957 -0.3209
18595TIP3    H177276   6.131   3.891  14.392 -0.0059  1.2136  0.2837
18595TIP3    H277277   6.269   3.828  14.381 -1.2149 -1.3531 -0.8593
18596TIP3   OH277278   3.482   2.488   0.910 -0.1722 -0.2991 -0.0857
18596TIP3    H177279   3.434   2.515   0.988 -0.4688 -1.0678  0.0127
18596TIP3    H277280   3.540   2.561   0.891  1.2526 -0.7870  1.9549
18597TIP3   OH277281   0.681   1.524   3.765  0.1018 -0.8649  0.9411
18597TIP3    H177282   0.655   1.614   3.786  0.7693 -0.6795  0.9976
18597TIP3    H277283   0.777   1.526   3.768  0.1698 -1.2833 -0.2140
18598TIP3   OH277284   6.085   2.046   1.531 -0.1791 -0.4210  0.4279
18598TIP3    H177285   6.068   1.957   1.562 -0.8277 -0.6681 -0.5867
18598TIP3    H277286   6.094   2.037   1.437 -0.8535  0.6748  0.2442
18599TIP3   OH277287   1.182   5.373  11.212 -0.0612  0.2296 -0.5058
18599TIP3    H177288   1.174   5.364  11.117 -0.4765  1.2412 -0.5842
18599TIP3    H277289   1.093   5.360  11.245 -0.0908  0.8206 -0.3475
18600TIP3   OH277290   6.280   6.807  13.607 -0.0533 -0.1867 -0.3955
18600TIP3    H177291   6.340   6.853  13.666 -2.4934  1.5098  0.9470
18600TIP3    H277292   6.240   6.739  13.662  0.3560 -1.0946 -1.1882
18601TIP3   OH277293   4.575   0.310  13.160  0.5197 -0.3036  0.0023
18601TIP3    H177294   4.644   0.307  13.226  1.3137 -1.5658 -0.8281
18601TIP3    H277295   4.619   0.283  13.079 -1.0324 -1.5805 -0.4522
18602TIP3   OH277296   1.735   1.782  15.329 -0.6741 -0.1046  0.0947
18602TIP3    H177297   1.712   1.866  15.290  0.0670 -0.3299 -0.8716
18602TIP3    H277298   1.757   1.726  15.254 -0.7901 -1.0471  0.7456
18603TIP3   OH277299   4.399   6.073  14.580  0.1685 -0.1233  0.0046
18603TIP3    H177300   4.372   6.021  14.655  1.2799  1.2731  1.4538
18603TIP3    H277301   4.475   6.123  14.611  0.2199  1.0565 -1.8185
18604TIP3   OH277302   4.338   3.132   1.102 -0.0565  0.1392  0.2205
18604TIP3    H177303   4.283   3.061   1.071 -0.1135  0.0497  0.5210
18604TIP3    H277304   4.396   3.153   1.028 -0.3811  0.1222 -0.0373
18605TIP3   OH277305   2.210   6.384  14.604  0.0900 -0.7880  0.5549
18605TIP3    H177306   2.246   6.470  14.629 -1.7396  0.4649 -0.8495
18605TIP3    H277307   2.243   6.369  14.516 -0.5507 -0.9726  0.3478
18606TIP3   OH277308   5.984   4.952   0.746 -0.3868  0.0100  0.1560
18606TIP3    H177309   5.965   4.867   0.706  3.9356 -0.4529 -1.4714
18606TIP3    H277310   5.946   5.015   0.685  0.1678 -0.7871 -1.0839
18607TIP3   OH277311   6.283   3.071  13.928  0.0820 -0.1312  0.3798
18607TIP3    H177312   6.204   3.101  13.974  0.0395  0.4276 -0.0385
18607TIP3    H277313   6.301   3.140  13.865  0.0633 -0.9418 -0.5351
18608TIP3   OH277314   3.835   6.512  15.549 -0.1767  0.3556  0.2735
18608TIP3    H177315   3.799   6.544  15.466 -0.6004 -0.3153  0.1929
18608TIP3    H277316   3.925   6.544  15.550 -0.8495  2.3578  0.6360
18609TIP3   OH277317   4.073   0.952  16.436 -0.1520 -0.4977 -0.4227
18609TIP3    H177318   4.016   0.903  16.495  0.4448  0.3362  0.8862
18609TIP3    H277319   4.157   0.956  16.482  0.7381 -0.9640 -1.9309
18610TIP3   OH277320   1.473   5.290  14.962 -0.3777  0.2139 -0.1739
18610TIP3    H177321   1.409   5.288  14.891 -0.3453  0.8393 -0.2334
18610TIP3    H277322   1.425   5.326  15.036 -0.3339 -0.1707  0.0435
18611TIP3   OH277323   0.998   3.306  16.810 -0.3618  0.3259  0.5081
18611TIP3    H177324   0.988   3.390  16.765 -1.9444  0.5351  1.1925
18611TIP3    H277325   0.951   3.317  16.893  0.8201 -0.6963  1.3530
18612TIP3   OH277326   3.536   1.111  15.623 -0.1023 -0.4826 -0.1188
18612TIP3    H177327   3.547   1.123  15.529 -0.9019 -0.1256 -0.1743
18612TIP3    H277328   3.442   1.121  15.638 -0.1168 -1.5520  0.5774
18613TIP3   OH277329   3.624   2.665   5.543 -0.2991  0.6600  0.0988
18613TIP3    H177330   3.565   2.593   5.566  0.0615  0.2536 -0.2409
18613TIP3    H277331   3.695   2.624   5.494  0.4015  1.1115  0.7221
18614TIP3   OH277332   1.760   3.781  14.984  0.2354 -0.6820 -0.0356
18614TIP3    H177333   1.748   3.846  14.914  0.4859 -0.3995  0.1846
18614TIP3    H277334   1.686   3.796  15.043  0.6718 -0.1297  0.3811
18615TIP3   OH277335   0.526   0.670  15.031  0.1970  0.3181  0.0069
18615TIP3    H177336   0.555   0.660  15.122  0.7053  1.8425  0.0427
18615TIP3    H277337   0.602   0.648  14.978  0.0484 -0.0860 -0.0440
18616TIP3   OH277338   3.843   6.373  13.007 -0.7298 -0.4473 -0.0439
18616TIP3    H177339   3.930   6.333  13.014 -0.1408  0.4860 -1.4174
18616TIP3    H277340   3.828   6.413  13.092  0.4443 -0.1362  0.0403
18617TIP3   OH277341   0.850   5.667   5.624  0.2656 -0.0147 -0.9031
18617TIP3    H177342   0.914   5.681   5.694  2.0959 -1.5397 -2.1667
18617TIP3    H277343   0.865   5.740   5.564  1.0611 -0.5079 -1.3272
18618TIP3   OH277344   3.959   0.069   2.741 -0.5408  0.1637  0.2588
18618TIP3    H177345   3.896   0.139   2.756 -0.5644 -0.1440  1.8365
18618TIP3    H277346   4.005   0.061   2.825  2.2801  1.0108 -1.0734
18619TIP3   OH277347   3.960   2.619  14.535 -0.2253 -0.5179  0.1732
18619TIP3    H177348   4.050   2.601  14.510  0.1449  1.3004  0.0532
18619TIP3    H277349   3.958   2.606  14.630  0.5249  0.7095  0.3778
18620TIP3   OH277350   6.732   5.294   4.961 -0.1566 -0.4301  0.2686
18620TIP3    H177351   6.792   5.367   4.973 -0.5320 -0.0486 -0.1523
18620TIP3    H277352   6.786   5.216   4.973  1.4517 -0.2545 -4.1112
18621TIP3   OH277353   6.284   3.045   5.203  0.2545  0.3835 -0.5855
18621TIP3    H177354   6.235   3.075   5.280 -2.9668 -0.7283 -2.0303
18621TIP3    H277355   6.331   3.122   5.172  0.5898  1.1763  1.6859
18622TIP3   OH277356   4.818   5.270  13.557  0.3452  0.3051 -0.0961
18622TIP3    H177357   4.814   5.218  13.637 -2.7271  0.7524  0.1541
18622TIP3    H277358   4.874   5.344  13.578  3.9152 -2.1069 -0.1084
18623TIP3   OH277359   2.098   3.251   5.664 -0.0018  0.0852  0.2573
18623TIP3    H177360   2.187   3.282   5.681  0.3426 -1.5685  1.7239
18623TIP3    H277361   2.047   3.281   5.739  0.1461 -1.9973  1.2478
18624TIP3   OH277362   1.671   3.566  13.953 -0.2621 -0.3151  0.6273
18624TIP3    H177363   1.639   3.486  13.995 -1.5858  0.5380  1.2654
18624TIP3    H277364   1.765   3.566  13.971 -0.3842 -1.2892  1.3432
18625TIP3   OH277365   4.677   0.458  16.153 -0.0546 -0.1102  0.0162
18625TIP3    H177366   4.711   0.514  16.083 -2.1473  0.9677 -0.2345
18625TIP3    H277367   4.692   0.507  16.233 -0.6107  0.1782 -0.0516
18626TIP3   OH277368   0.548   4.327   5.474  0.2357  0.6777  0.0083
18626TIP3    H177369   0.610   4.390   5.437  1.4126 -1.0856 -1.1916
18626TIP3    H277370   0.592   4.294   5.553  0.1530  0.4955 -0.0220
18627TIP3   OH277371   4.090   0.922  11.638  0.1198 -0.0260  0.4150
18627TIP3    H177372   4.175   0.897  11.674  1.2737  0.7301 -1.6366
18627TIP3    H277373   4.070   1.006  11.680  0.5534 -0.0250  0.6319
18628TIP3   OH277374   6.250   5.825   5.819  0.2647 -0.5475  0.1911
18628TIP3    H177375   6.229   5.743   5.865  0.4897 -0.6959  0.0325
18628TIP3    H277376   6.175   5.881   5.835  1.1450  0.1130  2.3811
18629TIP3   OH277377   4.558   5.011   3.654  0.2370 -0.0021  0.5813
18629TIP3    H177378   4.500   5.010   3.578 -0.1105 -0.3259  0.8486
18629TIP3    H277379   4.646   5.013   3.617  0.0561  0.8597  0.1737
18630TIP3   OH277380   1.885   6.757   5.598  0.9062 -0.3973  0.3201
18630TIP3    H177381   1.837   6.737   5.517 -1.3977  0.1296  1.4566
18630TIP3    H277382   1.825   6.730   5.668  2.4110  0.0909  1.8596
18631TIP3   OH277383   4.189   1.218  11.639 -0.7063 -0.1543 -0.3721
18631TIP3    H177384   4.179   1.255  11.551 -0.6503 -0.5164 -0.5291
18631TIP3    H277385   4.268   1.260  11.673 -1.3307  0.8191 -0.0723
18632TIP3   OH277386   1.345   3.141   2.055  0.1562  0.4570 -0.0346
18632TIP3    H177387   1.259   3.115   2.086 -0.1988  2.2657  0.6173
18632TIP3    H277388   1.401   3.065   2.073 -0.7202  0.2509  2.0996
18633TIP3   OH277389   2.453   1.813  12.099  0.4963 -0.2605  0.3910
18633TIP3    H177390   2.463   1.831  12.006 -1.3629 -0.7324  0.0429
18633TIP3    H277391   2.417   1.724  12.102 -0.2358  0.0427  1.4881
18634TIP3   OH277392   2.910   1.505   4.252  0.3848 -0.1969  0.1169
18634TIP3    H177393   2.958   1.439   4.302  0.5241  0.7011  1.2136
18634TIP3    H277394   2.963   1.585   4.262  0.9878 -0.1910 -2.3385
18635TIP3   OH277395   2.889   2.992   2.816 -0.4955 -0.7940  0.4348
18635TIP3    H177396   2.922   2.943   2.741 -0.8967 -2.0767  1.0689
18635TIP3    H277397   2.966   3.002   2.873 -0.4905 -1.0203  0.4701
18636TIP3   OH277398   6.615   0.649   0.152 -0.6920 -0.4350  0.0684
18636TIP3    H177399   6.592   0.675   0.063 -3.1400 -2.1767  0.0720
18636TIP3    H277400   6.570   0.714   0.207  0.6401  0.5111  0.0874
18637TIP3   OH277401   3.034   4.517  15.957 -0.6747  0.0971 -0.0786
18637TIP3    H177402   3.116   4.467  15.950  1.4859  3.4297 -0.6740
18637TIP3    H277403   3.060   4.599  15.999 -3.8085  1.1818 -0.0390
18638TIP3   OH277404   5.482   2.810  12.141 -0.1013  0.6267 -0.5743
18638TIP3    H177405   5.523   2.776  12.061  2.2510  2.0163 -0.0542
18638TIP3    H277406   5.518   2.755  12.211 -1.4765 -0.0227 -0.3423
18639TIP3   OH277407   4.660   5.918  12.875  0.7201  0.0011 -0.0471
18639TIP3    H177408   4.655   5.977  12.951  2.8878  0.2567 -0.0247
18639TIP3    H277409   4.709   5.843  12.907 -0.7875 -1.2120 -0.4838
18640TIP3   OH277410   5.219   4.071  11.931 -0.0810 -0.3043  0.4171
18640TIP3    H177411   5.173   4.074  12.015 -0.1324 -3.8680  0.6753
18640TIP3    H277412   5.290   4.134  11.941 -2.2526  2.1245  1.6424
18641TIP3   OH277413   1.450   3.618   2.718 -0.2143  0.4800 -0.5744
18641TIP3    H177414   1.417   3.707   2.725 -0.9807  0.0844  1.5548
18641TIP3    H277415   1.374   3.563   2.738  1.2097 -0.4855  2.9100
18642TIP3   OH277416   6.639   6.167  12.286 -0.3260  0.4954 -0.1720
18642TIP3    H177417   6.563   6.108  12.278  0.6249 -0.6652 -1.0303
18642TIP3    H277418   6.712   6.116  12.251  1.1494  1.0783  1.9144
18643TIP3   OH277419   5.019   1.998   2.399 -0.2042  0.0857  0.3956
18643TIP3    H177420   4.956   2.069   2.386  0.0486 -0.1499 -2.7745
18643TIP3    H277421   5.101   2.043   2.422 -0.6256  0.6152  0.9171
18644TIP3   OH277422   2.931   5.020  14.441 -0.2656 -0.1579 -0.4906
18644TIP3    H177423   2.932   5.111  14.471  0.3173  0.0085 -0.9928
18644TIP3    H277424   3.018   4.987  14.461 -0.6245 -0.7576  0.1211
18645TIP3   OH277425   5.569   4.752   2.477  0.3625 -0.3030 -0.0213
18645TIP3    H177426   5.651   4.787   2.443  0.4568  0.8378  1.2740
18645TIP3    H277427   5.583   4.658   2.482  1.0941 -0.2692 -1.0661
18646TIP3   OH277428   1.479   4.810   3.466  0.2086 -0.0243 -0.1547
18646TIP3    H177429   1.513   4.727   3.500 -2.1713 -0.5469  1.2011
18646TIP3    H277430   1.496   4.873   3.537  0.1502  0.1588 -0.3029
18647TIP3   OH277431   1.867   0.266  14.210  0.2633 -0.0967 -0.3429
18647TIP3    H177432   1.787   0.296  14.166 -0.0399 -1.0956 -0.5109
18647TIP3    H277433   1.928   0.338  14.202 -0.4072  0.4285 -0.8039
18648TIP3   OH277434   1.366   0.799  13.077 -0.4337 -0.0069  0.4990
18648TIP3    H177435   1.425   0.793  13.002 -1.7214  1.3992 -0.6732
18648TIP3    H277436   1.380   0.887  13.112 -1.3278  0.0852  0.6436
18649TIP3   OH277437   0.919   3.946   4.334  0.7595  0.1483  0.4066
18649TIP3    H177438   0.930   3.863   4.380  0.2110 -0.4436 -0.4980
18649TIP3    H277439   0.824   3.953   4.320  0.8909  0.4542 -0.3635
18650TIP3   OH277440   5.140   0.908   0.136  0.1425  0.1081 -0.3963
18650TIP3    H177441   5.153   0.821   0.097  1.2732 -0.2482  0.6842
18650TIP3    H277442   5.190   0.904   0.218 -1.0424  1.2750  0.4113
18651TIP3   OH277443   0.702   2.327   4.566  0.2172 -0.4337 -0.9798
18651TIP3    H177444   0.692   2.232   4.570 -1.2449 -0.2953 -0.9455
18651TIP3    H277445   0.652   2.354   4.489  1.9111  0.1790 -1.9218
18652TIP3   OH277446   1.731   2.659  13.089 -0.5701  0.1353  0.2482
18652TIP3    H177447   1.768   2.572  13.107  0.3460  0.5326  0.3568
18652TIP3    H277448   1.674   2.677  13.163  1.5730  0.8808  1.8330
18653TIP3   OH277449   1.084   0.614   1.301 -0.0103  0.3066 -0.2524
18653TIP3    H177450   1.055   0.702   1.326  2.8055  1.9610 -2.1267
18653TIP3    H277451   1.100   0.569   1.384  0.4819  2.3465  0.8317
18654TIP3   OH277452   3.633   4.073  14.729 -0.5193 -0.1083  0.0874
18654TIP3    H177453   3.583   4.087  14.809 -1.5635  0.2968 -0.6178
18654TIP3    H277454   3.695   4.146  14.727 -0.4333 -0.1662  0.5652
18655TIP3   OH277455   6.677   0.802   3.089  0.2240  0.6890  0.0602
18655TIP3    H177456   6.730   0.736   3.135  0.4681  0.1611 -0.9536
18655TIP3    H277457   6.661   0.764   3.003  0.5593  2.0420 -0.6312
18656TIP3   OH277458   6.463   0.043  16.359  0.0948  0.5978  0.2975
18656TIP3    H177459   6.447   0.137  16.351 -1.1048  0.5923  2.0697
18656TIP3    H277460   6.496   0.017  16.273  0.1822  2.5771 -0.3138
18657TIP3   OH277461   3.410   2.499  12.664  0.1003  0.3393  0.0897
18657TIP3    H177462   3.488   2.486  12.718  0.1572 -0.3701 -0.1520
18657TIP3    H277463   3.389   2.592  12.675  0.4024  0.3234  0.9333
18658TIP3   OH277464   0.925   3.030   2.544  0.4957  0.3300  0.7255
18658TIP3    H177465   0.837   3.066   2.554  0.1922 -0.6073  1.6063
18658TIP3    H277466   0.960   3.073   2.466 -0.1266  1.9341  1.2909
18659TIP3   OH277467   4.733   0.437  13.851  0.5162 -0.0405 -0.2603
18659TIP3    H177468   4.787   0.359  13.869 -0.2319 -0.3193  0.8731
18659TIP3    H277469   4.790   0.511  13.873  0.1361 -0.3432  2.0815
18660TIP3   OH277470   2.561   5.650  12.281 -0.5031 -0.6002 -1.0022
18660TIP3    H177471   2.531   5.597  12.355 -0.2650  2.7310  1.7640
18660TIP3    H277472   2.652   5.625  12.267 -0.7764 -1.7951 -0.6976
18661TIP3   OH277473   4.631   4.603  11.281  0.0019 -0.6430 -0.0504
18661TIP3    H177474   4.548   4.641  11.254  0.0748 -0.3065  0.1943
18661TIP3    H277475   4.608   4.522  11.325 -0.1868 -0.6151 -0.0986
18662TIP3   OH277476   5.642   5.130   3.613  0.6761 -0.6546 -0.8111
18662TIP3    H177477   5.614   5.202   3.557 -1.3100 -0.2339  0.6280
18662TIP3    H277478   5.563   5.077   3.626  0.9219 -0.4930  1.8988
18663TIP3   OH277479   2.537   0.123  11.000 -0.0042 -0.3074  0.1101
18663TIP3    H177480   2.617   0.127  10.947 -0.3367  0.1748 -0.3640
18663TIP3    H277481   2.523   0.030  11.014 -1.3519 -0.6754 -2.8774
18664TIP3   OH277482   4.802   1.582   3.716  0.1996  0.0001 -0.5126
18664TIP3    H177483   4.797   1.671   3.683  3.1177  0.1286 -0.9108
18664TIP3    H277484   4.835   1.592   3.806 -0.0418 -0.6559 -0.3433
18665TIP3   OH277485   1.598   0.083  12.713 -0.4189 -0.4304 -0.5780
18665TIP3    H177486   1.516   0.065  12.759 -1.1242  0.4854 -1.4002
18665TIP3    H277487   1.660   0.106  12.782 -0.7145 -1.5727  0.0929
18666TIP3   OH277488   4.492   0.502   2.315 -0.7695 -0.2116 -0.6876
18666TIP3    H177489   4.405   0.465   2.301 -0.8845 -0.8479  1.3599
18666TIP3    H277490   4.480   0.565   2.385  0.4152 -0.2820 -0.3967
18667TIP3   OH277491   5.554   4.835   4.232 -0.3589 -0.6414  0.2076
18667TIP3    H177492   5.623   4.775   4.204  0.0769 -0.5893  1.1390
18667TIP3    H277493   5.592   4.922   4.221 -0.1424 -0.6225  1.0260
18668TIP3   OH277494   3.844   3.774  11.994  0.1448 -0.6313 -0.4684
18668TIP3    H177495   3.793   3.697  12.021  1.5613 -0.2129  4.1449
18668TIP3    H277496   3.935   3.743  11.994  0.4696 -0.2443 -4.3607
18669TIP3   OH277497   2.000   1.245   3.632  0.1091 -0.0164  0.2368
18669TIP3    H177498   2.040   1.200   3.557  2.3317  2.1815 -0.0159
18669TIP3    H277499   2.040   1.203   3.708 -0.8593 -1.0910  0.1871
18670TIP3   OH277500   3.388   6.794   1.399  0.0333 -0.2174  0.1367
18670TIP3    H177501   3.327   6.866   1.385  0.7544 -0.1069 -2.9993
18670TIP3    H277502   3.444   6.824   1.471  0.3552  2.4067 -1.1101
18671TIP3   OH277503   2.434   3.310   3.445  0.5041 -0.5937  0.7195
18671TIP3    H177504   2.389   3.333   3.526  0.4342  0.3846  0.4103
18671TIP3    H277505   2.526   3.300   3.470  0.2831 -1.6393  1.1672
18672TIP3   OH277506   6.522   4.628   0.050  0.2715 -0.5076  0.2349
18672TIP3    H177507   6.443   4.660   0.094 -0.4530 -0.5671 -0.9960
18672TIP3    H277508   6.503   4.537   0.029  1.2474 -0.9649  1.2113
18673TIP3   OH277509   1.255   2.261   5.260 -0.4615 -0.0687  0.4074
18673TIP3    H177510   1.327   2.265   5.324 -1.3649 -2.4535  1.6867
18673TIP3    H277511   1.177   2.284   5.310 -1.3195 -2.8834  0.5160
18674TIP3   OH277512   2.474   3.009   4.845 -0.1025  0.1594  0.1100
18674TIP3    H177513   2.473   2.961   4.762  0.7188  0.9365 -0.3530
18674TIP3    H277514   2.496   3.099   4.821  0.3026  0.3579  1.1864
18675TIP3   OH277515   0.731   2.381   5.529 -0.3010  0.6544  0.3006
18675TIP3    H177516   0.690   2.467   5.521  0.2772  0.8119 -1.5934
18675TIP3    H277517   0.825   2.398   5.518 -0.1749 -0.1909 -0.0477
18676TIP3   OH277518   0.946   6.660  12.175 -0.2963  0.2161 -0.0723
18676TIP3    H177519   1.019   6.657  12.236  1.8431  1.6912 -2.3294
18676TIP3    H277520   0.876   6.705  12.223  0.8745  0.3108  1.6263
18677TIP3   OH277521   6.404   4.236   7.044 -0.0258 -0.0920  0.2210
18677TIP3    H177522   6.470   4.181   7.085  0.6215  0.5224  0.0185
18677TIP3    H277523   6.432   4.325   7.062 -1.4949  0.1978  1.2427
18678TIP3   OH277524   2.051   4.174   1.214 -0.0072 -0.4855  0.1709
18678TIP3    H177525   1.988   4.108   1.188  1.0915 -0.4681 -3.0045
18678TIP3    H277526   1.998   4.250   1.239 -1.2561 -1.0438 -0.6938
18679TIP3   OH277527   5.463   1.530  14.946 -0.1350 -0.2444  0.0442
18679TIP3    H177528   5.378   1.494  14.918 -1.0123  0.6266  1.4727
18679TIP3    H277529   5.514   1.536  14.866 -1.3171 -1.0683 -0.8066
18680TIP3   OH277530   4.023   4.735  13.994 -0.3256  0.8188 -0.3528
18680TIP3    H177531   4.105   4.776  13.966 -0.2991 -0.2384 -1.9209
18680TIP3    H277532   4.033   4.643  13.972 -1.3147  0.3812  0.9395
18681TIP3   OH277533   1.183   6.080   1.485 -0.1616  0.1259 -0.1369
18681TIP3    H177534   1.224   6.001   1.520 -0.0489  0.4269  0.4201
18681TIP3    H277535   1.205   6.149   1.548  0.2120  0.7235 -0.9045
18682TIP3   OH277536   6.805   0.762   3.936 -0.2003 -0.0908 -0.4515
18682TIP3    H177537   6.716   0.764   3.970 -0.4618 -0.5885 -1.0840
18682TIP3    H277538   6.861   0.771   4.013 -0.7349 -2.4840  0.2779
18683TIP3   OH277539   4.477   3.680   6.022  0.1279  0.3422  0.3151
18683TIP3    H177540   4.389   3.671   5.986  0.3810  1.6510 -0.7201
18683TIP3    H277541   4.465   3.681   6.117 -1.0260  0.9948  0.1718
18684TIP3   OH277542   0.753   6.565  15.196 -0.2622  0.6962  0.3514
18684TIP3    H177543   0.772   6.477  15.165  0.4185  1.3008 -1.0105
18684TIP3    H277544   0.780   6.565  15.288 -1.1099 -0.7541  0.6335
18685TIP3   OH277545   1.812   5.200  11.610  1.0955 -0.4638  0.0191
18685TIP3    H177546   1.861   5.152  11.544 -1.3530 -0.6437 -1.8186
18685TIP3    H277547   1.783   5.280  11.565 -0.3035 -0.3925  0.9647
18686TIP3   OH277548   3.952   0.170   6.513 -0.1305  0.3572 -0.8459
18686TIP3    H177549   4.009   0.164   6.437 -0.7459 -0.4584 -1.2568
18686TIP3    H277550   3.882   0.231   6.486 -0.2649  0.1883 -0.8813
18687TIP3   OH277551   5.079   4.433   0.895  0.4526  0.5650 -0.2484
18687TIP3    H177552   5.089   4.500   0.828  0.7127  1.6923  0.8683
18687TIP3    H277553   4.986   4.408   0.891  0.3248  1.0852 -0.6017
18688TIP3   OH277554   1.788   4.823   3.892 -0.3189 -0.4092 -0.1017
18688TIP3    H177555   1.751   4.868   3.816  1.4306 -1.2544 -1.5263
18688TIP3    H277556   1.883   4.833   3.883 -0.0111 -1.6265  1.2786
18689TIP3   OH277557   4.126   5.599   3.135  0.1697 -0.2697 -0.5203
18689TIP3    H177558   4.203   5.546   3.118 -0.6791 -1.0685 -2.1050
18689TIP3    H277559   4.159   5.676   3.180  2.0893  0.0286 -2.3084
18690TIP3   OH277560   3.040   2.158  15.737 -0.0587  0.4128 -0.0653
18690TIP3    H177561   3.090   2.212  15.798  1.6862  1.1272 -2.0094
18690TIP3    H277562   2.991   2.221  15.684  2.0621  0.2616 -2.4156
18691TIP3   OH277563   0.734   5.371   4.590 -0.2882  0.0216 -0.4266
18691TIP3    H177564   0.695   5.353   4.504  0.9136  0.0166 -0.9948
18691TIP3    H277565   0.794   5.444   4.573  1.1801 -1.0468  0.0508
18692TIP3   OH277566   5.166   3.270   4.482 -1.0856  0.2134  0.4311
18692TIP3    H177567   5.205   3.277   4.394 -2.4986  0.4307 -0.2089
18692TIP3    H277568   5.101   3.341   4.485 -1.7850 -0.4399  1.2661
18693TIP3   OH277569   2.000   3.462   3.078 -0.0394  0.1327  0.4339
18693TIP3    H177570   1.956   3.383   3.112  1.4222 -1.0304 -0.2806
18693TIP3    H277571   1.981   3.460   2.984  2.2846 -0.9563 -0.0734
18694TIP3   OH277572   2.282   5.121  11.569 -0.4534 -0.3835 -0.2527
18694TIP3    H177573   2.254   5.205  11.606 -0.0849 -0.4976  0.2944
18694TIP3    H277574   2.346   5.145  11.502 -0.8525 -0.1942 -0.5717
18695TIP3   OH277575   4.196   1.714  16.252 -0.4849 -0.7736 -0.5899
18695TIP3    H177576   4.254   1.779  16.292 -0.5075 -0.6952 -0.6828
18695TIP3    H277577   4.243   1.631  16.260  0.7224 -0.3815 -2.7469
18696TIP3   OH277578   6.583   5.213   3.844  0.1713  0.5043 -0.1006
18696TIP3    H177579   6.548   5.300   3.823 -0.0805  0.1075 -1.4190
18696TIP3    H277580   6.505   5.159   3.857  0.3280  0.5351  1.0006
18697TIP3   OH277581   3.148   5.342   5.769  0.3766  0.0372  0.7567
18697TIP3    H177582   3.119   5.345   5.678 -1.1939  0.7406  1.2415
18697TIP3    H277583   3.127   5.254   5.798  2.1346 -0.6435  0.0873
18698TIP3   OH277584   0.251   5.383  16.804 -0.5683  0.6062  0.1096
18698TIP3    H177585   0.297   5.307  16.768  0.1627  0.8782  0.4563
18698TIP3    H277586   0.165   5.349  16.828 -1.1199  0.4266 -1.9313
18699TIP3   OH277587   4.811   6.202   3.033  0.5693  0.0948 -0.2141
18699TIP3    H177588   4.748   6.153   2.980  1.4245  0.3151 -1.4812
18699TIP3    H277589   4.770   6.287   3.046  0.4231  0.1012 -0.6863
18700TIP3   OH277590   5.245   5.819   0.598 -0.2532 -0.1151 -0.2927
18700TIP3    H177591   5.208   5.821   0.510 -0.2018 -0.1175 -0.3146
18700TIP3    H277592   5.339   5.835   0.584 -0.5044  1.6835 -0.0913
18701TIP3   OH277593   4.397   2.857  11.845  0.1686  0.1739  0.0794
18701TIP3    H177594   4.465   2.807  11.800  1.5596  0.8846  1.2913
18701TIP3    H277595   4.355   2.794  11.904  0.7314  0.0289  0.3297
18702TIP3   OH277596   0.789   6.153   1.954 -0.1489  0.9538  0.2429
18702TIP3    H177597   0.769   6.235   1.910  0.6255  1.9144  1.6196
18702TIP3    H277598   0.791   6.088   1.884  1.0333  2.4184 -1.1629
18703TIP3   OH277599   3.910   3.031   4.880 -0.0705 -0.0310  0.4775
18703TIP3    H177600   3.973   2.991   4.819 -0.4008  0.0358  0.0842
18703TIP3    H277601   3.857   3.089   4.824  1.0263  1.7261  1.1854
18704TIP3   OH277602   0.647   2.033  12.427  0.5546  0.2041 -0.0298
18704TIP3    H177603   0.575   2.054  12.368  0.6008  0.2456 -0.0723
18704TIP3    H277604   0.630   2.086  12.505  1.1061  1.0299 -0.4521
18705TIP3   OH277605   4.059   4.115   0.407  0.4905  0.1690 -0.0900
18705TIP3    H177606   4.059   4.210   0.420  5.1312  0.4297 -0.4200
18705TIP3    H277607   4.059   4.079   0.496 -1.3039  0.3454  0.0352
18706TIP3   OH277608   0.385   5.848   0.041  0.0830 -0.1809  0.1987
18706TIP3    H177609   0.325   5.777   0.018  1.6872 -1.9086  1.0940
18706TIP3    H277610   0.462   5.833  -0.014 -0.1288  1.8190 -0.7193
18707TIP3   OH277611   4.685   5.329  10.988  0.5388  0.3352  0.2011
18707TIP3    H177612   4.771   5.290  11.004  0.5975  0.2711 -0.2505
18707TIP3    H277613   4.626   5.254  10.978  0.2753  0.3843  1.3117
18708TIP3   OH277614   4.589   6.747  16.127  0.3190  0.1732 -0.2347
18708TIP3    H177615   4.577   6.803  16.204  0.2916 -1.0030  0.6561
18708TIP3    H277616   4.500   6.720  16.103  0.3320  0.5053 -0.6536
18709TIP3   OH277617   0.086   4.267  15.001  0.0108 -0.2026  0.4208
18709TIP3    H177618   0.168   4.228  14.972  0.0383 -0.3897  0.7469
18709TIP3    H277619   0.054   4.208  15.069 -1.0904 -0.8775 -0.6372
18710TIP3   OH277620   5.273   5.224  14.380 -0.1577  0.4443 -0.2842
18710TIP3    H177621   5.275   5.130  14.396 -0.2104  0.5345  0.2958
18710TIP3    H277622   5.215   5.258  14.448  2.4149  1.2741  1.6786
18711TIP3   OH277623   6.328   0.986  10.456  0.0270 -0.4630  0.0476
18711TIP3    H177624   6.400   0.926  10.436 -0.6404 -1.2664  0.0551
18711TIP3    H277625   6.364   1.073  10.436  1.2833 -0.7721  0.8473
18712TIP3   OH277626   2.893   1.245   4.820 -0.2226  0.4645 -0.0492
18712TIP3    H177627   2.952   1.170   4.826  1.8031  1.8942 -1.0021
18712TIP3    H277628   2.951   1.321   4.816 -2.1081  1.9225 -1.6004
18713TIP3   OH277629   6.699   3.609  11.440  0.0160  0.0871  0.3047
18713TIP3    H177630   6.650   3.547  11.386  0.5412 -0.8855  0.9161
18713TIP3    H277631   6.737   3.671  11.378 -0.1125 -0.4958 -0.3582
18714TIP3   OH277632   5.065   0.283   2.977  0.1772  0.0487 -0.3342
18714TIP3    H177633   5.054   0.226   2.901 -0.2195 -0.6784  0.2565
18714TIP3    H277634   5.006   0.357   2.961  0.6564  0.2850 -1.0816
18715TIP3   OH277635   5.480   3.109  11.893 -0.0911  0.3574 -0.1166
18715TIP3    H177636   5.549   3.169  11.922 -0.4160  0.2827  0.8469
18715TIP3    H277637   5.525   3.043  11.841  0.4416  0.7717 -0.1812
18716TIP3   OH277638   3.446   2.171  13.418 -0.4501 -0.2862  0.3024
18716TIP3    H177639   3.360   2.180  13.459 -0.3217 -0.9234  0.7402
18716TIP3    H277640   3.503   2.143  13.489 -0.0258 -0.5229 -0.1268
18717TIP3   OH277641   3.880   0.677   2.015 -0.3541 -0.6993  0.3103
18717TIP3    H177642   3.936   0.733   1.961 -0.6893 -1.3403 -0.7315
18717TIP3    H277643   3.851   0.734   2.087  1.8793 -0.4290  1.0766
18718TIP3   OH277644   1.563   3.624   1.451  0.3396 -0.6252 -0.0017
18718TIP3    H177645   1.482   3.637   1.501 -0.4526 -0.3799 -1.3148
18718TIP3    H277646   1.617   3.568   1.508 -0.1346  0.3995  1.5342
18719TIP3   OH277647   3.411   3.479   0.479 -0.1027 -0.5354 -0.5555
18719TIP3    H177648   3.419   3.561   0.429  0.5587 -2.0420 -3.1173
18719TIP3    H277649   3.477   3.486   0.548  0.0576  1.0155 -0.8353
18720TIP3   OH277650   6.020   4.005  10.666 -0.5126 -0.5320 -0.3110
18720TIP3    H177651   6.103   4.030  10.625 -0.8252 -1.2593 -1.4216
18720TIP3    H277652   5.953   4.035  10.605 -1.0101 -1.3074 -0.1580
18721TIP3   OH277653   1.771   6.324  10.996 -0.4670 -0.0652 -0.1016
18721TIP3    H177654   1.748   6.283  10.913  0.2902 -1.1701  0.2045
18721TIP3    H277655   1.751   6.417  10.984 -0.5472 -0.2362 -1.4407
18722TIP3   OH277656   0.522   6.546   5.430 -1.1492  0.0329 -0.9305
18722TIP3    H177657   0.531   6.493   5.510  0.8692  0.1065 -1.0651
18722TIP3    H277658   0.443   6.598   5.445 -1.3307 -0.6239  0.6101
18723TIP3   OH277659   5.813   2.044  14.192  0.2691 -0.0037  0.2755
18723TIP3    H177660   5.852   2.110  14.134 -1.2345  0.6666 -0.0270
18723TIP3    H277661   5.735   2.087  14.229 -0.3285 -1.3486  0.6616
18724TIP3   OH277662   1.097   2.219   1.703 -0.1673 -0.3977 -0.9022
18724TIP3    H177663   1.067   2.141   1.657  0.0966 -3.3479  3.3072
18724TIP3    H277664   1.192   2.211   1.704 -0.1297  0.0560 -0.5427
18725TIP3   OH277665   3.528   2.743   6.203 -0.1076 -0.1260 -0.1489
18725TIP3    H177666   3.464   2.797   6.157 -0.4929 -0.5639 -0.1418
18725TIP3    H277667   3.612   2.765   6.163 -0.3076  0.2316 -0.3716
18726TIP3   OH277668   6.053   5.497  15.271  0.0451  0.7162  0.0594
18726TIP3    H177669   6.002   5.547  15.335 -1.3577  2.0124 -1.9605
18726TIP3    H277670   6.107   5.439  15.324  0.2465  2.9339  2.4624
18727TIP3   OH277671   2.021   1.556  11.903  0.2162  0.3359  0.0686
18727TIP3    H177672   1.941   1.566  11.851  0.7185  1.5946 -0.4744
18727TIP3    H277673   2.050   1.467  11.885 -0.9924 -0.0988  0.1751
18728TIP3   OH277674   3.434   4.078   2.874  0.2976 -0.3701  0.2118
18728TIP3    H177675   3.390   4.102   2.955 -1.0240  0.7499 -0.7953
18728TIP3    H277676   3.366   4.081   2.807  1.3631 -1.2138 -0.9722
18729TIP3   OH277677   5.468   5.280  16.759 -0.1568  0.0042  0.2304
18729TIP3    H177678   5.531   5.328  16.705  1.1507 -1.7592  0.1136
18729TIP3    H277679   5.505   5.283  16.847  0.4149 -1.5094  0.0639
18730TIP3   OH277680   3.483   2.597  12.405  0.2317 -0.4493  0.2854
18730TIP3    H177681   3.541   2.528  12.437  0.8586  0.8904  2.2003
18730TIP3    H277682   3.534   2.677  12.414 -0.9926  0.4483 -0.4987
18731TIP3   OH277683   1.654   5.531  14.885 -0.7205 -0.9014 -0.3731
18731TIP3    H177684   1.565   5.519  14.851 -0.6245  0.9542 -1.4282
18731TIP3    H277685   1.659   5.625  14.905  1.6901 -0.4442 -2.5388
18732TIP3   OH277686   4.401   2.389   0.312 -0.0354  0.7632  0.6421
18732TIP3    H177687   4.359   2.304   0.299  0.1928  0.5091  1.4545
18732TIP3    H277688   4.333   2.453   0.291  0.0298  0.3957 -0.7455
18733TIP3   OH277689   1.311   5.973   2.012 -0.3335  0.3010  0.3361
18733TIP3    H177690   1.335   6.064   2.031 -1.5886  0.3583  1.8521
18733TIP3    H277691   1.271   5.942   2.093  0.1749 -1.6502 -0.1248
18734TIP3   OH277692   5.269   1.035  13.623 -0.1193 -0.1720 -0.6117
18734TIP3    H177693   5.188   1.042  13.675  0.4162 -1.7578  0.5114
18734TIP3    H277694   5.332   1.090  13.670 -0.1174 -0.1823 -0.6021
18735TIP3   OH277695   6.169   2.891  16.011  0.3828 -0.0109 -0.2153
18735TIP3    H177696   6.260   2.862  16.014  0.6043  0.4381 -1.6016
18735TIP3    H277697   6.141   2.892  16.102  1.0271 -2.4056  0.0739
18736TIP3   OH277698   5.926   6.752  16.382  0.1334 -0.2898 -0.5840
18736TIP3    H177699   5.925   6.691  16.455  2.1534  1.0517  0.6541
18736TIP3    H277700   5.853   6.724  16.326 -3.0069 -0.0377  2.9979
18737TIP3   OH277701   3.050   1.136   3.815  0.5200 -0.2478 -0.1107
18737TIP3    H177702   3.089   1.184   3.888 -0.7478  1.0737 -0.2452
18737TIP3    H277703   2.966   1.105   3.848 -0.0703  0.3731 -0.9838
18738TIP3   OH277704   5.854   6.273   1.348 -0.1788 -0.2894 -0.8731
18738TIP3    H177705   5.909   6.297   1.422  1.3241  1.0837 -2.3243
18738TIP3    H277706   5.775   6.326   1.358  0.6828  1.1025 -1.0035
18739TIP3   OH277707   5.562   4.391   0.279 -0.0538  0.2495 -0.5874
18739TIP3    H177708   5.492   4.437   0.233  1.6831  2.4440 -1.2273
18739TIP3    H277709   5.579   4.444   0.356 -0.2632 -1.2406  0.5259
18740TIP3   OH277710   6.640   3.967  16.573 -0.0887 -0.2173  0.0156
18740TIP3    H177711   6.622   3.940  16.663  1.1888  0.0026  0.3483
18740TIP3    H277712   6.570   4.030  16.553 -0.2593 -0.1073  0.9196
18741TIP3   OH277713   0.849   2.892   1.610 -0.1193  0.7171 -0.7729
18741TIP3    H177714   0.866   2.913   1.702  1.7064  1.0361 -1.1324
18741TIP3    H277715   0.828   2.799   1.610 -1.6740  1.0359  0.1111
18742TIP3   OH277716   4.237   4.804   1.197  0.4946  0.1947 -0.3114
18742TIP3    H177717   4.165   4.740   1.197  1.2279 -0.6597  0.6594
18742TIP3    H277718   4.241   4.836   1.288  0.1472  1.6399 -0.7771
18743TIP3   OH277719   4.196   6.056   1.258 -0.2637 -0.4642 -0.2499
18743TIP3    H177720   4.192   5.964   1.232 -0.7315 -0.2931 -0.8174
18743TIP3    H277721   4.119   6.068   1.313 -0.0744 -0.4693  0.0156
18744TIP3   OH277722   3.598   3.790   0.684 -0.1992  0.0855 -0.0154
18744TIP3    H177723   3.644   3.770   0.766 -0.8857  1.4124  0.7219
18744TIP3    H277724   3.507   3.767   0.702 -0.1790 -0.6521 -0.7983
18745TIP3   OH277725   2.092   5.255  13.486  0.1622  0.2876  0.2083
18745TIP3    H177726   2.107   5.263  13.580  1.5238 -2.6759  0.3615
18745TIP3    H277727   2.130   5.170  13.463  0.7317  1.3282 -3.2202
18746TIP3   OH277728   0.860   4.915   0.006  0.2416  0.1566 -0.1974
18746TIP3    H177729   0.813   4.933   0.087  2.4448  0.5912  1.0506
18746TIP3    H277730   0.797   4.866  -0.048 -1.8125  1.2368  1.0997
18747TIP3   OH277731   3.804   4.341  12.763 -0.3567  0.2732  0.6732
18747TIP3    H177732   3.733   4.292  12.722 -1.7824  2.8872 -0.2698
18747TIP3    H277733   3.879   4.329  12.705 -0.8660 -0.1933  0.1048
18748TIP3   OH277734   0.262   3.986   3.396 -0.2005  0.1010 -0.4588
18748TIP3    H177735   0.190   3.939   3.437  0.5309 -0.9586 -0.3530
18748TIP3    H277736   0.233   4.078   3.395 -1.3540 -0.2390 -0.0334
18749TIP3   OH277737   2.907   3.578  12.954 -0.2089  0.2619  0.1148
18749TIP3    H177738   2.870   3.501  12.911 -1.7280  1.1308 -0.2062
18749TIP3    H277739   2.832   3.636  12.968  0.8880  1.6617  0.4203
18750TIP3   OH277740   6.391   5.013   2.323  0.2517 -0.1829 -0.6540
18750TIP3    H177741   6.357   4.964   2.398 -1.4839  1.7032 -0.1171
18750TIP3    H277742   6.369   4.958   2.247 -0.2977 -0.9177  0.0138
18751TIP3   OH277743   0.434   5.813  11.281  0.7427  0.1039 -0.0514
18751TIP3    H177744   0.469   5.889  11.234  0.1407  0.1384 -0.4530
18751TIP3    H277745   0.511   5.775  11.324  1.1222  0.6917 -0.1921
18752TIP3   OH277746   2.706   5.947  10.744  0.4144 -0.4885  0.3103
18752TIP3    H177747   2.746   5.860  10.745  1.1041 -0.1927 -0.4692
18752TIP3    H277748   2.780   6.008  10.745 -0.0596  0.1223  1.6316
18753TIP3   OH277749   2.205   3.149   2.236  0.6395 -0.0127 -0.1528
18753TIP3    H177750   2.210   3.223   2.174  2.8221  0.0012 -0.0327
18753TIP3    H277751   2.242   3.183   2.317  3.2017 -1.6002 -0.5393
18754TIP3   OH277752   5.192   3.025  16.955  0.4579  0.1858  0.3087
18754TIP3    H177753   5.234   2.960  17.011  1.2460  1.5677  1.3909
18754TIP3    H277754   5.107   2.986  16.932  1.2349 -1.5548  0.2223
18755TIP3   OH277755   6.106   4.382  16.155  0.0925  0.2915  0.1747
18755TIP3    H177756   6.150   4.376  16.070  1.1844 -1.2032  0.8114
18755TIP3    H277757   6.025   4.429  16.136  0.1785 -0.2491 -1.7573
18756TIP3   OH277758   6.425   0.016  15.138 -0.6432 -0.4395 -0.2115
18756TIP3    H177759   6.339   0.053  15.155  0.2936  1.3425  1.0314
18756TIP3    H277760   6.464   0.005  15.225  0.9732  0.3026 -0.8064
18757TIP3   OH277761   2.695   2.510   5.872  0.2301  0.0301  0.1450
18757TIP3    H177762   2.654   2.588   5.908  0.7285  0.7073 -0.7190
18757TIP3    H277763   2.785   2.512   5.905  0.8267  0.8935 -1.4124
18758TIP3   OH277764   1.781   5.111  14.898  0.1294 -0.0350  0.0401
18758TIP3    H177765   1.842   5.048  14.936  1.2262  1.0117  0.0888
18758TIP3    H277766   1.697   5.064  14.893  1.2546 -2.0411 -1.4687
18759TIP3   OH277767   4.616   2.459   1.792  1.0110 -0.2878 -0.7556
18759TIP3    H177768   4.613   2.365   1.811  0.0152 -0.0057  0.6569
18759TIP3    H277769   4.579   2.500   1.870  1.5970  1.3003 -1.2742
18760TIP3   OH277770   3.012   3.272  12.635  0.4395 -0.1952  0.5235
18760TIP3    H177771   3.030   3.179  12.628 -0.7437 -0.4459  0.6824
18760TIP3    H277772   3.004   3.302  12.544  1.7780 -0.0301  0.4362
18761TIP3   OH277773   5.901   1.019  16.813  0.0039 -0.8466  0.4826
18761TIP3    H177774   5.842   1.084  16.851  0.0771 -1.3452  1.4992
18761TIP3    H277775   5.898   1.035  16.719 -0.1736  0.4541  0.6985
18762TIP3   OH277776   4.378   5.683  14.054 -0.1251  0.4280 -0.3701
18762TIP3    H177777   4.452   5.707  14.109 -0.9645  0.7687  0.6405
18762TIP3    H277778   4.335   5.611  14.101 -0.4185  0.2126 -0.9544
18763TIP3   OH277779   5.540   2.678  11.536  0.0278 -0.1917 -0.0482
18763TIP3    H177780   5.497   2.713  11.459  0.1241  0.1860  0.0702
18763TIP3    H277781   5.581   2.597  11.506  1.4083  0.7387 -0.7754
18764TIP3   OH277782   5.983   5.463  16.851  0.3922 -0.2663 -0.0448
18764TIP3    H177783   6.077   5.472  16.866  0.7635 -1.8462 -1.1796
18764TIP3    H277784   5.952   5.409  16.923  0.5235 -0.4948 -0.1595
18765TIP3   OH277785   2.385   5.678   4.736 -0.3228  0.0658  0.2508
18765TIP3    H177786   2.401   5.719   4.821  0.1028  0.3053  0.0590
18765TIP3    H277787   2.290   5.683   4.725 -0.4481 -0.5800  1.0088
18766TIP3   OH277788   1.079   1.597  11.395  0.0351  0.2509 -1.2497
18766TIP3    H177789   1.003   1.562  11.350  0.9469 -1.3877 -1.5732
18766TIP3    H277790   1.125   1.520  11.428 -0.2002  1.3264  1.8914
18767TIP3   OH277791   1.665   3.714  11.924  0.3915 -0.3261 -0.8611
18767TIP3    H177792   1.725   3.780  11.890  1.6495 -0.4407  1.0399
18767TIP3    H277793   1.637   3.748  12.009  1.3339 -2.3553  0.3287
18768TIP3   OH277794   1.076   3.881   0.125  0.1787  0.8445 -0.2790
18768TIP3    H177795   1.112   3.827   0.195  0.1703 -0.3223 -1.1499
18768TIP3    H277796   1.013   3.939   0.169 -0.4113 -0.3967  0.5603
18769TIP3   OH277797   2.519   5.325  14.136  0.1479  0.5750  0.4628
18769TIP3    H177798   2.445   5.382  14.157 -0.3822 -0.5543  1.8637
18769TIP3    H277799   2.559   5.306  14.221 -0.1299 -1.6592  0.1512
18770TIP3   OH277800   0.551   3.900  14.723  0.3539  0.2883  0.2637
18770TIP3    H177801   0.476   3.857  14.765 -0.3218  1.2970  0.1431
18770TIP3    H277802   0.522   3.918  14.634  0.2922  1.6681  0.5250
18771TIP3   OH277803   3.408   3.550   3.343 -0.2327  0.4084 -0.0348
18771TIP3    H177804   3.464   3.531   3.419  0.0349 -0.6195 -0.4796
18771TIP3    H277805   3.467   3.546   3.268 -0.3077  2.3151 -0.2430
18772TIP3   OH277806   3.582   6.037  17.082 -0.1823 -0.2093  0.4394
18772TIP3    H177807   3.493   6.008  17.065 -0.6358  0.8474  0.8910
18772TIP3    H277808   3.573   6.129  17.109  1.1104  0.1842 -0.3306
18773TIP3   OH277809   4.888   3.675   4.633 -0.1366  0.3618 -0.6114
18773TIP3    H177810   4.813   3.638   4.680 -1.9035  1.2671 -2.5850
18773TIP3    H277811   4.961   3.617   4.656 -1.7887 -1.6026  0.0240
18774TIP3   OH277812   0.663   6.103   2.756  0.3469 -0.4808  0.2265
18774TIP3    H177813   0.755   6.123   2.738  0.2614  0.3143  0.6188
18774TIP3    H277814   0.640   6.161   2.828 -0.4548 -0.6992  0.1508
18775TIP3   OH277815   0.200   1.594  14.498 -0.1588  0.3513 -0.7836
18775TIP3    H177816   0.147   1.522  14.535 -1.2477  1.4058 -0.2239
18775TIP3    H277817   0.155   1.617  14.417 -0.2361  0.8700 -0.5968
18776TIP3   OH277818   0.694   5.330   6.617 -0.3057 -0.0784 -0.1615
18776TIP3    H177819   0.738   5.248   6.593 -0.1551  0.2960 -1.2211
18776TIP3    H277820   0.610   5.302   6.653  1.0832 -0.8732  2.8319
18777TIP3   OH277821   5.845   3.627  16.275  0.1503  0.2385 -0.0194
18777TIP3    H177822   5.880   3.649  16.189  0.4412  2.0142  0.4959
18777TIP3    H277823   5.757   3.594  16.259 -0.0539  1.1936 -0.9708
18778TIP3   OH277824   1.141   1.223  15.562  0.1285  0.3669 -0.0890
18778TIP3    H177825   1.049   1.199  15.550  0.3019 -0.6789  0.5636
18778TIP3    H277826   1.179   1.217  15.474 -0.5318  1.3376 -0.4587
18779TIP3   OH277827   5.534   6.265   0.297  0.2311  0.1286  0.3348
18779TIP3    H177828   5.607   6.298   0.244  0.0498 -0.7415 -0.4842
18779TIP3    H277829   5.494   6.344   0.334  2.3110  0.5672  1.8109
18780TIP3   OH277830   1.158   3.170   4.739 -0.3272 -0.3879 -0.7234
18780TIP3    H177831   1.137   3.261   4.761  1.9796 -0.1898  1.1466
18780TIP3    H277832   1.091   3.118   4.784 -0.6372  0.3497 -0.3219
18781TIP3   OH277833   1.671   1.397  14.992 -0.3307  0.5233  0.5780
18781TIP3    H177834   1.671   1.301  14.992 -0.4949  0.4962  2.0590
18781TIP3    H277835   1.668   1.421  14.900  0.8440 -0.8924  0.1271
18782TIP3   OH277836   6.045   6.046  15.620  0.4141 -0.1719  0.6640
18782TIP3    H177837   5.979   6.044  15.551 -0.5386  1.2290  1.4766
18782TIP3    H277838   6.128   6.028  15.574 -0.3222 -0.3876 -0.6433
18783TIP3   OH277839   1.572   2.570  16.820  0.2709 -0.6327  0.1977
18783TIP3    H177840   1.586   2.637  16.753  0.5758 -0.3988  0.4965
18783TIP3    H277841   1.552   2.491  16.770  1.5993 -0.7369 -0.2324
18784TIP3   OH277842   4.105   5.057  17.229 -0.2490  0.3062 -0.2751
18784TIP3    H177843   4.147   5.123  17.283 -0.8583 -0.6309  1.4095
18784TIP3    H277844   4.027   5.100  17.193 -1.0889  0.2955  1.4669
18785TIP3   OH277845   5.682   5.960  11.833  0.1309 -0.6735 -0.4659
18785TIP3    H177846   5.677   5.865  11.828  0.8014 -0.6791 -1.1777
18785TIP3    H277847   5.775   5.980  11.822  0.2993 -0.0265  1.6168
18786TIP3   OH277848   3.487   2.785  14.806 -0.2719 -0.1421 -0.2614
18786TIP3    H177849   3.573   2.749  14.783 -1.1838 -0.8450 -2.8272
18786TIP3    H277850   3.440   2.791  14.723 -2.3074  1.3737  0.9087
18787TIP3   OH277851   5.292   3.394  10.900  0.5691 -0.1810  0.0082
18787TIP3    H177852   5.199   3.374  10.905  0.5193 -0.1560 -0.6489
18787TIP3    H277853   5.298   3.466  10.838  1.0316 -0.2295 -0.0116
18788TIP3   OH277854   5.978   3.183  16.364 -0.2828 -0.5358  0.1740
18788TIP3    H177855   6.006   3.192  16.455 -0.4207  0.2560  0.1459
18788TIP3    H277856   5.997   3.267  16.324 -0.2757 -0.8582 -0.5228
18789TIP3   OH277857   6.041   4.012  14.895 -0.1862 -0.4062 -0.1313
18789TIP3    H177858   6.105   3.997  14.825  0.7029 -0.9846  0.7620
18789TIP3    H277859   6.035   4.107  14.901 -1.0865 -0.3340 -1.6801
18790TIP3   OH277860   0.261   3.991  13.577  0.1167 -0.1750 -0.2711
18790TIP3    H177861   0.231   3.986  13.668  2.1470  2.7995  0.7376
18790TIP3    H277862   0.181   3.991  13.525 -1.0877 -2.8126  1.3470
18791TIP3   OH277863   2.341   0.815  13.939  0.6329  0.3332 -0.1346
18791TIP3    H177864   2.409   0.851  13.995  2.2233 -0.8940 -1.1756
18791TIP3    H277865   2.347   0.865  13.858 -0.1225  0.6059 -0.0321
18792TIP3   OH277866   2.876   4.151   2.338  0.9379 -1.0273  0.3099
18792TIP3    H177867   2.968   4.161   2.313  1.5753 -0.5094  2.6719
18792TIP3    H277868   2.828   4.161   2.255  3.0585 -3.9729 -1.4928
18793TIP3   OH277869   1.163   4.693   0.948  0.0902  0.4065 -0.4001
18793TIP3    H177870   1.126   4.762   1.002 -0.8468 -0.6857  0.4261
18793TIP3    H277871   1.198   4.629   1.011  0.1073 -0.2954 -1.1008
18794TIP3   OH277872   2.976   3.014  15.998  0.0699 -1.2238  0.2591
18794TIP3    H177873   3.046   2.954  16.025  1.5967  0.7998  1.0549
18794TIP3    H277874   2.994   3.095  16.046 -2.5362 -0.4275  0.0630
18795TIP3   OH277875   0.268   1.665  12.371 -0.7901 -0.1843 -0.3602
18795TIP3    H177876   0.212   1.596  12.405 -0.0416 -0.4610  0.3334
18795TIP3    H277877   0.337   1.619  12.324 -0.3519  0.0864  0.0068
18796TIP3   OH277878   6.321   4.862  11.985  0.2321 -0.2341 -0.3861
18796TIP3    H177879   6.370   4.840  12.063  0.8489 -0.9426 -0.9679
18796TIP3    H277880   6.387   4.872  11.916 -0.0179  2.8711 -0.3210
18797TIP3   OH277881   3.221   1.521  10.712 -0.3227  0.8882 -0.2484
18797TIP3    H177882   3.250   1.450  10.655  0.6802  0.7381  0.4246
18797TIP3    H277883   3.166   1.479  10.778  0.4036  0.6815  0.2476
18798TIP3   OH277884   3.549   1.786   0.127 -0.2406 -0.2407  0.2261
18798TIP3    H177885   3.550   1.692   0.145 -1.6805 -0.4132 -0.4591
18798TIP3    H277886   3.489   1.796   0.053  1.3230  1.0296 -0.9442
18799TIP3   OH277887   1.476   2.408   0.465 -0.6020 -0.0708 -0.6656
18799TIP3    H177888   1.563   2.425   0.502 -0.1752  0.0269 -1.6870
18799TIP3    H277889   1.447   2.494   0.434  0.4916 -0.6549 -3.5780
18800TIP3   OH277890   0.370   1.433  16.340 -0.2281 -0.3647 -0.6661
18800TIP3    H177891   0.330   1.410  16.256 -1.9108  1.0091 -0.3043
18800TIP3    H277892   0.297   1.460  16.395  1.0306  0.5310  0.6546
18801TIP3   OH277893   6.222   4.531   4.908  0.0416  0.2203  0.4691
18801TIP3    H177894   6.238   4.497   4.997  0.9694 -2.2237 -0.5524
18801TIP3    H277895   6.300   4.584   4.890  0.1264  0.2538  0.9037
18802TIP3   OH277896   4.352   4.505   3.500 -0.2701  0.3161 -0.2131
18802TIP3    H177897   4.426   4.457   3.538  0.1003  0.6840 -0.4564
18802TIP3    H277898   4.289   4.512   3.571  1.2438  2.7749  1.0293
18803TIP3   OH277899   0.565   6.093  13.455 -0.2213  0.1299  0.0582
18803TIP3    H177900   0.658   6.115  13.459  0.1736 -1.5961  1.3704
18803TIP3    H277901   0.562   5.998  13.452 -1.9412  0.1811 -1.4195
18804TIP3   OH277902   6.784   6.128   4.173 -0.9788 -0.6358  0.7429
18804TIP3    H177903   6.735   6.209   4.164 -0.2995 -0.0391  2.1261
18804TIP3    H277904   6.778   6.086   4.087 -2.2200  0.3614  0.3247
18805TIP3   OH277905   6.757   4.230   5.642  0.3593  0.0523 -0.4512
18805TIP3    H177906   6.835   4.182   5.669  1.0359  1.7184  0.7156
18805TIP3    H277907   6.785   4.322   5.637 -1.3473  0.6026 -0.7055
18806TIP3   OH277908   2.240   3.240  14.522  0.1437  0.5369  0.2691
18806TIP3    H177909   2.312   3.281  14.569  0.3096  0.3529  0.1744
18806TIP3    H277910   2.273   3.224  14.434 -0.0081  0.4424  0.2277
18807TIP3   OH277911   5.576   6.019   1.138 -0.2974 -0.5096  0.2588
18807TIP3    H177912   5.492   6.046   1.103  0.5303 -0.1693 -1.5424
18807TIP3    H277913   5.639   6.035   1.068  1.5416  0.7013  2.0713
18808TIP3   OH277914   5.630   1.074  15.648  1.2978  1.0165  0.3634
18808TIP3    H177915   5.604   1.166  15.640 -0.1342  0.5710 -0.4023
18808TIP3    H277916   5.695   1.061  15.579 -1.1691  0.5732 -1.9951
18809TIP3   OH277917   4.433   2.132   6.068 -0.1617  0.1943  0.0765
18809TIP3    H177918   4.345   2.164   6.086 -0.1468  1.2807 -1.6308
18809TIP3    H277919   4.439   2.050   6.119 -1.7678  0.6032  1.0129
18810TIP3   OH277920   6.688   3.245  12.366 -1.0135  0.2050 -0.5065
18810TIP3    H177921   6.650   3.163  12.334 -0.4974 -0.1616 -0.1895
18810TIP3    H277922   6.625   3.276  12.431 -0.1879 -1.0760  0.9819
18811TIP3   OH277923   5.961   3.028   3.390  0.4201 -0.7026  0.1767
18811TIP3    H177924   6.041   3.049   3.438  0.3476  1.7685 -0.6675
18811TIP3    H277925   5.911   3.110   3.388 -0.0023 -0.8813 -3.2610
18812TIP3   OH277926   5.106   1.197   4.622 -0.4016  0.2876  0.0717
18812TIP3    H177927   5.147   1.145   4.552 -2.7955  0.8595 -1.8853
18812TIP3    H277928   5.164   1.273   4.631  0.4929 -0.2904 -0.5491
18813TIP3   OH277929   2.926   2.202  16.160  1.0533 -0.2677 -0.7175
18813TIP3    H177930   2.860   2.190  16.229  0.7963 -1.7051 -1.1758
18813TIP3    H277931   3.007   2.221  16.207  0.6441 -0.1216 -0.0650
18814TIP3   OH277932   0.576   4.403  15.595 -0.2740 -0.0053  0.4076
18814TIP3    H177933   0.546   4.470  15.535  0.0557  0.5901  0.8956
18814TIP3    H277934   0.604   4.331  15.539 -0.3441  0.3852 -0.1306
18815TIP3   OH277935   1.177   1.622   5.065 -0.0733 -0.3557 -0.7898
18815TIP3    H177936   1.101   1.631   5.007  0.1860  2.9327 -0.7952
18815TIP3    H277937   1.145   1.649   5.151  0.5449 -1.3114 -0.2346
18816TIP3   OH277938   3.244   4.165  14.999  0.0260  0.1539  0.4903
18816TIP3    H177939   3.252   4.259  15.015 -0.0613  0.1333  0.6599
18816TIP3    H277940   3.229   4.158  14.904  0.2024  0.2987  0.4518
18817TIP3   OH277941   3.515   0.946  11.942 -0.0469  0.3822  0.1476
18817TIP3    H177942   3.545   1.018  11.998 -0.3280 -1.0959  2.3136
18817TIP3    H277943   3.422   0.937  11.962 -0.4154  0.4648 -1.3891
18818TIP3   OH277944   1.514   0.664   0.927  0.1134  0.2147 -0.0567
18818TIP3    H177945   1.448   0.607   0.887 -0.5767  1.4343 -0.7238
18818TIP3    H277946   1.577   0.681   0.856  0.0418  0.6815 -0.0071
18819TIP3   OH277947   6.370   1.478  14.183  0.4960 -0.0449 -0.0976
18819TIP3    H177948   6.317   1.557  14.197  1.4532  0.6230 -0.1481
18819TIP3    H277949   6.336   1.441  14.101  0.8848  1.0352 -0.7635
18820TIP3   OH277950   6.347   0.151   1.915  0.7423 -0.1169  0.0012
18820TIP3    H177951   6.337   0.062   1.884 -2.3167 -1.1575  3.2673
18820TIP3    H277952   6.286   0.203   1.862  0.8859 -0.4046 -0.4460
18821TIP3   OH277953   6.104   3.852   4.771  0.2975 -0.1128  0.1519
18821TIP3    H177954   6.009   3.859   4.771  0.2082 -1.1766  0.8344
18821TIP3    H277955   6.129   3.869   4.680 -0.8306 -3.3606 -0.8887
18822TIP3   OH277956   1.471   2.037   4.739 -0.0074 -0.4698  0.3689
18822TIP3    H177957   1.435   2.124   4.722  0.6324 -0.3805 -0.6036
18822TIP3    H277958   1.395   1.979   4.737 -0.1028 -0.3614 -2.1421
18823TIP3   OH277959   0.986   2.093   1.944 -0.6628  0.0103 -0.0959
18823TIP3    H177960   1.021   2.015   1.987 -0.1014 -0.2517 -0.9959
18823TIP3    H277961   1.031   2.095   1.859 -1.0564  1.0256 -0.2866
18824TIP3   OH277962   3.828   0.489   4.553 -0.2239  0.2487  0.0198
18824TIP3    H177963   3.907   0.521   4.510 -0.4201 -0.6432 -1.0370
18824TIP3    H277964   3.757   0.516   4.496 -0.5070 -0.7802 -0.1327
18825TIP3   OH277965   5.849   5.529  13.029 -0.7077  0.5126  0.1602
18825TIP3    H177966   5.756   5.532  13.051 -0.9011 -2.9209  0.2973
18825TIP3    H277967   5.852   5.491  12.941  0.5492 -2.1475  1.2452
18826TIP3   OH277968   1.123   4.650   2.379 -0.3799  0.0232 -0.5662
18826TIP3    H177969   1.083   4.688   2.457 -0.4909 -1.1285 -0.0429
18826TIP3    H277970   1.075   4.569   2.364 -1.4914  0.9873 -2.8235
18827TIP3   OH277971   2.517   5.230  15.802 -0.1593  0.3074 -0.4502
18827TIP3    H177972   2.603   5.220  15.843 -0.4533  0.3731  0.1902
18827TIP3    H277973   2.469   5.289  15.860 -0.5007  0.6053 -1.0228
18828TIP3   OH277974   2.466   1.481  10.561 -0.2004 -0.4584  0.1751
18828TIP3    H177975   2.428   1.398  10.530 -0.5335 -0.3930  0.3976
18828TIP3    H277976   2.519   1.512  10.488 -1.3115 -0.0872 -0.5064
18829TIP3   OH277977   0.247   1.477   3.999  0.5087 -0.1279 -0.1917
18829TIP3    H177978   0.261   1.497   3.906 -1.4617 -0.3178 -0.5893
18829TIP3    H277979   0.170   1.419   3.999  1.2239 -1.1479  1.4865
18830TIP3   OH277980   6.424   6.475   5.252  0.6220  0.2414  0.0836
18830TIP3    H177981   6.489   6.500   5.318  1.3471 -1.1800 -0.0550
18830TIP3    H277982   6.350   6.443   5.304 -0.3525  2.5921  0.2653
18831TIP3   OH277983   1.144   5.764  13.880  0.2392 -0.0514  0.4002
18831TIP3    H177984   1.142   5.695  13.946 -0.3945 -0.7751 -0.3540
18831TIP3    H277985   1.057   5.804  13.884 -1.5089 -2.9233 -2.8318
18832TIP3   OH277986   2.011   2.459   5.246  0.0287  0.2493 -0.0582
18832TIP3    H177987   1.993   2.391   5.181  1.9116 -2.3067  1.8838
18832TIP3    H277988   2.102   2.484   5.229  0.5074 -0.3854  1.4784
18833TIP3   OH277989   2.637   0.994  13.861 -0.2966  0.2553 -0.0134
18833TIP3    H177990   2.696   0.919  13.851 -0.1699  0.3480  0.0327
18833TIP3    H277991   2.549   0.959  13.845 -0.2118  0.1541 -0.2568
18834TIP3   OH277992   2.505   3.143  13.196  0.3695  0.0072 -0.1097
18834TIP3    H177993   2.529   3.138  13.289  0.7568 -0.1017 -0.2139
18834TIP3    H277994   2.454   3.224  13.189 -1.3665 -0.9556  0.5743
18835TIP3   OH277995   1.747   1.301   4.989  0.0140 -0.8055 -0.0492
18835TIP3    H177996   1.803   1.242   4.939 -1.0740 -1.3770 -0.6254
18835TIP3    H277997   1.754   1.270   5.079 -0.3654 -1.6731 -0.3138
18836TIP3   OH277998   0.671   2.778  10.358  0.4457 -0.5005  0.0068
18836TIP3    H177999   0.632   2.746  10.277 -1.1988  3.0411 -0.7825
18836TIP3    H278000   0.598   2.814  10.408  2.0035  1.9650  0.7254
18837TIP3   OH278001   2.110   6.304  15.891  0.2953  0.6888 -0.0784
18837TIP3    H178002   2.186   6.255  15.859  0.0587 -0.5002  1.0887
18837TIP3    H278003   2.100   6.376  15.829  1.6999  0.2327 -0.8788
18838TIP3   OH278004   0.139   1.787  13.334 -0.2937 -0.1305  0.4025
18838TIP3    H178005   0.168   1.713  13.386 -1.0010 -0.9529 -0.3408
18838TIP3    H278006   0.056   1.758  13.295 -1.8110  1.8590  1.9080
18839TIP3   OH278007   1.529   1.781   3.931 -0.3613 -0.1616 -0.2629
18839TIP3    H178008   1.565   1.763   3.844  0.1501 -1.3645  0.1793
18839TIP3    H278009   1.551   1.704   3.983  1.1665  1.3824  1.5189
18840TIP3   OH278010   2.263   3.210  11.149  0.5107 -0.2892  0.1458
18840TIP3    H178011   2.304   3.133  11.108  2.2417 -0.2363  1.6825
18840TIP3    H278012   2.331   3.277  11.149 -0.4127  0.6766  0.4340
18841TIP3   OH278013   2.033   4.358  11.896 -0.1808 -0.3783  0.2154
18841TIP3    H178014   1.997   4.415  11.829 -0.9196  0.1548  1.0470
18841TIP3    H278015   1.968   4.289  11.907  0.0061 -0.5449  0.2923
18842TIP3   OH278016   3.334   2.801   1.719  0.2475 -0.5251 -0.1075
18842TIP3    H178017   3.272   2.782   1.649  0.2978 -0.4370 -0.1758
18842TIP3    H278018   3.329   2.896   1.730  2.0404 -0.2036 -1.6716
18843TIP3   OH278019   4.819   2.444   2.181  0.1302 -0.4055  0.5060
18843TIP3    H178020   4.872   2.435   2.260  2.4121 -1.1308 -1.0193
18843TIP3    H278021   4.832   2.535   2.155  0.2166 -0.4518  0.3901
18844TIP3   OH278022   3.168   5.108   3.717  0.2328 -0.3360 -0.0340
18844TIP3    H178023   3.113   5.067   3.651 -0.1510 -1.5278  0.9935
18844TIP3    H278024   3.118   5.102   3.798  0.8757  0.7149  0.4694
18845TIP3   OH278025   0.921   1.796   5.207 -0.8186 -0.1199  0.1871
18845TIP3    H178026   0.979   1.845   5.265 -1.7966  0.9880  0.2690
18845TIP3    H278027   0.890   1.723   5.261  2.5163 -2.4175 -0.6435
18846TIP3   OH278028   1.113   3.539   2.723  0.2129  0.1063 -0.6095
18846TIP3    H178029   1.143   3.452   2.747  1.3788  0.6987  0.2126
18846TIP3    H278030   1.156   3.597   2.787 -1.5040  1.1617 -0.3572
18847TIP3   OH278031   6.626   5.762  13.296 -0.2663  0.1191 -0.0851
18847TIP3    H178032   6.578   5.800  13.223  0.3089 -1.3333 -1.2789
18847TIP3    H278033   6.574   5.686  13.322 -0.8431  1.0305  1.5288
18848TIP3   OH278034   1.922   6.491   5.203  0.2794 -0.4047  0.3374
18848TIP3    H178035   1.874   6.565   5.238 -0.6043 -0.8294  0.0598
18848TIP3    H278036   1.996   6.479   5.262 -0.3816 -0.2124  1.2107
18849TIP3   OH278037   2.330   5.980  16.348  0.2143 -0.5289  0.3779
18849TIP3    H178038   2.414   5.989  16.394  1.2271  0.0511 -1.4709
18849TIP3    H278039   2.286   6.064  16.361  0.7996 -0.1161 -0.2608
18850TIP3   OH278040   3.582   5.125   3.562 -0.4730 -0.2399 -0.1624
18850TIP3    H178041   3.574   5.220   3.553  2.2180  0.0145 -0.6935
18850TIP3    H278042   3.549   5.107   3.650  0.6369  1.4598  0.6610
18851TIP3   OH278043   3.000   5.725  12.701  0.6508  0.4770  0.2590
18851TIP3    H178044   3.061   5.681  12.642  1.3009  0.6065  0.8225
18851TIP3    H278045   2.919   5.673  12.696  0.7438  0.4136 -0.6343
18852TIP3   OH278046   6.544   4.979   5.337  0.1878 -0.8199 -0.0397
18852TIP3    H178047   6.579   4.958   5.251  1.2135 -1.0384  0.4127
18852TIP3    H278048   6.607   5.040   5.374 -0.8308  0.1589  0.1237
18853TIP3   OH278049   1.203   5.592   5.540  0.0084 -0.1035 -0.0128
18853TIP3    H178050   1.165   5.676   5.512  2.0237  1.3706  1.3591
18853TIP3    H278051   1.141   5.558   5.604 -1.6224 -0.4948 -1.7371
18854TIP3   OH278052   1.636   3.600  11.372 -0.2403 -0.0049  0.0942
18854TIP3    H178053   1.570   3.660  11.339 -1.0122 -1.6685 -1.6008
18854TIP3    H278054   1.588   3.543  11.432  0.2606  0.4160  0.9084
18855TIP3   OH278055   4.487   6.663  14.782 -0.0470  0.3177  0.2506
18855TIP3    H178056   4.503   6.583  14.732 -0.8332  0.5962 -0.4547
18855TIP3    H278057   4.542   6.729  14.739  1.0962  0.0321  1.2237
18856TIP3   OH278058   6.412   2.551   0.239 -0.5182 -0.3196  0.0885
18856TIP3    H178059   6.382   2.569   0.328  1.1194  0.5073  0.5108
18856TIP3    H278060   6.331   2.547   0.187 -1.4151  0.8197  1.3225
18857TIP3   OH278061   5.917   5.809  15.291 -0.4094  0.2292 -0.1798
18857TIP3    H178062   5.887   5.806  15.381 -0.8264  0.6064 -0.3018
18857TIP3    H278063   5.992   5.870  15.292  1.2473 -1.7193  0.3638
18858TIP3   OH278064   1.294   6.159  13.082  0.4119 -0.4371  0.3359
18858TIP3    H178065   1.352   6.169  13.007  1.3811  1.3359  1.2496
18858TIP3    H278066   1.212   6.126  13.045  1.0270 -0.0960 -1.4200
18859TIP3   OH278067   0.152   6.200  15.245 -0.1947 -0.5274  0.5891
18859TIP3    H178068   0.066   6.232  15.274 -0.3442  0.4164 -0.7816
18859TIP3    H278069   0.211   6.274  15.259  0.6587 -1.4878  2.4493
18860TIP3   OH278070   1.566   2.096   5.925 -0.0290 -0.1257  0.1186
18860TIP3    H178071   1.552   2.114   6.018 -2.7302 -2.7102  0.3624
18860TIP3    H278072   1.656   2.065   5.920  0.1413 -0.0219  1.9056
18861TIP3   OH278073   1.855   1.633  15.799 -0.2923 -0.3656 -0.3648
18861TIP3    H178074   1.943   1.600  15.820 -0.0525  0.1492 -0.5236
18861TIP3    H278075   1.842   1.705  15.861 -1.3296 -1.5367  0.8487
18862TIP3   OH278076   5.117   4.257   5.343 -0.3375  0.6041  0.2770
18862TIP3    H178077   5.201   4.218   5.321 -1.0901 -0.7900 -0.2930
18862TIP3    H278078   5.111   4.334   5.287  1.2005  1.6243  1.4485
18863TIP3   OH278079   4.603   2.222   4.421 -0.2676  0.0776  0.4881
18863TIP3    H178080   4.517   2.254   4.395 -0.0611  0.5351  0.3480
18863TIP3    H278081   4.593   2.197   4.513 -0.6888 -0.3985  0.3183
18864TIP3   OH278082   3.303   6.692  12.181 -0.3207  0.4260  0.1204
18864TIP3    H178083   3.363   6.763  12.156 -1.8660  1.9100  0.4515
18864TIP3    H278084   3.293   6.702  12.276 -0.4957 -0.2973  0.1795
18865TIP3   OH278085   2.378   1.895  11.186 -0.4386  0.2358 -0.3637
18865TIP3    H178086   2.462   1.939  11.174  0.2188 -0.8062  0.2803
18865TIP3    H278087   2.395   1.804  11.163 -1.1716 -0.1601  0.6092
18866TIP3   OH278088   1.376   1.233  11.866  0.2639 -0.3861 -0.1492
18866TIP3    H178089   1.281   1.222  11.871  0.1804  0.5672  0.6575
18866TIP3    H278090   1.408   1.148  11.835 -0.9159 -0.4021 -1.4142
18867TIP3   OH278091   0.583   0.879   2.437 -0.2469  0.0530 -0.0453
18867TIP3    H178092   0.559   0.884   2.530 -3.2783 -2.4115 -0.5325
18867TIP3    H278093   0.608   0.787   2.424 -0.1108  0.2952 -1.7257
18868TIP3   OH278094   1.435   1.824   2.299 -0.4439  0.2523 -0.8077
18868TIP3    H178095   1.393   1.739   2.291  0.8840 -0.3354 -1.8972
18868TIP3    H278096   1.372   1.878   2.347 -0.0900 -2.1854  2.7804
18869TIP3   OH278097   2.369   1.774  14.824  0.3866  0.0501 -0.3913
18869TIP3    H178098   2.301   1.711  14.798  0.0134  0.3909 -0.2572
18869TIP3    H278099   2.449   1.742  14.782  0.4369 -1.1200  0.5559
18870TIP3   OH278100   6.282   5.794   1.484  0.6497  0.0558 -0.7185
18870TIP3    H178101   6.206   5.793   1.425  0.0093 -2.0865  0.0272
18870TIP3    H278102   6.340   5.861   1.448 -1.1371  1.0455 -1.9050
18871TIP3   OH278103   5.585   0.456  15.590 -0.0762  0.3958  0.5078
18871TIP3    H178104   5.541   0.540  15.572  0.9244  0.6762 -0.7683
18871TIP3    H278105   5.574   0.406  15.510  1.0517  0.0778  0.5419
18872TIP3   OH278106   6.302   5.164  13.210  0.6093 -0.2028  0.2848
18872TIP3    H178107   6.280   5.084  13.259  3.2785 -0.7499  0.7370
18872TIP3    H278108   6.284   5.142  13.119 -0.2363 -0.7103  0.5579
18873TIP3   OH278109   4.913   6.769  15.149  0.6623 -0.2336 -0.7526
18873TIP3    H178110   4.919   6.771  15.054 -0.8051 -1.3109 -0.8965
18873TIP3    H278111   4.913   6.676  15.172 -1.3336 -0.0776  0.0922
18874TIP3   OH278112   2.841   2.312   4.573  0.3194 -0.2536 -0.4647
18874TIP3    H178113   2.805   2.239   4.524  2.4281 -0.1160 -2.3840
18874TIP3    H278114   2.928   2.326   4.535  0.7810  1.9617  1.1957
18875TIP3   OH278115   4.282   3.902  15.665 -0.6160  0.2794 -0.2935
18875TIP3    H178116   4.288   3.830  15.728 -0.9232 -0.0259 -0.6091
18875TIP3    H278117   4.369   3.943  15.667 -0.0008 -0.9342 -1.1088
18876TIP3   OH278118   5.738   0.835  13.457 -0.8963 -0.4193 -0.1669
18876TIP3    H178119   5.770   0.917  13.421 -0.8440  0.6175  2.0738
18876TIP3    H278120   5.643   0.845  13.458 -0.8343  1.1262  3.1300
18877TIP3   OH278121   4.569   2.009  12.313 -0.7090 -0.3345 -0.1369
18877TIP3    H178122   4.516   1.930  12.324 -0.1336 -1.1651 -2.6621
18877TIP3    H278123   4.511   2.071  12.269 -0.8978  0.3831  1.0851
18878TIP3   OH278124   0.495   3.113  15.680  0.1641  0.5215  0.1266
18878TIP3    H178125   0.490   3.033  15.628 -1.0921 -0.4795  1.7180
18878TIP3    H278126   0.589   3.134  15.683  0.6209 -1.4062  0.4263
18879TIP3   OH278127   2.578   5.530   3.249  0.1092  0.0656 -0.0268
18879TIP3    H178128   2.544   5.451   3.290 -1.9851  0.3884 -1.0165
18879TIP3    H278129   2.653   5.499   3.198  1.7136 -0.5937  2.5734
18880TIP3   OH278130   6.718   2.344  12.539 -0.1519 -0.1113  0.2632
18880TIP3    H178131   6.779   2.319  12.469 -0.1454  0.9760 -0.1415
18880TIP3    H278132   6.774   2.354  12.616 -0.1440 -1.2091  0.4166
18881TIP3   OH278133   4.237   5.709  15.519  0.8922  0.3266 -0.3724
18881TIP3    H178134   4.157   5.756  15.545  2.5659  2.4386  1.3847
18881TIP3    H278135   4.220   5.618  15.539 -1.1542  0.6922 -0.2820
18882TIP3   OH278136   3.887   3.679   5.253  0.0528 -0.0400  0.9174
18882TIP3    H178137   3.821   3.655   5.319  0.2549 -2.3598  0.3751
18882TIP3    H278138   3.963   3.625   5.275 -0.0395 -1.2535 -1.4564
18883TIP3   OH278139   0.313   4.605  15.943  0.6301  0.0633 -0.2999
18883TIP3    H178140   0.273   4.669  16.003 -1.5740 -0.7710 -0.7973
18883TIP3    H278141   0.278   4.628  15.857  0.9558 -0.9215 -0.7092
18884TIP3   OH278142   3.432   3.418   3.875 -0.0304 -0.6606  0.4806
18884TIP3    H178143   3.499   3.476   3.911 -0.7613  1.3855 -1.2624
18884TIP3    H278144   3.438   3.338   3.929  0.6245  1.2011  3.4146
18885TIP3   OH278145   1.106   3.584   3.514 -0.1428  0.4900 -0.1527
18885TIP3    H178146   1.017   3.569   3.545  0.3394 -0.3966  0.8794
18885TIP3    H278147   1.154   3.506   3.542  1.0382  1.1132 -0.3777
18886TIP3   OH278148   2.261   1.763  14.454 -0.4579  0.1304  0.7330
18886TIP3    H178149   2.311   1.840  14.482  0.0368  0.1292 -0.1069
18886TIP3    H278150   2.320   1.716  14.395 -2.3080  1.5807 -2.5484
18887TIP3   OH278151   4.690   3.534  12.314 -0.5689 -0.1057  0.4988
18887TIP3    H178152   4.604   3.491  12.316 -1.0673  0.8439  3.3205
18887TIP3    H278153   4.683   3.596  12.242 -1.2577 -1.8622 -1.0385
18888TIP3   OH278154   5.677   4.703   0.760 -0.5837 -0.8352  0.2945
18888TIP3    H178155   5.652   4.793   0.780 -0.9596 -0.4094 -1.8813
18888TIP3    H278156   5.595   4.655   0.755 -0.5522 -0.8116 -0.6456
18889TIP3   OH278157   5.054   0.864   4.574  0.1596 -0.5025 -0.4274
18889TIP3    H178158   5.109   0.933   4.538  0.5935  0.2405  1.5105
18889TIP3    H278159   5.114   0.792   4.592  0.5500  0.2278  1.4813
18890TIP3   OH278160   1.260   5.773  12.285 -0.3286  0.2225 -0.5402
18890TIP3    H178161   1.282   5.823  12.206 -1.4029  1.1322 -0.2827
18890TIP3    H278162   1.167   5.788  12.298  0.0929  1.2574  1.7236
18891TIP3   OH278163   1.277   6.180   0.089  0.4377  0.6430  0.5610
18891TIP3    H178164   1.345   6.178   0.022  0.5840  1.3496  0.6714
18891TIP3    H278165   1.299   6.108   0.148  0.4855  0.2156  0.0198
18892TIP3   OH278166   2.768   1.114  14.088  0.6500  0.7988  0.0931
18892TIP3    H178167   2.860   1.087  14.080  0.3528 -0.3767  0.4746
18892TIP3    H278168   2.726   1.080  14.009 -0.1172 -1.6086  1.4471
18893TIP3   OH278169   3.250   1.975  10.871  0.2877  0.1427 -0.3026
18893TIP3    H178170   3.159   1.973  10.900 -0.1406  1.2842 -1.4539
18893TIP3    H278171   3.271   2.069  10.868  1.0130 -0.0436 -1.4849
18894TIP3   OH278172   5.299   1.493  11.109  0.4363  0.3787  0.0415
18894TIP3    H178173   5.292   1.411  11.159 -0.6106  0.0415 -0.6353
18894TIP3    H278174   5.217   1.539  11.127  0.5560  0.7859 -0.4422
18895TIP3   OH278175   0.087   3.156   5.995  0.0246 -0.4131 -0.4053
18895TIP3    H178176   0.163   3.209   6.020 -1.0228  2.1055 -2.1917
18895TIP3    H278177   0.116   3.108   5.918 -0.2087  0.7171 -1.2221
18896TIP3   OH278178   1.309   5.265   4.438 -0.1463 -0.0667 -0.0155
18896TIP3    H178179   1.340   5.189   4.388 -0.1610 -0.9259  1.2342
18896TIP3    H278180   1.214   5.263   4.426 -0.0775  0.2655 -0.6709
18897TIP3   OH278181   6.200   1.508  13.568 -0.1328  0.2867  1.1497
18897TIP3    H178182   6.240   1.506  13.655 -1.2343  0.2602  1.6671
18897TIP3    H278183   6.184   1.601  13.550 -0.0199  0.2831  1.0272
18898TIP3   OH278184   2.640   0.787   1.055  0.0972  0.1976 -0.3616
18898TIP3    H178185   2.694   0.771   0.978  1.3221  0.0722  0.5062
18898TIP3    H278186   2.628   0.700   1.094  3.8299  0.6775  2.4091
18899TIP3   OH278187   1.685   5.962  16.375 -0.1578 -0.1339 -0.2935
18899TIP3    H178188   1.769   5.984  16.415  0.7717  0.1882 -2.3128
18899TIP3    H278189   1.623   5.963  16.448  1.4918  0.0530  1.1778
18900TIP3   OH278190   4.839   2.110   5.890  0.6944  0.5406  0.0026
18900TIP3    H178191   4.786   2.120   5.969  1.0683 -0.6536  0.4240
18900TIP3    H278192   4.865   2.200   5.867 -0.2765  0.9942  0.6271
18901TIP3   OH278193   5.426   2.188   6.262 -0.1320  0.2468  1.1597
18901TIP3    H178194   5.413   2.269   6.312  1.9575 -0.0861  2.3415
18901TIP3    H278195   5.488   2.212   6.194 -0.8036  0.0077  0.4445
18902TIP3   OH278196   1.192   0.285  13.680 -0.4827  0.2495  0.2930
18902TIP3    H178197   1.258   0.349  13.652 -0.5269 -0.1899 -0.8877
18902TIP3    H278198   1.146   0.262  13.599 -0.2273 -1.5426  0.6211
18903TIP3   OH278199   0.084   1.618   1.420 -0.0293  0.4997 -0.6058
18903TIP3    H178200   0.098   1.686   1.486 -0.0873  1.9436 -2.0346
18903TIP3    H278201  -0.006   1.632   1.389 -0.5567 -1.1491  0.0644
18904TIP3   OH278202   2.626   3.345  12.640  0.3187 -0.3237 -0.5320
18904TIP3    H178203   2.699   3.337  12.702  1.4607 -0.8318 -1.8880
18904TIP3    H278204   2.599   3.255  12.623 -3.0405 -0.1325  2.5775
18905TIP3   OH278205   2.894   1.298   0.888  0.2458  0.4004 -0.0318
18905TIP3    H178206   2.805   1.303   0.922  0.9435 -0.7483  2.1759
18905TIP3    H278207   2.915   1.205   0.889  1.7475  0.7155  0.3071
18906TIP3   OH278208   1.915   2.745   4.676 -0.3827 -0.1625  0.1906
18906TIP3    H178209   2.000   2.762   4.634 -0.3451  0.7184  0.5951
18906TIP3    H278210   1.937   2.702   4.758 -0.2560  0.7443  0.6531
18907TIP3   OH278211   3.116   3.602  12.168  0.3033 -0.7601  0.3723
18907TIP3    H178212   3.158   3.659  12.104 -0.2524 -1.1002 -0.3087
18907TIP3    H278213   3.051   3.657  12.210 -1.9320 -1.4130 -1.9524
18908TIP3   OH278214   0.616   3.859   3.352 -0.3714 -0.2822 -0.2247
18908TIP3    H178215   0.621   3.951   3.379 -0.6521  0.5347 -2.6642
18908TIP3    H278216   0.557   3.819   3.415  0.3988  0.9975  1.3841
18909TIP3   OH278217   3.689   6.176  16.534  0.2322 -0.5513 -0.6766
18909TIP3    H178218   3.666   6.253  16.483  0.0887 -1.2778 -1.7418
18909TIP3    H278219   3.680   6.103  16.472 -2.3381 -1.7782  0.9590
18910TIP3   OH278220   3.840   3.127   4.320  0.1042 -0.8599 -0.3052
18910TIP3    H178221   3.817   3.044   4.362 -0.9569 -0.8568 -0.8317
18910TIP3    H278222   3.935   3.124   4.310 -0.0104 -2.4874 -1.2718
18911TIP3   OH278223   2.397   2.971   3.283  0.5232 -0.2298  0.6005
18911TIP3    H178224   2.395   2.968   3.188  0.0879 -0.7191  0.6198
18911TIP3    H278225   2.315   3.013   3.308 -0.0082 -1.3396  0.7929
18912TIP3   OH278226   4.838   3.223   0.214  0.0268  0.1172  0.1749
18912TIP3    H178227   4.875   3.193   0.131  2.5054  0.0685  1.1962
18912TIP3    H278228   4.848   3.149   0.273 -1.8155  0.1161  0.5387
18913TIP3   OH278229   4.978   6.031  16.361 -0.4853 -0.2798 -0.1358
18913TIP3    H178230   4.981   6.105  16.421  0.3724 -0.2923 -0.1506
18913TIP3    H278231   5.069   6.019  16.332 -1.0906  0.7191 -2.6827
18914TIP3   OH278232   1.260   6.631   0.081 -0.6859  0.2809 -0.2875
18914TIP3    H178233   1.298   6.663  -0.001 -2.0667  0.6994 -0.7988
18914TIP3    H278234   1.261   6.707   0.139 -2.0350  0.7127 -0.7945
18915TIP3   OH278235   3.259   3.001  14.578 -0.2462  0.1036  0.3203
18915TIP3    H178236   3.217   3.070  14.525 -0.8838 -0.9807 -0.6358
18915TIP3    H278237   3.308   3.049  14.644  0.6423  1.5352 -1.2872
18916TIP3   OH278238   5.827   3.739  16.870 -0.5438 -0.5347  0.1654
18916TIP3    H178239   5.862   3.711  16.955 -0.2051  0.2998  0.3105
18916TIP3    H278240   5.765   3.809  16.892 -1.1952 -0.9854 -0.2089
18917TIP3   OH278241   0.166   2.584   3.953  0.2951 -0.0716 -0.2570
18917TIP3    H178242   0.119   2.537   3.885 -0.4661  1.4170 -0.8054
18917TIP3    H278243   0.168   2.675   3.923  2.8040  0.0812  0.1478
18918TIP3   OH278244   1.551   5.234   1.020 -0.6962 -0.3644  0.1046
18918TIP3    H178245   1.497   5.292   0.966 -0.2278  2.3368  2.2701
18918TIP3    H278246   1.543   5.271   1.108  1.9089 -1.9806  1.1191
18919TIP3   OH278247   4.940   6.035  17.210 -0.4256 -0.3961 -0.3364
18919TIP3    H178248   4.900   6.026  17.123  1.0852  3.2108 -1.5926
18919TIP3    H278249   4.872   6.077  17.263  0.1765  1.9749 -1.3079
18920TIP3   OH278250   2.163   5.188  17.280 -0.0564 -0.0656 -0.1562
18920TIP3    H178251   2.192   5.123  17.344 -2.1045  1.1114  2.1478
18920TIP3    H278252   2.068   5.188  17.287 -0.1712  2.7347 -0.4970
18921TIP3   OH278253   5.107   0.265   3.811 -0.8477  0.4093  0.6268
18921TIP3    H178254   5.114   0.349   3.766 -0.8595 -0.8729 -1.9957
18921TIP3    H278255   5.198   0.234   3.817 -0.9604 -0.0145  0.2297
18922TIP3   OH278256   2.587   5.020   6.510 -0.6157 -0.2994  0.0123
18922TIP3    H178257   2.672   4.988   6.542 -0.9185  0.4214  1.6198
18922TIP3    H278258   2.523   4.967   6.557 -1.0900  1.2240  1.1254
18923TIP3   OH278259   6.657   1.810  11.177 -0.2765 -0.5575  0.0422
18923TIP3    H178260   6.576   1.766  11.152 -1.1846  0.0787  1.7258
18923TIP3    H278261   6.680   1.772  11.262  0.7799 -0.1712 -0.0469
18924TIP3   OH278262   1.826   1.526  10.521  0.4316  0.4972 -0.1900
18924TIP3    H178263   1.913   1.496  10.546 -0.2988 -0.6699  1.0657
18924TIP3    H278264   1.819   1.505  10.428  0.9581 -0.7538  0.0430
18925TIP3   OH278265   3.990   2.029   3.835  0.4095  0.1465 -0.5164
18925TIP3    H178266   4.073   2.075   3.823 -0.3633  1.7649  0.0745
18925TIP3    H278267   3.935   2.059   3.763 -0.0670  0.0347 -0.2011
18926TIP3   OH278268   2.086   6.679   0.037  0.0362 -0.0093 -0.1899
18926TIP3    H178269   2.174   6.701   0.068 -0.2772 -0.1816  0.8762
18926TIP3    H278270   2.089   6.586   0.018 -0.3805 -0.4364  1.6280
18927TIP3   OH278271   4.721   0.115   1.205  0.2130 -0.4597  0.0424
18927TIP3    H178272   4.747   0.090   1.117 -0.1422 -0.4536 -0.0644
18927TIP3    H278273   4.736   0.210   1.209 -1.2457 -0.1726 -0.5376
18928TIP3   OH278274   5.541   0.718   0.691  0.3355 -0.6236 -0.2029
18928TIP3    H178275   5.459   0.671   0.675  0.3209 -0.9923  0.9302
18928TIP3    H278276   5.519   0.810   0.672  0.1171 -0.9206 -1.4916
18929TIP3   OH278277   2.741   5.077   0.317 -0.6070  0.2037 -0.1502
18929TIP3    H178278   2.726   4.997   0.367  0.8835 -0.5194 -0.7984
18929TIP3    H278279   2.836   5.084   0.310 -0.7368  1.3754 -1.1318
18930TIP3   OH278280   2.987   4.266   0.122 -0.2677  0.0775 -0.1308
18930TIP3    H178281   2.976   4.280   0.028  0.2034 -0.5243 -0.2855
18930TIP3    H278282   3.010   4.173   0.130 -3.1876 -0.6625  0.8222
18931TIP3   OH278283   3.178   1.700  15.593  0.3667 -0.0683 -0.0827
18931TIP3    H178284   3.183   1.794  15.608  3.7097 -0.0544 -0.3664
18931TIP3    H278285   3.164   1.691  15.499  2.3902  0.2839 -0.4743
18932TIP3   OH278286   1.318   2.186  14.365  0.4831 -0.2157  0.1544
18932TIP3    H178287   1.267   2.111  14.334  0.9016 -0.1572 -0.7018
18932TIP3    H278288   1.254   2.242  14.409  0.1660 -1.0725  0.8212
18933TIP3   OH278289   5.781   3.444   5.519 -0.2877  0.3893  0.5022
18933TIP3    H178290   5.725   3.411   5.590 -1.1615 -0.5897 -0.6089
18933TIP3    H278291   5.721   3.460   5.447  0.5626  1.6035  0.0384
18934TIP3   OH278292   6.466   6.527  15.184 -0.5202  0.3265 -0.0301
18934TIP3    H178293   6.384   6.490  15.216 -0.5893  1.1975  0.8443
18934TIP3    H278294   6.464   6.619  15.212  1.1563  0.1395  0.8375
18935TIP3   OH278295   3.033   0.780  13.434 -0.2023 -0.4240 -0.8470
18935TIP3    H178296   3.024   0.688  13.407  0.2137 -0.8139  0.3083
18935TIP3    H278297   3.092   0.818  13.369  1.9621 -1.7063  0.2528
18936TIP3   OH278298   4.688   2.915  14.891 -0.0767  0.1117  0.7634
18936TIP3    H178299   4.600   2.935  14.858  0.4814  1.2201 -0.1279
18936TIP3    H278300   4.699   2.821  14.876  0.0076  0.4810 -1.9469
18937TIP3   OH278301   3.689   0.396  14.690 -0.2481 -0.6562 -0.2248
18937TIP3    H178302   3.700   0.317  14.637  1.4530 -0.3395 -0.3792
18937TIP3    H278303   3.750   0.460  14.653 -0.3628  0.1819  0.9566
18938TIP3   OH278304   4.221   1.749   0.764  0.1649 -0.0657  0.0541
18938TIP3    H178305   4.200   1.760   0.672 -1.8035  2.3594  0.6985
18938TIP3    H278306   4.176   1.669   0.790 -2.3770  1.1505 -0.3325
18939TIP3   OH278307   4.131   4.212   4.863 -0.0845  0.2904 -0.4924
18939TIP3    H178308   4.051   4.259   4.840 -0.8335 -1.3096 -1.2726
18939TIP3    H278309   4.187   4.220   4.786 -0.1342  0.0228 -0.5527
18940TIP3   OH278310   4.963   3.841   3.221  0.6317 -0.4936 -0.1735
18940TIP3    H178311   4.920   3.824   3.137  0.3148 -1.8396  0.2299
18940TIP3    H278312   5.005   3.926   3.210  1.0437 -0.8823 -1.8906
18941TIP3   OH278313   6.281   1.430   6.671 -0.3808 -0.2771  0.4296
18941TIP3    H178314   6.323   1.515   6.687  0.8460 -1.0430  1.3596
18941TIP3    H278315   6.189   1.453   6.652 -0.1641  1.2217  1.0360
18942TIP3   OH278316   2.025   3.911  12.667 -0.2578 -0.6971  0.3231
18942TIP3    H178317   2.064   3.996  12.644 -0.8316 -0.7284 -0.8691
18942TIP3    H278318   2.032   3.860  12.586  0.2170 -1.8437  1.0816
18943TIP3   OH278319   2.723   0.009   4.088 -0.1873 -0.3526 -0.2175
18943TIP3    H178320   2.699   0.079   4.028  1.3781 -0.1699 -0.6961
18943TIP3    H278321   2.745  -0.065   4.031  1.4166 -0.1472  0.0869
18944TIP3   OH278322   3.122   2.760  16.354  0.4502 -0.0367 -0.0113
18944TIP3    H178323   3.139   2.810  16.274  1.1195 -0.2167  0.0097
18944TIP3    H278324   3.167   2.809  16.423 -2.5175  1.7411  0.8177
18945TIP3   OH278325   6.220   3.780   2.406  0.2621  0.2415 -0.2777
18945TIP3    H178326   6.169   3.810   2.331  0.5024  0.0942 -0.5009
18945TIP3    H278327   6.300   3.834   2.403  0.8110 -0.5786 -0.8237
18946TIP3   OH278328   6.643   5.464  13.880  0.3966 -0.3042 -0.0737
18946TIP3    H178329   6.715   5.452  13.942  0.4869 -0.0100 -0.1189
18946TIP3    H278330   6.644   5.385  13.826  1.4385  0.2138 -0.8433
18947TIP3   OH278331   0.165   3.954  13.886 -0.7875  0.6215  0.0374
18947TIP3    H178332   0.094   3.894  13.862 -0.1449 -1.0371  1.9675
18947TIP3    H278333   0.122   4.019  13.942 -0.9479  0.0378  0.6140
18948TIP3   OH278334   0.645   1.808  17.114  0.0808 -0.2737  1.0759
18948TIP3    H178335   0.581   1.822  17.184 -1.3634 -0.1906 -0.1881
18948TIP3    H278336   0.652   1.713  17.106 -0.3083 -0.2889  0.8744
18949TIP3   OH278337   1.926   0.831  15.274 -0.3322 -0.2740  0.3547
18949TIP3    H178338   1.855   0.895  15.282 -0.7884 -0.7993  0.5962
18949TIP3    H278339   1.935   0.817  15.180 -0.6426 -0.3079  0.3285
18950TIP3   OH278340   0.047   5.195  16.328 -0.1067  0.3981 -0.0838
18950TIP3    H178341   0.111   5.244  16.276  0.6781  0.8076  1.2408
18950TIP3    H278342   0.095   5.163  16.404 -0.4919 -2.7248 -0.9833
18951TIP3   OH278343   0.131   1.288   0.707  0.4152 -0.1797 -0.1646
18951TIP3    H178344   0.165   1.216   0.760  1.0011  0.1418 -0.0937
18951TIP3    H278345   0.056   1.321   0.757  0.9046  0.0623  0.4243
18952TIP3   OH278346   4.346   4.426  16.674 -0.0572  0.4074  0.0693
18952TIP3    H178347   4.265   4.476  16.679  0.0598  1.2060 -3.4693
18952TIP3    H278348   4.415   4.492  16.672  0.3880 -0.0669 -0.7681
18953TIP3   OH278349   4.750   2.101   1.644 -0.1104 -0.1289  0.0856
18953TIP3    H178350   4.682   2.151   1.688 -0.4090  0.1073 -0.6177
18953TIP3    H278351   4.709   2.017   1.622 -0.1407 -0.0366 -0.2218
18954TIP3   OH278352   4.608   1.724   4.772  0.1790  0.1407  0.7118
18954TIP3    H178353   4.618   1.722   4.867  0.1696 -4.0846  0.8137
18954TIP3    H278354   4.697   1.719   4.738  0.1147 -0.2918  0.5945
18955TIP3   OH278355   3.504   6.348   3.825  0.1622 -0.6100 -0.5427
18955TIP3    H178356   3.500   6.348   3.730  0.5461  0.5289 -0.5722
18955TIP3    H278357   3.416   6.323   3.853 -0.8428  1.8127 -1.2222
18956TIP3   OH278358   0.847   0.639   2.099  1.1097  0.2017  0.1278
18956TIP3    H178359   0.859   0.709   2.163 -0.2870 -0.2511  0.9465
18956TIP3    H278360   0.889   0.671   2.019 -0.3634  2.4313  0.1602
18957TIP3   OH278361   6.454   0.529   3.935  0.4207 -0.1089  0.2454
18957TIP3    H178362   6.436   0.602   3.875  0.9279  0.4325  0.7309
18957TIP3    H278363   6.370   0.486   3.948  0.6353 -1.6632 -2.6421
18958TIP3   OH278364   4.536   2.069  13.322 -0.3843  0.1177 -0.2026
18958TIP3    H178365   4.627   2.078  13.294  0.0604  0.5520  1.2503
18958TIP3    H278366   4.498   2.156  13.307 -1.2896 -0.6503 -2.9960
18959TIP3   OH278367   3.186   0.010   5.020 -0.1891  0.0709 -0.5846
18959TIP3    H178368   3.227  -0.065   5.064 -0.2494  0.3890  0.0214
18959TIP3    H278369   3.112  -0.027   4.972 -0.2403 -0.2540 -0.2575
18960TIP3   OH278370   4.933   0.190  14.147 -0.0180  0.1948 -1.2975
18960TIP3    H178371   4.848   0.169  14.186 -0.0341 -0.1827 -1.5350
18960TIP3    H278372   4.934   0.286  14.143 -0.4883  0.1992 -1.4053
18961TIP3   OH278373   2.282   5.392  14.384  0.2438 -0.2532  0.1662
18961TIP3    H178374   2.300   5.299  14.400  1.3202 -0.0259  0.3407
18961TIP3    H278375   2.200   5.408  14.430 -0.4709 -1.3360 -0.6696
18962TIP3   OH278376   3.524   5.591   5.720 -0.3319  0.0026 -0.3740
18962TIP3    H178377   3.518   5.571   5.626  1.2104 -0.9804 -0.2925
18962TIP3    H278378   3.612   5.629   5.730 -0.3531 -0.2248  0.7250
18963TIP3   OH278379   5.773   6.440  13.644 -0.2516 -0.4206  0.2139
18963TIP3    H178380   5.765   6.480  13.557 -3.2404  0.5704  0.8269
18963TIP3    H278381   5.788   6.347  13.625 -0.8484 -0.2328 -1.3877
18964TIP3   OH278382   6.202   1.284   0.905 -0.1860 -0.0368  0.1005
18964TIP3    H178383   6.168   1.339   0.975  1.0703 -0.2156  0.8959
18964TIP3    H278384   6.191   1.195   0.937  0.2537 -0.1252  0.0133
18965TIP3   OH278385   0.994   5.367   2.913  0.4117  0.6944  0.5611
18965TIP3    H178386   0.980   5.361   2.818  0.5985  0.7179  0.5312
18965TIP3    H278387   0.920   5.319   2.951  1.3748 -1.0541  0.3520
18966TIP3   OH278388   3.409   4.267   0.048 -0.6000  0.2153 -0.5258
18966TIP3    H178389   3.489   4.284  -0.002  0.4060 -2.1017  0.2017
18966TIP3    H278390   3.437   4.267   0.140 -1.2842 -1.2717 -0.2924
18967TIP3   OH278391   3.419   0.803  13.443 -0.1926 -0.1793  0.5467
18967TIP3    H178392   3.327   0.832  13.438 -0.1549 -0.1707 -0.2740
18967TIP3    H278393   3.464   0.857  13.378  0.9335  1.7278  2.7793
18968TIP3   OH278394   2.905   1.413  13.368  0.6483  0.5811  0.0479
18968TIP3    H178395   2.996   1.440  13.365  1.0274 -0.5152  0.8594
18968TIP3    H278396   2.885   1.405  13.462  0.6516 -2.0382 -0.0961
18969TIP3   OH278397   5.248   1.293  14.373 -0.3404  0.3587 -0.1328
18969TIP3    H178398   5.249   1.338  14.458  1.6853 -0.7981  0.5146
18969TIP3    H278399   5.339   1.297  14.343 -0.8289 -0.1656 -1.7727
18970TIP3   OH278400   4.168   6.626   2.814 -0.2071  0.3795  0.0698
18970TIP3    H178401   4.199   6.639   2.904  0.3153 -1.5623  0.2208
18970TIP3    H278402   4.244   6.644   2.759  0.0431 -0.3106  0.1717
18971TIP3   OH278403   3.826   4.370  16.928  0.0548 -0.3598  0.2166
18971TIP3    H178404   3.843   4.316  16.851  1.8344  0.2631  0.1212
18971TIP3    H278405   3.813   4.308  17.000  0.0216 -0.9265 -0.2793
18972TIP3   OH278406   0.868   2.097  11.527 -0.2447 -0.3745  0.0828
18972TIP3    H178407   0.934   2.029  11.540  0.1358  0.0110  0.1731
18972TIP3    H278408   0.910   2.178  11.558 -0.3996  0.0397 -0.7645
18973TIP3   OH278409   2.000   3.462  16.411 -0.7323 -0.6744  0.4660
18973TIP3    H178410   1.997   3.484  16.318  1.3811 -0.7016  0.3356
18973TIP3    H278411   2.011   3.366  16.412 -1.0951 -0.7155  0.7630
18974TIP3   OH278412   4.815   6.329  15.923  0.1720 -0.7784 -0.7399
18974TIP3    H178413   4.805   6.274  16.001  0.1370  0.6603  0.3078
18974TIP3    H278414   4.740   6.388  15.925 -1.2475 -2.2857 -3.2736
18975TIP3   OH278415   3.281   1.332   0.442 -0.1392  0.4236 -0.3134
18975TIP3    H178416   3.223   1.291   0.377 -0.0342  0.9380 -0.7338
18975TIP3    H278417   3.257   1.290   0.524  0.4109 -0.9685 -0.8277
18976TIP3   OH278418   4.866   3.583   1.945  0.0116 -0.3628 -0.0313
18976TIP3    H178419   4.816   3.647   1.996  1.5878  1.2197 -0.3783
18976TIP3    H278420   4.940   3.560   2.002  0.4140 -0.5146 -0.6098
18977TIP3   OH278421   0.248   3.392   0.679 -0.4627  0.2699  0.2702
18977TIP3    H178422   0.186   3.328   0.714  0.2699 -0.0676  0.9726
18977TIP3    H278423   0.213   3.476   0.708 -0.6751  0.0965  0.5271
18978TIP3   OH278424   4.312   4.272   0.274  0.1210 -1.2223  0.0900
18978TIP3    H178425   4.223   4.274   0.309  0.2936 -1.2202  0.5353
18978TIP3    H278426   4.350   4.191   0.308  0.0469 -1.6047 -0.7159
18979TIP3   OH278427   1.594   2.687  11.319  0.2081  0.4318 -0.6239
18979TIP3    H178428   1.633   2.632  11.250  0.7971 -1.3126  1.0146
18979TIP3    H278429   1.631   2.653  11.400 -0.2034  2.6589  0.5668
18980TIP3   OH278430   5.737   5.676   2.300 -0.0451 -0.5262 -0.0691
18980TIP3    H178431   5.707   5.612   2.365 -1.9957  0.1617 -0.2308
18980TIP3    H278432   5.779   5.745   2.352 -4.6292  1.7758  1.0191
18981TIP3   OH278433   4.983   5.704   5.343 -0.7177 -0.3055  0.7540
18981TIP3    H178434   5.020   5.747   5.420 -1.0455 -0.8210  1.2069
18981TIP3    H278435   4.919   5.767   5.309  1.2169  1.0084 -0.6081
18982TIP3   OH278436   0.290   2.911   2.419  0.3515  0.2957  0.0780
18982TIP3    H178437   0.260   2.997   2.389  0.5031  0.1453 -0.5060
18982TIP3    H278438   0.365   2.930   2.475 -0.1483  0.6002  0.6633
18983TIP3   OH278439   3.357   5.726  11.566 -0.0013  0.3659  0.1338
18983TIP3    H178440   3.265   5.719  11.591 -0.1166  0.7907 -0.1509
18983TIP3    H278441   3.381   5.638  11.536 -0.2872  0.2303  0.3045
18984TIP3   OH278442   3.263   0.238  15.927 -0.4014  0.1582  0.3287
18984TIP3    H178443   3.331   0.172  15.913 -0.9105 -0.2220 -0.3933
18984TIP3    H278444   3.307   0.321  15.908 -0.0654 -0.0612  0.1309
18985TIP3   OH278445   4.898   3.656   5.470 -0.2482  0.2478  0.1899
18985TIP3    H178446   4.814   3.614   5.488 -0.7878  1.0838 -0.2897
18985TIP3    H278447   4.962   3.606   5.521 -0.6660 -1.8494 -1.2332
18986TIP3   OH278448   5.473   0.065   5.831  0.0501 -0.0381  0.2615
18986TIP3    H178449   5.380   0.051   5.851  0.5762 -2.7785  1.2604
18986TIP3    H278450   5.490   0.009   5.755  1.4069 -1.7934  1.7533
18987TIP3   OH278451   0.513   1.533  11.465  0.7233  0.0677  0.0081
18987TIP3    H178452   0.548   1.593  11.531  0.2930 -0.6889  0.9505
18987TIP3    H278453   0.452   1.477  11.513  2.4085 -2.3093 -0.4241
18988TIP3   OH278454   5.752   0.689  14.706  0.8406  0.4745 -0.0048
18988TIP3    H178455   5.772   0.598  14.728  0.6517  0.4021 -0.1344
18988TIP3    H278456   5.833   0.722  14.667  1.0521  0.4912  0.4376
18989TIP3   OH278457   1.648   0.629  17.253  0.3228  0.0898  0.2382
18989TIP3    H178458   1.665   0.717  17.220 -1.0764  0.6178  0.8306
18989TIP3    H278459   1.667   0.571  17.180 -0.0291  0.9955 -0.5864
18990TIP3   OH278460   1.148   5.961   1.191 -0.2915  0.2052  0.1439
18990TIP3    H178461   1.227   5.939   1.241 -0.4651  2.5574  1.5865
18990TIP3    H278462   1.081   5.976   1.257 -1.7851 -0.9043 -1.0357
18991TIP3   OH278463   2.349   3.778  16.284  0.1533  0.3901 -0.8571
18991TIP3    H178464   2.262   3.752  16.314  2.1974 -4.8257  1.8587
18991TIP3    H278465   2.347   3.766  16.190 -2.3181  1.8144 -1.0753
18992TIP3   OH278466   6.499   2.620   1.847 -0.1071 -0.1659  0.2171
18992TIP3    H178467   6.548   2.592   1.924 -0.9299 -0.5359  0.6187
18992TIP3    H278468   6.540   2.702   1.820  0.4761 -0.2709  0.7766
18993TIP3   OH278469   4.817   4.951   6.500  0.3911  0.3893 -0.0214
18993TIP3    H178470   4.873   4.931   6.575  1.0280  1.5515 -0.1651
18993TIP3    H278471   4.739   4.897   6.513  1.1796 -0.6332  0.6201
18994TIP3   OH278472   0.692   2.687   1.606 -0.1090  0.0429  0.1883
18994TIP3    H178473   0.640   2.675   1.685 -2.7835 -1.9929 -1.6795
18994TIP3    H278474   0.718   2.598   1.581  0.1775  0.5694 -1.4954
18995TIP3   OH278475   3.684   3.522  11.987  0.0794  0.2431 -0.2103
18995TIP3    H178476   3.680   3.550  11.895 -0.3140  1.7592  0.2362
18995TIP3    H278477   3.630   3.585  12.034 -0.1202 -0.8001  1.0159
18996TIP3   OH278478   5.056   6.688   2.111 -0.3864 -0.4124  0.0188
18996TIP3    H178479   4.979   6.638   2.087  0.0063  0.3775 -3.4436
18996TIP3    H278480   5.130   6.636   2.077  0.4106  0.1101  0.9000
18997TIP3   OH278481   1.181   0.204  14.430  0.7967  0.1259  0.0269
18997TIP3    H178482   1.164   0.298  14.442  0.9238  0.2230 -0.5353
18997TIP3    H278483   1.161   0.187  14.338  1.3494 -0.2762 -0.0262
18998TIP3   OH278484   4.510   3.975  11.525  0.1005  0.7370 -0.3573
18998TIP3    H178485   4.457   3.983  11.445  0.9867 -0.1218 -1.0641
18998TIP3    H278486   4.563   3.897  11.509 -0.5863 -0.1901  1.6047
18999TIP3   OH278487   2.309   4.327  11.656 -0.7226 -0.1457  0.4370
18999TIP3    H178488   2.265   4.258  11.605  0.7388  0.0928 -1.2468
18999TIP3    H278489   2.246   4.399  11.656 -0.8169 -0.1972 -0.9659
19000TIP3   OH278490   6.474   1.126  14.526 -0.2197  0.4406  0.1927
19000TIP3    H178491   6.433   1.173  14.453  0.0954  1.4113  0.6111
19000TIP3    H278492   6.567   1.150  14.520 -0.2142  0.6680  0.9929
19001TIP3   OH278493   1.763   2.097   3.947  0.2610 -0.3271 -0.0934
19001TIP3    H178494   1.754   2.160   3.875  0.0157  1.5193  1.4629
19001TIP3    H278495   1.782   2.151   4.023  1.2928 -2.2902  1.1120
19002TIP3   OH278496   2.058   5.122  12.868  0.3736 -0.7531 -0.1332
19002TIP3    H178497   1.974   5.083  12.889 -0.1358  0.3434 -0.0492
19002TIP3    H278498   2.101   5.136  12.952 -0.9915  2.1652  0.1824
19003TIP3   OH278499   1.170   3.942  13.220  0.2780 -0.4475  0.4960
19003TIP3    H178500   1.255   3.956  13.178  0.1072 -2.0361 -0.4489
19003TIP3    H278501   1.120   3.891  13.157 -1.0416 -0.3898  1.4501
19004TIP3   OH278502   4.067   6.547  11.841  0.0679 -0.2336  0.5893
19004TIP3    H178503   4.021   6.463  11.845  0.2390 -0.2989  1.5732
19004TIP3    H278504   4.039   6.593  11.921  1.4035 -0.1257  1.0264
19005TIP3   OH278505   1.887   3.819  14.063 -0.0559 -0.3353 -0.3592
19005TIP3    H178506   1.976   3.839  14.034 -0.0126  0.1075  0.0694
19005TIP3    H278507   1.836   3.812  13.982  0.5579 -1.5588 -0.6567
19006TIP3   OH278508   2.598   5.857   2.736  1.0036  0.0168 -0.3221
19006TIP3    H178509   2.687   5.827   2.757  1.2745  1.3539  0.5763
19006TIP3    H278510   2.542   5.817   2.802  1.1584  0.3015 -0.0125
19007TIP3   OH278511   0.413   6.207   4.251 -0.6106  0.4460 -0.3585
19007TIP3    H178512   0.408   6.119   4.214  1.2803 -0.7104  1.8463
19007TIP3    H278513   0.490   6.246   4.209 -1.7273  1.2745 -1.6895
19008TIP3   OH278514   1.632   0.616  14.522 -0.0572 -0.0464 -0.1228
19008TIP3    H178515   1.632   0.524  14.548 -0.6784  0.0856  0.3844
19008TIP3    H278516   1.724   0.638  14.509  0.0782 -0.7958 -0.4532
19009TIP3   OH278517   3.417   5.405   4.727  0.2072  0.0670 -0.3440
19009TIP3    H178518   3.386   5.482   4.775 -0.8092  1.1786 -2.6084
19009TIP3    H278519   3.376   5.413   4.641  0.7552 -2.5978 -0.9424
19010TIP3   OH278520   6.336   3.591  13.013 -0.0224  0.3214 -0.1179
19010TIP3    H178521   6.297   3.572  12.927  0.7721 -1.0558 -0.2171
19010TIP3    H278522   6.426   3.615  12.993  0.2081 -0.1552  0.3294
19011TIP3   OH278523   4.775   6.312  10.842  0.5436 -0.0160 -0.3150
19011TIP3    H178524   4.797   6.296  10.750  1.5866 -2.5454  0.2885
19011TIP3    H278525   4.679   6.303  10.845  0.5608 -0.5829 -1.0711
19012TIP3   OH278526   6.282   1.470  16.971 -0.3328 -0.2516  0.1999
19012TIP3    H178527   6.274   1.405  17.040  0.6969 -1.9121 -1.1567
19012TIP3    H278528   6.368   1.509  16.985  0.1294 -1.0058 -0.4441
19013TIP3   OH278529   2.073   4.067   0.029 -0.2896 -0.2349 -0.4464
19013TIP3    H178530   2.042   4.137  -0.028  1.2484  0.6632 -0.2204
19013TIP3    H278531   2.043   4.093   0.116 -0.8509 -0.5469 -0.5412
19014TIP3   OH278532   5.767   5.199   4.956  0.2234  0.1121  0.8004
19014TIP3    H178533   5.713   5.274   4.932 -0.9037 -0.0870  2.5588
19014TIP3    H278534   5.812   5.226   5.036 -0.6364 -1.2440  1.7915
19015TIP3   OH278535   2.381   1.077   5.508 -0.4332  0.8016 -0.4352
19015TIP3    H178536   2.287   1.084   5.498 -0.2346  2.4347 -1.5252
19015TIP3    H278537   2.413   1.167   5.503  1.0789  0.4244  1.2596
19016TIP3   OH278538   3.808   4.001   4.079  0.1403 -0.5417 -0.0589
19016TIP3    H178539   3.869   4.050   4.024 -1.8120  0.9969 -1.0229
19016TIP3    H278540   3.789   4.060   4.152 -0.9081 -0.5440 -0.3039
19017TIP3   OH278541   3.591   5.787  13.742  0.0939  0.4675  0.0526
19017TIP3    H178542   3.529   5.839  13.690  0.3708 -0.6818 -1.5109
19017TIP3    H278543   3.642   5.738  13.677  0.3141 -1.2273  1.4217
19018TIP3   OH278544   5.270   3.809   5.934 -0.1277  0.4489 -0.3073
19018TIP3    H178545   5.222   3.845   6.009  0.5811 -1.1874  1.0078
19018TIP3    H278546   5.309   3.886   5.891 -1.3956  1.5199  0.3819
19019TIP3   OH278547   3.125   3.558   0.642  0.0660  0.1493  0.1389
19019TIP3    H178548   3.117   3.538   0.549 -1.3573 -1.0312  0.4747
19019TIP3    H278549   3.143   3.652   0.645  0.5011  0.1332 -1.3250
19020TIP3   OH278550   1.952   0.807   5.629 -0.1397  0.4713  0.1568
19020TIP3    H178551   1.938   0.738   5.694  0.0011  1.1202  0.8813
19020TIP3    H278552   1.997   0.762   5.557  0.7697 -0.0128  0.9971
19021TIP3   OH278553   4.353   6.317  12.094 -0.2669 -0.3034 -0.0105
19021TIP3    H178554   4.393   6.231  12.109  0.6156  0.4203  2.0132
19021TIP3    H278555   4.370   6.367  12.173 -2.4212  1.1464 -0.3526
19022TIP3   OH278556   3.884   4.195  14.738  0.1994 -0.4363  0.1569
19022TIP3    H178557   3.938   4.246  14.678 -0.9932 -0.1401 -0.7056
19022TIP3    H278558   3.877   4.109  14.697  0.0425 -0.4827  0.2805
19023TIP3   OH278559   1.203   3.211   3.904  0.1839 -0.3759 -0.8255
19023TIP3    H178560   1.122   3.202   3.954 -0.8941  1.2427 -2.1592
19023TIP3    H278561   1.178   3.265   3.829  2.4676 -0.0241 -1.3881
19024TIP3   OH278562   3.513   3.456  15.495 -0.2327 -0.0236  0.0146
19024TIP3    H178563   3.525   3.380  15.438 -1.7462 -1.1933  1.1398
19024TIP3    H278564   3.601   3.490  15.509  0.4847 -1.5272 -0.6259
19025TIP3   OH278565   6.584   5.746   0.131  0.0248 -0.2612 -0.1847
19025TIP3    H178566   6.637   5.681   0.180 -0.3259 -0.2502  0.2163
19025TIP3    H278567   6.645   5.783   0.068  0.1342 -1.2746 -0.7005
19026TIP3   OH278568   1.802   1.456  12.831 -0.0154 -0.4615  0.3495
19026TIP3    H178569   1.880   1.402  12.845  0.3812 -0.1694 -0.6792
19026TIP3    H278570   1.747   1.437  12.907  0.2562 -2.0737  0.1922
19027TIP3   OH278571   2.883   2.545  15.424  0.0070 -0.0222  0.2886
19027TIP3    H178572   2.858   2.468  15.474 -1.2078  0.7539  0.9205
19027TIP3    H278573   2.979   2.543  15.422 -0.0074 -1.4123  0.4764
19028TIP3   OH278574   6.600   0.373   3.731 -0.3010 -0.0621 -0.5110
19028TIP3    H178575   6.571   0.307   3.793 -0.1085  0.0228 -0.3299
19028TIP3    H278576   6.613   0.452   3.784  1.7239 -0.4878 -0.3151
19029TIP3   OH278577   6.520   5.803   5.787 -0.3462 -0.6382  0.1436
19029TIP3    H178578   6.426   5.816   5.798 -0.3436 -1.2179  0.9092
19029TIP3    H278579   6.559   5.833   5.870  0.4107  1.9457 -1.0171
19030TIP3   OH278580   1.361   0.564  14.404  0.0128 -0.2350 -0.3478
19030TIP3    H178581   1.302   0.578  14.478  1.2073  0.1468  0.5605
19030TIP3    H278582   1.447   0.590  14.436  0.8744 -1.7365 -1.3165
19031TIP3   OH278583   2.548   6.629  13.229 -0.6414  0.0637 -0.0787
19031TIP3    H178584   2.527   6.593  13.143 -1.0253  0.6141 -0.2178
19031TIP3    H278585   2.473   6.607  13.283 -0.1202 -0.8444  0.2914
19032TIP3   OH278586   2.480   0.097  12.797 -0.0859  0.1738 -0.5768
19032TIP3    H178587   2.476   0.007  12.765  0.8548 -0.0203 -0.1619
19032TIP3    H278588   2.398   0.137  12.766 -0.3102 -0.6944 -1.1263
19033TIP3   OH278589   6.801   2.851  16.838 -0.3565 -0.4239 -0.2508
19033TIP3    H178590   6.738   2.798  16.789  0.1659 -1.6847  0.4043
19033TIP3    H278591   6.792   2.822  16.929 -0.1938  0.7623  0.1650
19034TIP3   OH278592   6.204   4.689   0.989 -0.3019  0.2569  0.1836
19034TIP3    H178593   6.206   4.782   0.964 -1.0763  0.1119 -0.4372
19034TIP3    H278594   6.199   4.642   0.907 -1.4902 -0.2733  0.5360
19035TIP3   OH278595   3.397   5.887  13.581 -0.2833  0.1620  0.3794
19035TIP3    H178596   3.382   5.842  13.497  3.1096  0.9034 -0.7760
19035TIP3    H278597   3.406   5.980  13.557  0.2863  0.4521  1.6337
19036TIP3   OH278598   5.938   1.919  11.662  0.2186 -0.1694  0.2182
19036TIP3    H178599   5.962   1.974  11.588 -1.4619  0.3409 -0.0058
19036TIP3    H278600   6.016   1.915  11.717  1.6861 -1.0011 -1.8173
19037TIP3   OH278601   0.960   1.636   1.736 -0.3583  0.9239 -0.0916
19037TIP3    H178602   0.902   1.639   1.660 -0.2227  1.2825 -0.1842
19037TIP3    H278603   1.029   1.698   1.716  0.3140  0.1589 -0.1831
19038TIP3   OH278604   3.406   0.860  14.622  0.0385 -0.2684  0.3116
19038TIP3    H178605   3.351   0.811  14.561 -0.2449 -1.3235  1.3635
19038TIP3    H278606   3.489   0.813  14.623 -0.4778 -1.2484  1.8869
19039TIP3   OH278607   3.178   4.436   0.919 -0.5865  0.2053  0.0261
19039TIP3    H178608   3.188   4.342   0.930 -1.1291 -0.0030 -1.0566
19039TIP3    H278609   3.083   4.451   0.920 -0.6378  0.3807 -2.1252
19040TIP3   OH278610   2.401   2.306   0.995 -0.1061 -0.0072 -0.3761
19040TIP3    H178611   2.416   2.263   0.911 -0.6856 -2.4014  0.6745
19040TIP3    H278612   2.307   2.325   0.996  0.0502  0.8518 -0.5938
19041TIP3   OH278613   5.529   4.702   4.820 -0.1024 -0.2452  0.1355
19041TIP3    H178614   5.578   4.620   4.826 -0.7447 -0.5763  1.3452
19041TIP3    H278615   5.566   4.757   4.889 -0.4030  0.0680  0.0483
19042TIP3   OH278616   4.907   6.421   4.305  0.0571  0.4023 -0.2097
19042TIP3    H178617   4.979   6.478   4.277  1.6280 -1.6846 -0.6928
19042TIP3    H278618   4.905   6.351   4.239  2.7386 -3.8206  3.5723
19043TIP3   OH278619   5.537   5.452   5.916 -0.1888 -0.6017 -0.5786
19043TIP3    H178620   5.613   5.394   5.920  0.7710  0.5986 -0.7609
19043TIP3    H278621   5.564   5.522   5.857 -1.2433  0.1292 -0.2117
19044TIP3   OH278622   2.304   1.167  15.578 -0.0840 -0.0284 -0.1096
19044TIP3    H178623   2.242   1.163  15.505  0.9134  0.4425 -1.0119
19044TIP3    H278624   2.329   1.076  15.593  0.1535 -0.0756 -0.7586
19045TIP3   OH278625   5.790   2.043  16.019 -0.1432  0.2379  0.1989
19045TIP3    H178626   5.785   1.961  16.069  0.0924  0.0378 -0.1016
19045TIP3    H278627   5.844   2.101  16.072 -0.0594  0.0943  0.2695
19046TIP3   OH278628   1.545   2.727  13.564  0.1145  0.0662 -0.5601
19046TIP3    H178629   1.570   2.674  13.489  2.4669  1.1649 -0.6571
19046TIP3    H278630   1.561   2.818  13.537  1.3324  0.4731  1.3081
19047TIP3   OH278631   4.751   0.331  11.238 -0.1841 -0.1186 -0.1125
19047TIP3    H178632   4.700   0.409  11.261 -0.2318 -0.5491  1.3436
19047TIP3    H278633   4.827   0.365  11.191 -0.4931  0.7578  0.0031
19048TIP3   OH278634   6.723   0.470  13.384  0.3322  0.3371 -0.2419
19048TIP3    H178635   6.739   0.443  13.293 -0.9744  0.1800 -0.4526
19048TIP3    H278636   6.775   0.411  13.437  2.2098  1.3001 -0.9141
19049TIP3   OH278637   5.637   6.016   3.414 -0.3823 -0.6789 -0.1315
19049TIP3    H178638   5.624   6.030   3.320 -0.1334 -1.3702 -0.2728
19049TIP3    H278639   5.600   6.094   3.455  1.6877  0.8325 -0.9341
19050TIP3   OH278640   5.578   2.102   5.415 -0.5747  0.1423  0.1445
19050TIP3    H178641   5.655   2.109   5.471 -0.3353 -1.1453  0.0044
19050TIP3    H278642   5.541   2.190   5.414  0.1095  0.4628  1.3251
19051TIP3   OH278643   5.461   5.829  15.028 -0.3050 -0.6380  0.0542
19051TIP3    H178644   5.541   5.815  14.977 -1.2878 -2.4062 -1.1109
19051TIP3    H278645   5.461   5.758  15.093 -0.9063 -0.6392  0.0592
19052TIP3   OH278646   6.240   4.959   0.901 -0.2061 -0.1084 -0.2168
19052TIP3    H178647   6.285   4.996   0.825 -0.2329 -0.8143 -0.5914
19052TIP3    H278648   6.148   4.982   0.887 -0.0456  0.8759  0.2764
19053TIP3   OH278649   5.029   2.279   4.226  0.1966 -0.5549  0.0565
19053TIP3    H178650   4.954   2.321   4.269  0.5746  1.2085 -0.9031
19053TIP3    H278651   5.029   2.190   4.259 -2.3259 -0.6038  0.1021
19054TIP3   OH278652   2.981   1.505   3.754 -0.0566  0.2988  0.5373
19054TIP3    H178653   3.023   1.419   3.750 -1.9384 -0.6269 -0.3731
19054TIP3    H278654   2.960   1.517   3.846  1.9597  0.7071  0.9908
19055TIP3   OH278655   3.674   1.971  15.800  0.1242  0.6955  0.1109
19055TIP3    H178656   3.593   1.920  15.811  1.4288 -1.6642 -0.3867
19055TIP3    H278657   3.719   1.928  15.727  1.1494  2.9234 -0.6523
19056TIP3   OH278658   1.821   4.382  13.758 -0.3263  0.6170  0.0077
19056TIP3    H178659   1.843   4.346  13.672 -1.6302 -1.3141  0.4365
19056TIP3    H278660   1.727   4.366  13.768  0.2882 -2.2042  3.0643
19057TIP3   OH278661   2.773   4.898  16.191 -0.2106 -0.3932 -0.0993
19057TIP3    H178662   2.792   4.816  16.146  0.5157 -0.6446  0.6298
19057TIP3    H278663   2.854   4.948  16.185 -0.3425 -0.1280  0.2959
19058TIP3   OH278664   3.339   1.007  16.704  0.3203 -0.3494 -0.1959
19058TIP3    H178665   3.406   1.036  16.642 -0.3607 -1.3961 -1.4655
19058TIP3    H278666   3.257   1.014  16.655 -0.6906  1.8507  1.6317
19059TIP3   OH278667   5.544   0.669  16.235 -0.4499 -0.3908  0.1334
19059TIP3    H178668   5.623   0.723  16.229  0.9994 -2.5388 -1.6975
19059TIP3    H278669   5.530   0.658  16.329 -0.4477  2.5362  0.5666
19060TIP3   OH278670   2.615   1.639  14.516  0.3079  0.5957 -0.2349
19060TIP3    H178671   2.542   1.653  14.457  0.2163 -0.8244 -0.4879
19060TIP3    H278672   2.684   1.602  14.461  0.9711  1.2136  0.1509
19061TIP3   OH278673   0.534   6.528   1.635  0.3221  0.0855 -0.2762
19061TIP3    H178674   0.586   6.466   1.686 -0.2810 -0.5040 -0.3615
19061TIP3    H278675   0.519   6.601   1.694  0.6220 -0.0644 -0.0090
19062TIP3   OH278676   3.304   4.344  10.983 -0.0071  0.1446  0.5463
19062TIP3    H178677   3.221   4.305  10.958 -0.4269  1.5321 -0.3245
19062TIP3    H278678   3.351   4.357  10.900  0.7722  0.0327  0.9570
19063TIP3   OH278679   5.188   1.467   5.360 -0.3959  0.1954 -0.4221
19063TIP3    H178680   5.268   1.454   5.309 -1.4419  0.3229 -2.1565
19063TIP3    H278681   5.211   1.538   5.420  1.1504 -0.5677 -0.0395
19064TIP3   OH278682   3.091   6.597  16.798 -0.2965 -0.1423  0.3287
19064TIP3    H178683   3.037   6.537  16.849 -2.0832  1.1823  0.0781
19064TIP3    H278684   3.039   6.616  16.720 -0.7560  3.1910  1.2596
19065TIP3   OH278685   0.934   3.270  14.609 -0.1988  0.7354  0.4650
19065TIP3    H178686   0.886   3.246  14.687 -1.9733 -0.9267 -1.0460
19065TIP3    H278687   0.902   3.357  14.586 -1.8384  0.0453  0.0237
19066TIP3   OH278688   1.281   1.403  15.032  0.4496  0.2545 -0.2352
19066TIP3    H178689   1.363   1.389  15.079  0.3172 -2.3244 -0.6406
19066TIP3    H278690   1.214   1.409  15.100  0.4768 -1.7808  0.0178
19067TIP3   OH278691   3.204   1.253   0.737 -0.5190 -0.5843  0.4081
19067TIP3    H178692   3.138   1.193   0.771 -1.2661  0.4342  0.7894
19067TIP3    H278693   3.158   1.336   0.725  1.1660  0.9227  3.0753
19068TIP3   OH278694   0.672   4.869   2.552  0.2575 -0.2851  0.2321
19068TIP3    H178695   0.624   4.832   2.627  2.1966 -2.5994  0.4552
19068TIP3    H278696   0.634   4.825   2.476  0.3165 -0.1988  0.1537
19069TIP3   OH278697   4.855   6.700  16.014  0.2162  0.1740 -0.1504
19069TIP3    H178698   4.762   6.709  16.031  0.1546 -0.7358  0.0646
19069TIP3    H278699   4.895   6.688  16.100  0.5119  0.3784 -0.2537
19070TIP3   OH278700   5.811   2.800   4.523  0.0711  0.4328 -0.0957
19070TIP3    H178701   5.896   2.841   4.540  1.0351 -1.9943  1.5040
19070TIP3    H278702   5.831   2.708   4.508 -2.1976  0.0088 -0.9741
19071TIP3   OH278703   6.287   6.768   1.740  0.2393 -0.8315  0.4693
19071TIP3    H178704   6.288   6.803   1.651  2.0560  1.1425  1.1870
19071TIP3    H278705   6.201   6.726   1.748 -1.6300  2.3461 -0.9615
19072TIP3   OH278706   4.818   1.752  15.008 -0.3376  0.1589  0.5827
19072TIP3    H178707   4.826   1.842  15.040 -1.8278  0.6636 -0.3331
19072TIP3    H278708   4.815   1.761  14.913  0.8988 -1.0188  0.4017
19073TIP3   OH278709   0.931   5.535  12.235 -0.0468 -0.0674  0.2450
19073TIP3    H178710   1.002   5.525  12.298  0.8187 -0.2033 -0.7220
19073TIP3    H278711   0.947   5.619  12.192  0.0038 -0.4532 -0.5242
19074TIP3   OH278712   3.259   6.184  15.848  0.0810  0.6387 -0.0311
19074TIP3    H178713   3.179   6.198  15.899 -0.5588 -1.9280 -0.2312
19074TIP3    H278714   3.232   6.204  15.758 -0.2873 -0.0234 -0.0719
19075TIP3   OH278715   4.675   1.923  14.356 -0.3332  0.1494 -0.5064
19075TIP3    H178716   4.605   1.873  14.314 -1.6148  0.6976  0.8455
19075TIP3    H278717   4.641   2.013  14.360  0.0604  0.2645  0.9091
19076TIP3   OH278718   6.047   0.897   5.790  0.2674  0.4143 -0.0060
19076TIP3    H178719   6.032   0.826   5.727  1.8389  0.5050 -0.5409
19076TIP3    H278720   6.041   0.977   5.737  0.0908  0.5877  0.2739
19077TIP3   OH278721   3.327   1.914  14.996  0.3454  0.0923  0.2443
19077TIP3    H178722   3.359   1.889  15.083  3.0205  2.7287  0.1611
19077TIP3    H278723   3.269   1.842  14.971 -0.0918 -1.0612  3.9195
19078TIP3   OH278724   6.006   3.053   0.396 -0.2105  0.0373  0.6280
19078TIP3    H178725   6.011   3.069   0.302  0.3967  0.8723  0.7871
19078TIP3    H278726   6.051   2.970   0.409  1.7769  1.0172  0.4274
19079TIP3   OH278727   6.427   6.200  11.687  0.3104  0.2923 -0.5633
19079TIP3    H178728   6.340   6.222  11.654  0.0553 -1.9350 -1.5557
19079TIP3    H278729   6.486   6.222  11.614  0.4810  0.8284 -0.2728
19080TIP3   OH278730   5.620   3.324   6.199  0.3259 -0.4783  0.5611
19080TIP3    H178731   5.571   3.270   6.137  2.3620 -2.6539  0.7104
19080TIP3    H278732   5.610   3.279   6.283  0.8486  0.2168  1.0036
19081TIP3   OH278733   5.788   4.643  12.391  0.0598  0.6760 -0.3998
19081TIP3    H178734   5.850   4.666  12.322  1.8605  1.3139  1.3248
19081TIP3    H278735   5.729   4.579  12.351  1.6648  0.2488 -2.2041
19082TIP3   OH278736   6.331   2.169   0.375 -0.5130 -0.4908  0.1392
19082TIP3    H178737   6.260   2.228   0.399  1.1088  1.3557  0.6880
19082TIP3    H278738   6.409   2.207   0.416  1.2728 -0.8648 -2.5889
19083TIP3   OH278739   1.630   6.088  12.011  0.3208 -0.6518 -0.1790
19083TIP3    H178740   1.697   6.096  12.078 -1.0098 -0.8241  1.2190
19083TIP3    H278741   1.599   6.178  11.997 -1.2258 -0.8997  1.4046
19084TIP3   OH278742   1.100   2.825  13.205 -0.7900 -0.5180 -0.1194
19084TIP3    H178743   1.181   2.875  13.208 -0.5750 -0.8569 -0.1971
19084TIP3    H278744   1.051   2.861  13.131 -0.7228 -0.2954 -0.0544
19085TIP3   OH278745   1.023   2.702  13.448 -0.1455  0.4633 -0.5726
19085TIP3    H178746   1.118   2.703  13.464 -0.1640  0.6421 -0.4749
19085TIP3    H278747   1.013   2.748  13.365 -0.3817  2.8260  0.6760
19086TIP3   OH278748   5.992   6.242  13.029  0.2570  0.4665 -0.2739
19086TIP3    H178749   6.020   6.328  12.997  0.9441 -0.2369 -1.6361
19086TIP3    H278750   5.935   6.262  13.104 -0.0077  2.1170 -0.8661
19087TIP3   OH278751   0.108   0.083   0.168 -0.2430 -0.2472  0.1657
19087TIP3    H178752   0.170   0.155   0.156 -0.6010  0.2023  0.9388
19087TIP3    H278753   0.045   0.093   0.096 -1.0410  1.0090  1.0004
19088TIP3   OH278754   5.588   2.823   4.284 -0.0054 -0.3481  0.4997
19088TIP3    H178755   5.514   2.878   4.309  1.2187  1.2309  0.8795
19088TIP3    H278756   5.585   2.749   4.345 -0.9127 -0.0079  0.8848
19089TIP3   OH278757   0.214   6.705  11.677  0.3046 -0.3455  0.2127
19089TIP3    H178758   0.220   6.747  11.591  1.8539 -0.0493  0.4361
19089TIP3    H278759   0.282   6.638  11.675  0.4176 -0.2703  1.2431
19090TIP3   OH278760   4.812   2.960  16.575  0.2437  0.0369  0.5053
19090TIP3    H178761   4.865   2.896  16.527  1.3159  0.3194  1.2747
19090TIP3    H278762   4.791   2.915  16.657  0.3049  0.3680  0.7012
19091TIP3   OH278763   0.661   1.755  14.162 -0.0557 -0.0682  0.0164
19091TIP3    H178764   0.603   1.715  14.096  0.1890  1.4401 -1.1784
19091TIP3    H278765   0.664   1.848  14.137  0.9363  0.3323  1.5299
19092TIP3   OH278766   0.726   6.470  15.908  0.1301 -0.0702 -0.4318
19092TIP3    H178767   0.817   6.440  15.902  0.4289  0.9064 -0.9390
19092TIP3    H278768   0.694   6.469  15.818 -0.6045 -1.0882 -0.1793
19093TIP3   OH278769   6.416   0.334   0.736  0.2316  0.3820 -0.5623
19093TIP3    H178770   6.338   0.388   0.726 -0.2660 -0.4889 -1.5312
19093TIP3    H278771   6.386   0.245   0.721  1.3391 -0.0069 -0.5708
19094TIP3   OH278772   2.369   0.005   4.104  0.4225 -0.1785 -0.4188
19094TIP3    H178773   2.301   0.041   4.160 -0.0721 -0.9495 -0.5176
19094TIP3    H278774   2.429  -0.039   4.164 -1.4305 -3.2268 -0.5986
19095TIP3   OH278775   0.284   3.684  17.081  0.8314 -0.0438  0.1286
19095TIP3    H178776   0.355   3.711  17.139 -0.2453 -0.6403  1.8026
19095TIP3    H278777   0.208   3.674  17.139 -0.2975 -0.6752 -1.3920
19096TIP3   OH278778   6.774   3.313   3.807 -0.0194 -0.0527 -0.1226
19096TIP3    H178779   6.869   3.330   3.808 -0.0222 -0.0194 -0.3596
19096TIP3    H278780   6.766   3.231   3.759  0.1160 -1.4813  2.1320
19097TIP3   OH278781   1.963   4.267  10.758 -0.6551 -0.9114 -0.0912
19097TIP3    H178782   1.908   4.340  10.729  2.9763  0.7827 -3.7794
19097TIP3    H278783   1.956   4.202  10.687  1.4340 -0.9492 -0.3145
19098TIP3   OH278784   6.363   5.946   6.090  0.8992 -0.0568 -0.0367
19098TIP3    H178785   6.279   5.915   6.123  1.4090 -2.7675 -1.0841
19098TIP3    H278786   6.346   6.036   6.062 -1.4954 -0.3523  0.3029
19099TIP3   OH278787   6.398   5.099   0.137 -0.1281  0.0378 -0.1295
19099TIP3    H178788   6.380   5.088   0.231 -0.6561  1.6848  0.0032
19099TIP3    H278789   6.319   5.068   0.094  0.4917 -1.6559 -0.1223
19100TIP3   OH278790   3.144   2.088   5.375 -0.7174 -0.1668  0.1772
19100TIP3    H178791   3.211   2.034   5.333  1.0397  1.2592  1.0047
19100TIP3    H278792   3.114   2.147   5.306 -1.3888 -1.0076 -0.2753
19101TIP3   OH278793   5.970   3.777   4.312  0.3590  0.0298 -0.1119
19101TIP3    H178794   5.930   3.693   4.290  0.8960 -0.2886  0.1090
19101TIP3    H278795   6.064   3.761   4.308  0.4678  0.4816  0.4612
19102TIP3   OH278796   5.360   5.723   2.026  0.3816  0.5605 -0.1638
19102TIP3    H178797   5.270   5.750   2.007 -0.0467 -1.2858 -0.9813
19102TIP3    H278798   5.413   5.772   1.963 -0.3614 -0.4112 -1.5919
19103TIP3   OH278799   6.678   2.633   1.264 -0.0698  0.5574  0.2076
19103TIP3    H178800   6.676   2.549   1.308 -1.6848  0.6602  0.3889
19103TIP3    H278801   6.767   2.640   1.229 -0.0135 -1.4021 -0.1635
19104TIP3   OH278802   5.648   3.130   2.128  0.1772  0.2229 -0.1594
19104TIP3    H178803   5.587   3.103   2.196 -0.0363 -1.2226 -0.8877
19104TIP3    H278804   5.706   3.193   2.171 -0.1998 -0.3580  1.2493
19105TIP3   OH278805   6.132   2.789   0.121  0.4118 -0.6203 -0.5661
19105TIP3    H178806   6.131   2.693   0.119 -0.6003 -0.6555  0.4687
19105TIP3    H278807   6.042   2.813   0.097  0.1809  0.0056  0.8536
19106TIP3   OH278808   3.864   1.575   1.582  0.1667  0.0388  0.3766
19106TIP3    H178809   3.794   1.609   1.638  0.3485  1.0712 -0.0031
19106TIP3    H278810   3.834   1.487   1.557 -1.6825  0.9835 -0.9334
19107TIP3   OH278811   4.765   3.202   4.531 -0.3135  0.1070  0.0192
19107TIP3    H178812   4.732   3.222   4.444  1.6196  0.1033 -0.7717
19107TIP3    H278813   4.805   3.284   4.561  0.9895 -0.4666 -0.0648
19108TIP3   OH278814   5.093   5.068   1.479 -0.5436  0.4113 -0.0352
19108TIP3    H178815   5.066   5.159   1.492  1.3168  0.7877  1.8304
19108TIP3    H278816   5.071   5.025   1.562 -0.2984 -0.5470 -0.4564
19109TIP3   OH278817   1.183   1.320   3.369 -0.1575 -0.2619 -0.0845
19109TIP3    H178818   1.278   1.312   3.365  0.0099  1.3817 -0.1449
19109TIP3    H278819   1.157   1.263   3.441  1.3184  2.1623  2.5489
19110TIP3   OH278820   4.101   0.005   1.840  0.0152 -0.3978 -0.2141
19110TIP3    H178821   4.048  -0.013   1.917 -1.3610  1.3398 -0.6938
19110TIP3    H278822   4.047   0.062   1.786  1.7172  0.0390 -1.5544
19111TIP3   OH278823   4.347   2.765  13.942 -0.7173  0.3048 -0.6197
19111TIP3    H178824   4.406   2.761  13.867  0.0304  0.7861 -0.0662
19111TIP3    H278825   4.270   2.812  13.910 -1.3781 -1.4082 -1.7089
19112TIP3   OH278826   5.846   1.541  15.687 -0.0833 -0.4211  0.7346
19112TIP3    H178827   5.880   1.461  15.647 -0.4106  0.1119 -0.6491
19112TIP3    H278828   5.865   1.530  15.780  0.5494 -1.7714  0.4794
19113TIP3   OH278829   1.619   0.981   1.885  0.2926  0.1621  0.1647
19113TIP3    H178830   1.639   0.904   1.831  0.7453  0.6416 -0.3666
19113TIP3    H278831   1.608   1.052   1.822 -0.0944  0.5399  0.6565
19114TIP3   OH278832   1.664   0.939   2.776 -0.2824 -0.2588  0.1652
19114TIP3    H178833   1.724   0.919   2.848  0.3990 -2.3821 -0.8973
19114TIP3    H278834   1.659   0.858   2.726 -2.1830  0.5959 -1.1634
19115TIP3   OH278835   1.863   3.802   4.984 -0.6802 -0.0615  0.9303
19115TIP3    H178836   1.854   3.888   4.943 -0.8319  1.0414  3.1400
19115TIP3    H278837   1.903   3.820   5.069  1.1688 -2.4073  0.6749
19116TIP3   OH278838   5.742   0.084  11.759 -0.3664  0.0053  0.5868
19116TIP3    H178839   5.682   0.017  11.727  0.1868 -0.4217  0.4307
19116TIP3    H278840   5.822   0.070  11.709  0.1217  0.0788  1.3250
19117TIP3   OH278841   5.742   4.523  16.432  0.0172 -0.0970  0.1065
19117TIP3    H178842   5.776   4.434  16.439  1.3504  0.4858  1.5320
19117TIP3    H278843   5.817   4.579  16.451 -0.8986  1.3328 -0.3503
19118TIP3   OH278844   4.552   4.611  16.654  0.1998  0.7731  0.4907
19118TIP3    H178845   4.627   4.628  16.710  1.2997 -2.1562  0.0642
19118TIP3    H278846   4.522   4.698  16.627  3.0980  2.0640  1.0921
19119TIP3   OH278847   2.876   6.399   0.078 -0.4841  0.2661  0.0864
19119TIP3    H178848   2.819   6.385   0.153 -0.5446 -0.1270 -0.0323
19119TIP3    H278849   2.919   6.482   0.096 -2.5032  1.5780 -0.6923
19120TIP3   OH278850   5.201   0.328   0.006  0.4759  0.5605  0.0654
19120TIP3    H178851   5.142   0.263  -0.031 -1.7981  1.0955  2.4174
19120TIP3    H278852   5.265   0.345  -0.063 -0.6767 -1.8403 -1.7500
19121TIP3   OH278853   3.091   3.145   3.193 -0.4810  0.6650  0.1926
19121TIP3    H178854   3.136   3.200   3.258  0.0474 -0.3093  0.6767
19121TIP3    H278855   3.054   3.207   3.130 -2.0248  1.7177  2.0471
19122TIP3   OH278856   4.285   2.858  15.355  0.0139 -0.0409  0.5978
19122TIP3    H178857   4.339   2.847  15.278  0.6796 -1.6976  1.2691
19122TIP3    H278858   4.337   2.823  15.427 -1.4041 -0.4367  1.4771
19123TIP3   OH278859   5.898   1.134   0.796 -0.2644  0.4873  0.0555
19123TIP3    H178860   5.883   1.070   0.866  0.4699 -1.2034 -1.2335
19123TIP3    H278861   5.844   1.102   0.723  1.4143  0.3126 -1.1739
19124TIP3   OH278862   4.772   4.049  13.046 -0.3323  0.5639  1.0222
19124TIP3    H178863   4.794   4.142  13.056 -1.1132  0.6752  1.8224
19124TIP3    H278864   4.776   4.014  13.135 -2.2701  0.3550  1.0539
19125TIP3   OH278865   3.410   5.757   4.648  0.8113 -0.1402  0.0129
19125TIP3    H178866   3.487   5.712   4.612  1.1554  0.7218 -0.3613
19125TIP3    H278867   3.388   5.708   4.727  1.4018 -0.7388 -0.1872
19126TIP3   OH278868   4.127   5.029  16.286 -0.2370 -0.3567  0.0674
19126TIP3    H178869   4.113   5.034  16.192 -0.2098 -0.0882  0.0767
19126TIP3    H278870   4.222   5.023  16.295 -0.0192  2.1579  0.1672
19127TIP3   OH278871   4.397   1.746   1.738  0.0676 -0.2446 -0.3376
19127TIP3    H178872   4.336   1.811   1.703  2.0287  1.9969  0.1177
19127TIP3    H278873   4.368   1.731   1.828 -0.1312  0.4198 -0.2817
19128TIP3   OH278874   0.252   5.360  15.419 -0.0712 -0.0915 -0.1132
19128TIP3    H178875   0.168   5.399  15.444 -0.1283 -1.4554  2.0946
19128TIP3    H278876   0.306   5.434  15.393 -1.2036  1.0917  0.7558
19129TIP3   OH278877   1.140   2.361  13.707  0.2346  0.5554  0.0327
19129TIP3    H178878   1.230   2.380  13.681  0.0368  0.7125 -0.5511
19129TIP3    H278879   1.142   2.270  13.738  0.3192  0.0767 -1.3205
19130TIP3   OH278880   1.086   0.062  10.462 -0.6021 -0.3340 -0.2494
19130TIP3    H178881   1.035   0.133  10.424 -0.2270 -0.1983 -0.4977
19130TIP3    H278882   1.172   0.070  10.422 -0.2207 -0.2242  0.5774
19131TIP3   OH278883   4.898   6.538  13.505 -0.0929 -0.2259  0.3359
19131TIP3    H178884   4.843   6.551  13.583 -0.4440 -0.0964  0.0688
19131TIP3    H278885   4.877   6.612  13.449 -0.0344 -0.4587  0.0039
19132TIP3   OH278886   5.325   0.408   1.329 -0.5560 -0.2600 -0.2947
19132TIP3    H178887   5.294   0.440   1.244  0.6083 -0.3459 -0.7737
19132TIP3    H278888   5.335   0.487   1.383 -0.9730 -0.1706 -0.3485
19133TIP3   OH278889   3.023   6.469  10.467  0.3977 -0.0897 -0.0174
19133TIP3    H178890   2.933   6.482  10.495 -0.3477  0.6513 -2.5000
19133TIP3    H278891   3.076   6.511  10.534 -1.1757  0.6170  0.8131
19134TIP3   OH278892   2.742   3.610   5.692 -0.1236  0.0696  0.4008
19134TIP3    H178893   2.657   3.594   5.650 -0.3517 -0.5172  1.0741
19134TIP3    H278894   2.802   3.549   5.648  0.3321  1.5353 -1.1622
19135TIP3   OH278895   4.061   4.396   0.402  0.3480  0.0055  0.4603
19135TIP3    H178896   3.980   4.390   0.351  1.3933 -0.3447 -1.2458
19135TIP3    H278897   4.120   4.447   0.347  1.4893 -0.2494  1.4070
19136TIP3   OH278898   6.578   6.136  14.742 -0.2708  0.1889 -0.0845
19136TIP3    H178899   6.582   6.232  14.739  0.9610  0.2152  1.3313
19136TIP3    H278900   6.517   6.117  14.814 -0.2639 -0.0836 -0.1503
19137TIP3   OH278901   3.573   2.469  15.814 -0.0565 -0.5150  0.3250
19137TIP3    H178902   3.575   2.511  15.900 -1.2510  0.5145 -0.1221
19137TIP3    H278903   3.487   2.427  15.810  0.4104 -1.4758  0.0359
19138TIP3   OH278904   1.145   1.626   1.039 -0.3729  0.4806  0.2999
19138TIP3    H178905   1.121   1.575   1.116 -2.1657 -0.3269 -0.7366
19138TIP3    H278906   1.162   1.714   1.072  0.6379 -0.2533  1.8316
19139TIP3   OH278907   0.437   4.219  12.615  0.3362  0.6562 -0.0336
19139TIP3    H178908   0.412   4.294  12.560  0.7287  0.4802 -0.4612
19139TIP3    H278909   0.509   4.252  12.669 -0.3177  0.9482  0.6729
19140TIP3   OH278910   2.355   1.312  11.232 -0.1656 -0.5184  0.0311
19140TIP3    H178911   2.432   1.368  11.222 -0.9723  0.6478  0.1385
19140TIP3    H278912   2.391   1.224  11.244  1.0984 -0.2740 -1.6419
19141TIP3   OH278913   3.704   6.621  10.646 -0.6504  0.1366 -0.0172
19141TIP3    H178914   3.643   6.648  10.577  0.3089  0.2855 -0.8234
19141TIP3    H278915   3.658   6.550  10.691 -0.7002 -0.9999 -1.7688
19142TIP3   OH278916   3.672   4.935  13.064  0.3723 -0.1646 -0.2925
19142TIP3    H178917   3.677   5.031  13.062  0.3926 -0.1630 -0.1929
19142TIP3    H278918   3.607   4.916  13.132  0.2216 -0.2178 -0.4516
19143TIP3   OH278919   4.118   6.551  14.588  0.2585  0.0327 -0.3468
19143TIP3    H178920   4.147   6.476  14.536  0.2958 -0.4710  0.3889
19143TIP3    H278921   4.048   6.517  14.644  0.3980  0.4994  0.1259
19144TIP3   OH278922   2.624   6.592   4.511  0.1642 -0.0585  0.2842
19144TIP3    H178923   2.538   6.570   4.547 -0.0164 -1.0943 -0.7295
19144TIP3    H278924   2.683   6.530   4.552  0.4096  0.4771  0.7694
19145TIP3   OH278925   4.746   4.486  13.521 -0.2697 -0.2877 -0.6194
19145TIP3    H178926   4.830   4.462  13.482  0.4515 -0.7872  1.1307
19145TIP3    H278927   4.723   4.411  13.575 -1.0936  0.4647  0.0939
19146TIP3   OH278928   0.381   0.519  17.017 -0.0724 -0.4983  0.3564
19146TIP3    H178929   0.386   0.484  17.106 -2.7063 -0.2452  0.6729
19146TIP3    H278930   0.429   0.455  16.964 -0.2096 -1.7270  1.6640
19147TIP3   OH278931   3.796   0.688  14.073  0.5203  0.4346 -0.2811
19147TIP3    H178932   3.752   0.682  14.158 -0.0802 -0.1860 -0.6253
19147TIP3    H278933   3.784   0.601  14.034 -0.9543  1.2844 -1.8574
19148TIP3   OH278934   4.470   5.117   6.106  0.0526  0.1357  0.0829
19148TIP3    H178935   4.403   5.132   6.040 -0.0585 -0.8120 -0.0350
19148TIP3    H278936   4.424   5.074   6.178  0.1976  1.0458  0.7409
19149TIP3   OH278937   3.587   5.124  13.413 -0.1561  0.0452 -0.1599
19149TIP3    H178938   3.665   5.179  13.418  0.7550 -0.9612 -2.2302
19149TIP3    H278939   3.620   5.037  13.392 -1.6178 -1.1941  2.1807
19150TIP3   OH278940   2.313   6.135  12.641 -0.3719  0.1092 -0.3044
19150TIP3    H178941   2.295   6.045  12.614  0.5646 -0.3374  0.5000
19150TIP3    H278942   2.358   6.127  12.725 -2.4929  1.4210  1.0662
19151TIP3   OH278943   0.183   2.474  15.846 -0.2250 -0.2834  0.0267
19151TIP3    H178944   0.247   2.482  15.917 -1.4705  0.3920  1.1335
19151TIP3    H278945   0.112   2.422  15.884 -0.2592 -1.1935 -1.2349
19152TIP3   OH278946   2.298   6.574  16.089 -0.0971 -0.1958  0.0864
19152TIP3    H178947   2.308   6.484  16.059 -0.3949 -0.6658  1.3607
19152TIP3    H278948   2.367   6.622  16.044  0.3914 -1.1537 -0.2118
19153TIP3   OH278949   2.526   1.367   3.450 -0.5697  0.4518  0.2180
19153TIP3    H178950   2.606   1.378   3.399 -0.4577  0.2262  0.3442
19153TIP3    H278951   2.495   1.278   3.428 -0.8928  0.6121  0.0143
19154TIP3   OH278952   4.765   4.421   3.835 -0.3556  0.2476  0.4558
19154TIP3    H178953   4.685   4.372   3.819  0.9130 -2.0539  0.7959
19154TIP3    H278954   4.763   4.442   3.929 -0.3498 -0.1884  0.5521
19155TIP3   OH278955   0.108   0.570  16.760 -0.1775 -0.4305 -0.2552
19155TIP3    H178956   0.137   0.656  16.788  0.0736  0.3124 -2.5761
19155TIP3    H278957   0.160   0.509  16.811 -1.4397  0.6746  2.5876
19156TIP3   OH278958   2.200   3.593  17.112  0.6439  0.7404  0.3801
19156TIP3    H178959   2.288   3.605  17.076  0.8600 -0.3484  0.5255
19156TIP3    H278960   2.145   3.653  17.061  0.5883 -1.9950 -3.1499
19157TIP3   OH278961   3.114   4.084   1.809  0.5739  0.8681  0.0029
19157TIP3    H178962   3.207   4.060   1.801  0.1449 -1.0236  0.2066
19157TIP3    H278963   3.075   4.057   1.726 -0.3824 -1.5052  1.1389
19158TIP3   OH278964   3.879   0.829   2.242 -0.5249  0.3418 -0.1211
19158TIP3    H178965   3.922   0.908   2.275 -0.3348 -0.1695  0.9088
19158TIP3    H278966   3.811   0.810   2.306 -0.3989 -0.4727 -0.2152
19159TIP3   OH278967   3.692   4.808   0.507  0.0484 -0.2666 -0.0477
19159TIP3    H178968   3.688   4.718   0.473  0.2030  0.5004 -2.2510
19159TIP3    H278969   3.786   4.825   0.519 -0.0424 -1.1772  2.8497
19160TIP3   OH278970   3.453   1.495   5.376 -0.6830  0.0084  0.1653
19160TIP3    H178971   3.419   1.417   5.333  0.2610 -0.4805  0.2871
19160TIP3    H278972   3.375   1.547   5.396 -1.4819 -1.5897  1.4600
19161TIP3   OH278973   5.312   5.614   6.527 -0.3557  0.0738 -0.4970
19161TIP3    H178974   5.303   5.567   6.610  2.0343 -1.3378 -0.9329
19161TIP3    H278975   5.224   5.613   6.489 -1.3354  0.0829  1.6324
19162TIP3   OH278976   5.664   5.186   2.301  0.4653 -0.0240 -0.1843
19162TIP3    H178977   5.614   5.185   2.220  1.9561  2.2155 -1.2291
19162TIP3    H278978   5.750   5.151   2.277  0.7824  0.2579  0.4991
19163TIP3   OH278979   3.416   2.837   0.938  0.3585  0.4673 -0.8576
19163TIP3    H178980   3.362   2.900   0.890  1.2638  1.3596 -0.7365
19163TIP3    H278981   3.355   2.790   0.994 -0.0117  3.1446  1.1343
19164TIP3   OH278982   2.449   1.860  10.600  0.2346  0.3747  0.6391
19164TIP3    H178983   2.387   1.788  10.616  2.5514 -1.8344  0.3397
19164TIP3    H278984   2.410   1.935  10.645 -2.6479 -0.8501  0.4273
19165TIP3   OH278985   2.663   5.894   3.889  0.0486  0.3823  0.3045
19165TIP3    H178986   2.703   5.890   3.976 -0.0102 -1.0181  0.2876
19165TIP3    H278987   2.575   5.859   3.902 -0.0959  0.5284 -0.2523
19166TIP3   OH278988   2.650   2.716  13.167 -0.4977 -0.0560  0.2579
19166TIP3    H178989   2.744   2.718  13.187 -0.6215  0.7304  0.8133
19166TIP3    H278990   2.632   2.625  13.143  0.8266  0.1934 -2.0060
19167TIP3   OH278991   1.977   4.305  17.245 -0.3143  0.3921 -0.5708
19167TIP3    H178992   2.058   4.356  17.248  2.1144 -3.0924 -0.3740
19167TIP3    H278993   1.932   4.326  17.327  0.8986  1.6574 -0.1978
19168TIP3   OH278994   1.395   5.548   3.719 -0.4716 -0.3068  0.4462
19168TIP3    H178995   1.458   5.547   3.791  0.3725  0.4742 -0.2605
19168TIP3    H278996   1.379   5.641   3.701  0.0320 -0.4642 -0.9592
19169TIP3   OH278997   5.019   4.814   2.026 -0.2457 -0.0817  0.0008
19169TIP3    H178998   5.018   4.745   1.960 -0.5808  1.0798 -1.2622
19169TIP3    H278999   5.112   4.834   2.040 -0.1610 -0.5843  0.1624
19170TIP3   OH279000   2.078   3.818   1.922 -0.0241  0.1064  0.3569
19170TIP3    H179001   2.040   3.771   1.995 -0.1975  0.3048  0.3948
19170TIP3    H279002   2.017   3.805   1.849 -0.1202  0.3483  0.3932
19171TIP3   OH279003   2.875   4.449   2.341  0.2344  0.5739 -0.6754
19171TIP3    H179004   2.839   4.373   2.386  0.7914  1.5835  1.6190
19171TIP3    H279005   2.805   4.477   2.282 -0.9399 -0.2444  0.2618
19172TIP3   OH279006   2.028   4.323  15.045  0.1139  0.3247 -0.1786
19172TIP3    H179007   1.965   4.382  15.005  0.1066  0.8066  0.5274
19172TIP3    H279008   2.017   4.336  15.139 -0.8057 -1.7544  0.0677
19173TIP3   OH279009   4.878   4.981  15.608 -0.1147 -0.2483 -0.3171
19173TIP3    H179010   4.870   4.894  15.646 -2.1838 -0.0679 -0.2735
19173TIP3    H279011   4.973   4.993  15.596  0.5211 -0.9716  3.1385
19174TIP3   OH279012   2.676   6.422   5.929 -0.1032 -0.0780  0.1407
19174TIP3    H179013   2.766   6.412   5.898  0.2996  0.6145  0.9981
19174TIP3    H279014   2.686   6.447   6.021 -1.1961 -0.5576  0.4045
19175TIP3   OH279015   3.370   1.691  13.667 -0.2937 -0.0571 -0.3186
19175TIP3    H179016   3.289   1.690  13.718  0.0583 -1.7065  0.2823
19175TIP3    H279017   3.351   1.641  13.588 -0.3810  1.1637 -1.0981
19176TIP3   OH279018   2.932   2.604  11.311 -0.2974  0.6942 -0.4200
19176TIP3    H179019   3.010   2.553  11.334 -0.9974 -0.2564 -0.0902
19176TIP3    H279020   2.942   2.686  11.359  0.6416  0.7161 -0.6204
19177TIP3   OH279021   2.762   3.128  14.098  0.2234 -0.0452 -0.5331
19177TIP3    H179022   2.683   3.086  14.132  1.3490 -2.1352 -0.3216
19177TIP3    H279023   2.813   3.149  14.177 -0.7493  2.8100 -0.5575
19178TIP3   OH279024   2.154   0.056   1.916 -0.3477  0.2772  0.7080
19178TIP3    H179025   2.224   0.018   1.968  0.2779  1.5897  0.8819
19178TIP3    H279026   2.179   0.039   1.825  0.4415  1.0921  0.7554
19179TIP3   OH279027   0.750   2.956   1.868  0.1102  0.1104 -0.1402
19179TIP3    H179028   0.750   2.873   1.916  0.8637  1.2309  1.9432
19179TIP3    H279029   0.657   2.979   1.860 -0.1165 -1.0029 -0.9270
19180TIP3   OH279030   3.437   2.305   6.290 -0.2249  0.3010 -0.0392
19180TIP3    H179031   3.505   2.320   6.225  0.1175 -1.9188 -0.2743
19180TIP3    H279032   3.367   2.365   6.266  0.5514  0.6784 -1.4672
19181TIP3   OH279033   6.125   1.021  12.881  0.0577  0.2365 -0.0685
19181TIP3    H179034   6.088   0.960  12.817 -0.0723 -1.2529  1.3562
19181TIP3    H279035   6.217   0.995  12.889  0.6194  1.7783 -1.1593
19182TIP3   OH279036   6.032   6.098   5.608  0.5597 -0.2363 -0.6884
19182TIP3    H179037   6.125   6.106   5.625  0.3572  1.8068 -0.2779
19182TIP3    H279038   6.003   6.187   5.588 -1.2597 -0.8599 -1.0702
19183TIP3   OH279039   5.049   4.080  12.137 -1.1354 -0.2006  0.4011
19183TIP3    H179040   4.966   4.046  12.171 -0.6021 -1.3991  0.5589
19183TIP3    H279041   5.116   4.038  12.191 -0.3796 -0.0074 -0.3714
19184TIP3   OH279042   4.342   5.419   3.438 -0.7317  0.0463 -0.1829
19184TIP3    H179043   4.293   5.458   3.510  0.3014  0.3511  0.3763
19184TIP3    H279044   4.275   5.382   3.381 -1.6413  0.9702  0.2499
19185TIP3   OH279045   5.986   2.136   6.200  0.4129 -0.4347  0.5459
19185TIP3    H179046   5.924   2.197   6.239  0.0788 -0.8618  0.6935
19185TIP3    H279047   5.950   2.050   6.220  0.2408 -0.6687 -0.6965
19186TIP3   OH279048   2.205   0.172  12.754 -0.2963  0.2444 -0.3665
19186TIP3    H179049   2.252   0.105  12.804  1.4016  0.4864 -1.5342
19186TIP3    H279050   2.153   0.122  12.691  0.1854 -0.0111 -0.5699
19187TIP3   OH279051   3.490   6.409  15.628  0.0611  0.2130 -0.3263
19187TIP3    H179052   3.394   6.410  15.620  0.1509  0.7109 -1.3515
19187TIP3    H279053   3.506   6.351  15.703 -1.1258  1.8105  1.2396
19188TIP3   OH279054   0.609   3.885   5.080 -0.2927 -0.0996 -0.2567
19188TIP3    H179055   0.562   3.816   5.127  0.0962 -0.5666 -0.5399
19188TIP3    H279056   0.690   3.899   5.130  0.2118 -0.7300 -0.8672
19189TIP3   OH279057   2.362   0.614   1.441 -0.1722  0.2045  0.0662
19189TIP3    H179058   2.410   0.557   1.502 -1.2940 -0.1926  0.6008
19189TIP3    H279059   2.308   0.554   1.390  0.3125  0.5973 -0.9270
19190TIP3   OH279060   3.524   6.169  12.207  0.5169 -0.1020 -0.3900
19190TIP3    H179061   3.442   6.210  12.231  0.8205  0.6317 -0.5794
19190TIP3    H279062   3.563   6.140  12.290 -0.2922 -1.1750 -0.3649
19191TIP3   OH279063   6.206   6.508  13.963 -0.1013 -0.0419  0.0057
19191TIP3    H179064   6.183   6.425  13.921  0.1845 -0.8586  1.4115
19191TIP3    H279065   6.293   6.493  14.000  0.4009  1.2373 -0.5979
19192TIP3   OH279066   6.658   1.208   2.394 -0.0928 -0.1577 -0.0904
19192TIP3    H179067   6.602   1.135   2.367 -0.5684  0.1150  0.1536
19192TIP3    H279068   6.714   1.171   2.462  0.8930 -0.7682 -1.1855
19193TIP3   OH279069   4.253   2.198  15.868  0.2622  0.3053 -0.1258
19193TIP3    H179070   4.347   2.204  15.884 -0.1584  1.9698  2.3621
19193TIP3    H279071   4.215   2.265  15.925 -2.6484 -2.0703  1.0013
19194TIP3   OH279072   2.619   5.482   4.587 -0.0286 -0.2644  0.2980
19194TIP3    H179073   2.544   5.488   4.527 -0.0335 -0.0898  0.3215
19194TIP3    H279074   2.583   5.500   4.673 -0.0343 -0.5891  0.3622
19195TIP3   OH279075   2.130   3.374  17.263  0.1816  0.0518 -0.0896
19195TIP3    H179076   2.214   3.346  17.300  0.5958 -2.3340 -2.5640
19195TIP3    H279077   2.150   3.455  17.217  1.3969 -0.9470 -1.3978
19196TIP3   OH279078   0.169   4.835   4.089 -0.0055  0.0289  0.3011
19196TIP3    H179079   0.156   4.877   4.004 -1.4566 -0.9634 -0.0107
19196TIP3    H279080   0.221   4.757   4.070  1.8758  1.1162  0.7409
19197TIP3   OH279081   5.388   6.059   0.733  0.2226  1.0027  0.3661
19197TIP3    H179082   5.430   5.998   0.672 -0.1647 -0.2418  1.3184
19197TIP3    H279083   5.325   6.107   0.679 -0.5381 -0.4983 -0.1263
19198TIP3   OH279084   5.443   0.002   2.090  0.6915 -0.0470 -0.0810
19198TIP3    H179085   5.375   0.065   2.066  0.9828  0.7227  1.0691
19198TIP3    H279086   5.518   0.026   2.036  0.3011 -0.4611 -0.8401
19199TIP3   OH279087   1.173   5.375  13.676 -0.0440  0.0978 -0.3070
19199TIP3    H179088   1.199   5.285  13.698 -1.3121  0.0102  0.9721
19199TIP3    H279089   1.122   5.365  13.596  2.3732  0.0992 -1.9612
19200TIP3   OH279090   0.129   4.867  13.161 -0.3678  0.3108 -0.5452
19200TIP3    H179091   0.040   4.836  13.174 -1.4966  3.2414 -0.5336
19200TIP3    H279092   0.175   4.844  13.242 -2.3544  2.4019  1.3421
19201TIP3   OH279093   0.911   1.322  16.513  0.3066  0.0421 -0.0239
19201TIP3    H179094   0.873   1.380  16.579 -1.9730 -1.9512  0.5886
19201TIP3    H279095   0.992   1.291  16.553  0.6169  1.3645  0.4148
19202TIP3   OH279096   4.234   4.959  12.831 -0.0829 -0.3448 -0.4739
19202TIP3    H179097   4.325   4.960  12.863  0.7644 -0.1131 -2.7092
19202TIP3    H279098   4.212   5.052  12.820 -1.2835 -0.3106  1.7357
19203TIP3   OH279099   3.049   5.346   0.172 -0.4417 -0.1568  0.4139
19203TIP3    H179100   3.042   5.299   0.255 -0.4279  0.3476  0.7035
19203TIP3    H279101   3.081   5.433   0.196 -0.0614 -0.1342 -0.1621
19204TIP3   OH279102   6.741   1.388   0.839  0.6521 -0.0524  0.5588
19204TIP3    H179103   6.781   1.432   0.914  1.7926  0.5836 -0.3880
19204TIP3    H279104   6.667   1.341   0.876  0.4028  1.2982  1.8810
19205TIP3   OH279105   4.084   1.578   3.871 -0.0522 -0.2762 -0.0178
19205TIP3    H179106   4.009   1.633   3.849 -0.9388 -0.5981  1.9695
19205TIP3    H279107   4.156   1.612   3.818 -0.8178  2.1455  0.4083
19206TIP3   OH279108   4.726   2.097   0.530 -0.6635  0.0946  0.1928
19206TIP3    H179109   4.658   2.061   0.587  0.7115 -1.2409  1.0958
19206TIP3    H279110   4.793   2.029   0.528  1.8863  2.3801  1.5466
19207TIP3   OH279111   1.550   4.454   5.966  0.0955  0.2455 -0.5386
19207TIP3    H179112   1.497   4.397   6.021  0.5945  0.2893 -0.0090
19207TIP3    H279113   1.498   4.534   5.958  0.1614  0.3623  0.1363
19208TIP3   OH279114   5.040   4.116  16.342 -0.4193  0.7056 -0.2966
19208TIP3    H179115   4.959   4.094  16.296 -0.4132  0.8425 -0.3689
19208TIP3    H279116   5.016   4.116  16.435 -0.0375 -1.3779 -0.1419
19209TIP3   OH279117   3.290   3.997   4.433  0.0986  0.3442 -0.3972
19209TIP3    H179118   3.256   3.911   4.410  2.3675 -0.8247  0.4011
19209TIP3    H279119   3.247   4.057   4.371 -0.0815 -1.6013 -2.2536
19210TIP3   OH279120   5.870   0.241  15.172  0.6439 -0.4461  0.5367
19210TIP3    H179121   5.878   0.146  15.163 -1.2720 -0.5407 -0.9752
19210TIP3    H279122   5.891   0.275  15.085 -0.0583  0.3831  0.6734
19211TIP3   OH279123   6.388   4.481  16.762  0.5049  0.0160 -0.0944
19211TIP3    H179124   6.326   4.546  16.796  0.0786 -0.5297  0.1888
19211TIP3    H279125   6.466   4.532  16.739 -0.2810  0.8243 -1.0859
19212TIP3   OH279126   1.691   5.792  12.185 -0.3454  0.0902 -0.1851
19212TIP3    H179127   1.777   5.822  12.214 -0.8735  0.5133  1.0307
19212TIP3    H279128   1.701   5.698  12.175  0.3989  0.2010 -0.5873
19213TIP3   OH279129   4.792   4.742   4.822 -0.6643 -0.1237  0.1600
19213TIP3    H179130   4.825   4.809   4.883 -1.0361  0.8878 -0.7168
19213TIP3    H279131   4.723   4.698   4.870  0.4784 -0.8137  1.2427
19214TIP3   OH279132   1.588   3.949  15.759  0.1702 -0.5607  0.1029
19214TIP3    H179133   1.492   3.950  15.755  0.1626 -2.1530 -0.9762
19214TIP3    H279134   1.607   3.925  15.850 -0.3476  2.3163  1.0802
19215TIP3   OH279135   0.175   4.113   1.683  0.3439  0.2704 -0.6621
19215TIP3    H179136   0.089   4.150   1.660  0.1721  1.1382  1.1748
19215TIP3    H279137   0.158   4.061   1.762  0.9979 -2.0835 -1.9845
19216TIP3   OH279138   2.647   6.155   5.521  0.3812 -0.0874  0.7878
19216TIP3    H179139   2.727   6.108   5.543  0.4869 -0.7577 -0.9474
19216TIP3    H279140   2.585   6.088   5.493 -0.5117  0.5130  1.2404
19217TIP3   OH279141   5.930   5.973   0.281  0.1421  0.0489 -0.8851
19217TIP3    H179142   5.869   6.028   0.331  1.0322 -0.0941  0.4118
19217TIP3    H279143   6.008   5.968   0.337  0.6646 -1.2432 -1.6979
19218TIP3   OH279144   4.464   2.079   0.694 -0.7069 -0.5480 -0.1164
19218TIP3    H179145   4.385   2.106   0.739 -1.8497 -0.9463 -1.7807
19218TIP3    H279146   4.484   1.992   0.729 -0.0469  0.2125  1.4641
19219TIP3   OH279147   0.608   5.777  17.147  0.4696  0.0601  0.3589
19219TIP3    H179148   0.668   5.705  17.130  1.0009 -0.0297  2.3580
19219TIP3    H279149   0.664   5.850  17.173 -0.0017  1.5093 -2.3392
19220TIP3   OH279150   3.337   3.566   1.856 -0.4586 -0.3395 -0.2576
19220TIP3    H179151   3.294   3.487   1.825  0.1085 -0.5197 -0.6097
19220TIP3    H279152   3.285   3.638   1.821 -1.4770 -0.5486  0.7864
19221TIP3   OH279153   4.467   0.973   4.336 -0.5071  0.9345  0.0798
19221TIP3    H179154   4.375   0.948   4.339  0.0577 -1.2979  0.6395
19221TIP3    H279155   4.474   1.029   4.259 -2.0344 -0.3340 -1.0479
19222TIP3   OH279156   2.523   6.303  17.213  0.2870  0.1679 -0.0718
19222TIP3    H179157   2.547   6.211  17.203  0.3207  0.0927  0.6820
19222TIP3    H279158   2.433   6.308  17.183  0.4043 -0.0327 -0.4762
19223TIP3   OH279159   3.120   1.522  13.235  0.1526 -0.1332  0.4161
19223TIP3    H179160   3.068   1.603  13.231  0.9127  0.3603  0.2424
19223TIP3    H279161   3.167   1.521  13.152  0.8666 -0.2637  0.8197
19224TIP3   OH279162   2.825   2.756   1.059 -0.3230 -0.5004 -0.0393
19224TIP3    H179163   2.754   2.703   1.024 -0.8919  1.0413 -1.3215
19224TIP3    H279164   2.790   2.845   1.062  1.2876  0.1670  0.0455
19225TIP3   OH279165   4.632   1.148   4.494 -0.1530  0.4637 -0.2188
19225TIP3    H179166   4.712   1.106   4.462 -0.2208 -0.1670  0.4198
19225TIP3    H279167   4.562   1.107   4.443 -0.3652 -1.2925  1.3755
19226TIP3   OH279168   3.393   1.989   1.786 -0.2562 -0.5887 -0.2078
19226TIP3    H179169   3.482   1.962   1.762  0.7308 -0.0880  2.4532
19226TIP3    H279170   3.401   2.083   1.803 -0.9498 -0.7737  1.3215
19227TIP3   OH279171   3.226   6.189   5.752 -0.2805  0.6758  0.6198
19227TIP3    H179172   3.230   6.248   5.828  0.1557 -1.2840  2.1917
19227TIP3    H279173   3.249   6.103   5.787  1.5163 -0.0585 -2.0670
19228TIP3   OH279174   1.102   1.500  11.098 -0.3632  0.7400  0.7793
19228TIP3    H179175   1.186   1.543  11.112 -0.8615  1.6259  1.1410
19228TIP3    H279176   1.123   1.408  11.089  0.8195  1.1124 -0.6588
19229TIP3   OH279177   1.086   4.808  15.639  0.3135 -0.2956  0.3783
19229TIP3    H179178   1.012   4.804  15.700  1.2187  1.9793  1.7559
19229TIP3    H279179   1.123   4.896  15.651  1.4654 -0.2818 -2.4259
19230TIP3   OH279180   2.305   3.315  12.664 -0.3224  0.0326 -0.9083
19230TIP3    H179181   2.337   3.386  12.721 -1.7263 -0.1513  0.1451
19230TIP3    H279182   2.230   3.278  12.711  0.5342 -2.3599 -1.2897
19231TIP3   OH279183   4.419   5.991  14.877  0.6163 -0.3542  0.0434
19231TIP3    H179184   4.483   6.061  14.862 -1.2005  1.5992  0.8907
19231TIP3    H279185   4.453   5.944  14.954  1.2130  0.4313  0.2697
19232TIP3   OH279186   6.214   3.654   2.716  0.1840  0.2273  0.3262
19232TIP3    H179187   6.249   3.593   2.650  1.9084 -1.4442  2.6218
19232TIP3    H279188   6.120   3.659   2.696  0.2031 -2.2172 -0.7649
19233TIP3   OH279189   0.398   5.055   1.584 -0.9182 -0.1142 -0.5052
19233TIP3    H179190   0.411   4.961   1.575 -2.1857 -0.3612  0.0560
19233TIP3    H279191   0.319   5.074   1.534 -2.4312  0.1087  1.8288
19234TIP3   OH279192   3.811   3.300   2.930  0.1677 -0.0630 -0.5453
19234TIP3    H179193   3.860   3.311   2.849 -0.2691  4.2889 -0.4398
19234TIP3    H279194   3.878   3.300   2.999  0.3451 -0.4915 -0.7150
19235TIP3   OH279195   4.009   5.999  16.113  0.1045  0.5654  0.6944
19235TIP3    H179196   4.086   6.036  16.069  0.1012  1.3032  1.2876
19235TIP3    H279197   3.956   6.075  16.136 -1.9185  0.0063 -1.6413
19236TIP3   OH279198   1.702   5.296   5.878  0.6808 -0.5606 -0.0243
19236TIP3    H179199   1.756   5.218   5.868  0.3397 -1.1141  2.0364
19236TIP3    H279200   1.706   5.316   5.972  0.4404  1.6760 -0.4461
19237TIP3   OH279201   5.695   4.969  14.332 -0.4995  0.3259  0.0521
19237TIP3    H179202   5.790   4.975  14.345 -0.7217  0.7926  1.7361
19237TIP3    H279203   5.663   5.059  14.341 -1.3282 -0.1003  1.9019
19238TIP3   OH279204   3.810   4.645   2.295 -0.0612 -0.1120 -0.6216
19238TIP3    H179205   3.767   4.669   2.213  1.9155  1.4596 -1.2835
19238TIP3    H279206   3.886   4.703   2.300 -0.2409  0.0355  2.4730
19239TIP3   OH279207   3.503   0.164   3.950  0.1556  0.5050 -0.6691
19239TIP3    H179208   3.462   0.245   3.922 -1.5201 -0.2772 -0.5718
19239TIP3    H279209   3.500   0.108   3.873  1.0657  0.4313 -0.6603
19240TIP3   OH279210   0.498   6.322   6.233  0.0642 -0.8032  0.4553
19240TIP3    H179211   0.524   6.232   6.253 -0.4958 -0.6616  1.9495
19240TIP3    H279212   0.403   6.317   6.218  0.3504 -0.7930 -1.7116
19241TIP3   OH279213   3.758   4.543   4.034  0.1006 -0.0193 -0.0589
19241TIP3    H179214   3.767   4.636   4.056  0.0345  0.3579 -1.5127
19241TIP3    H279215   3.663   4.528   4.036  0.1378 -0.2256  0.7432
19242TIP3   OH279216   0.027   2.106  11.125 -0.6064 -0.4304  0.5355
19242TIP3    H179217   0.113   2.071  11.105 -0.6187  0.4406 -1.1716
19242TIP3    H279218  -0.035   2.045  11.083 -0.7945 -0.5506  0.9787
19243TIP3   OH279219   6.383   2.962   4.501  0.0196 -0.6913  0.3732
19243TIP3    H179220   6.302   2.914   4.521  0.3001 -1.0207  0.7432
19243TIP3    H279221   6.451   2.895   4.502  0.1559 -0.5964 -1.0212
19244TIP3   OH279222   1.771   5.481   3.245  0.2013  0.7063  0.2459
19244TIP3    H179223   1.680   5.502   3.265 -0.8062 -1.9101 -1.1197
19244TIP3    H279224   1.788   5.399   3.292  0.9293 -0.2544 -1.5831
19245TIP3   OH279225   0.448   4.275   4.153  0.1695 -0.1026 -0.1704
19245TIP3    H179226   0.500   4.268   4.073 -1.2039  1.9493 -1.3322
19245TIP3    H279227   0.390   4.199   4.151 -0.8196  0.6604 -1.9013
19246TIP3   OH279228   3.147   6.733  10.893  0.0298 -0.2997 -0.1321
19246TIP3    H179229   3.175   6.643  10.876 -0.6017 -0.6401  0.5784
19246TIP3    H279230   3.223   6.786  10.870  0.0548 -0.9154 -1.5855
19247TIP3   OH279231   0.423   0.483  17.291  0.0808 -0.3116 -0.1125
19247TIP3    H179232   0.432   0.414  17.356  1.8718 -1.2691 -1.2789
19247TIP3    H279233   0.395   0.560  17.340 -1.5036 -1.7077  1.2985
19248TIP3   OH279234   5.981   0.396   2.313  0.2486  0.6078  0.1684
19248TIP3    H179235   5.977   0.300   2.311 -0.1055  0.6008  0.8023
19248TIP3    H279236   6.051   0.416   2.375 -0.7196  0.7405  1.2730
19249TIP3   OH279237   5.135   2.364   3.198 -0.2369 -0.7914  0.4871
19249TIP3    H179238   5.078   2.427   3.244  0.4715  1.0153 -0.9568
19249TIP3    H279239   5.077   2.292   3.175 -1.8092  0.6216 -0.2214
19250TIP3   OH279240   4.583   2.142   5.048 -0.3319 -0.0961 -0.3615
19250TIP3    H179241   4.579   2.188   5.132 -1.6871 -0.2217 -0.3313
19250TIP3    H279242   4.492   2.118   5.030  0.0576 -0.8021 -1.4651
19251TIP3   OH279243   5.347   6.141   2.251 -0.1326 -0.0547  0.0464
19251TIP3    H179244   5.252   6.130   2.257 -0.0185 -2.2329 -1.3321
19251TIP3    H279245   5.383   6.064   2.295  0.9421 -0.3009 -1.2101
19252TIP3   OH279246   3.594   4.906  11.440 -0.0976  0.5350 -0.2936
19252TIP3    H179247   3.684   4.913  11.473  1.5486 -0.2009 -4.0713
19252TIP3    H279248   3.583   4.813  11.421 -1.8664  0.5601  0.4026
19253TIP3   OH279249   0.118   3.742   4.945 -0.1721  0.0888 -0.3029
19253TIP3    H179250   0.200   3.695   4.939 -0.0211  0.1837  0.7974
19253TIP3    H279251   0.051   3.674   4.945 -0.0032 -0.0819  0.3958
19254TIP3   OH279252   1.590   5.033   3.990  0.3136  0.4074  0.1267
19254TIP3    H179253   1.643   4.955   3.972  0.2261  0.1824  0.8037
19254TIP3    H279254   1.653   5.099   4.018  0.2812  0.2257  0.6551
19255TIP3   OH279255   1.076   1.940  16.361  0.0688  0.3501  0.7681
19255TIP3    H179256   1.075   2.029  16.325 -1.6308  1.2519  2.8590
19255TIP3    H279257   1.163   1.933  16.402 -0.3914  1.7483  2.0973
19256TIP3   OH279258   5.995   5.824   4.805 -0.0554  0.1725  0.1737
19256TIP3    H179259   6.071   5.798   4.857  1.4516 -1.1740 -2.4912
19256TIP3    H279260   5.950   5.742   4.786  0.8440  0.2214 -2.5937
19257TIP3   OH279261   1.103   0.910  16.630 -0.1167 -0.0257  0.1969
19257TIP3    H179262   1.190   0.945  16.646  1.4648 -1.7472 -3.4163
19257TIP3    H279263   1.083   0.936  16.540 -2.1737 -1.8519  0.0315
19258TIP3   OH279264   6.044   5.125   0.058  0.3723  0.0358 -0.1815
19258TIP3    H179265   6.085   5.039   0.044  0.0843 -0.0359 -0.6148
19258TIP3    H279266   5.950   5.106   0.059  0.3412  0.2032  0.7648
19259TIP3   OH279267   4.524   0.340  11.821 -0.5212  0.4652 -0.0732
19259TIP3    H179268   4.554   0.292  11.898 -2.9948  1.6553  1.7611
19259TIP3    H279269   4.600   0.393  11.795  1.0024 -1.4640  0.2100
19260TIP3   OH279270   3.451   6.730   3.784 -0.5582 -0.2638 -0.1577
19260TIP3    H179271   3.364   6.731   3.822 -0.2051 -0.2254  0.6679
19260TIP3    H279272   3.501   6.668   3.837 -0.3701 -1.1436 -1.3109
19261TIP3   OH279273   4.125   1.174  16.954  0.3002  0.1726 -0.0647
19261TIP3    H179274   4.060   1.210  17.015 -0.2377 -2.1791  0.8704
19261TIP3    H279275   4.198   1.236  16.959 -1.4659  2.4415 -0.4979
19262TIP3   OH279276   1.967   2.127   2.069 -0.3261  0.2759 -0.0281
19262TIP3    H179277   2.000   2.211   2.101  0.2854 -0.3295  1.0036
19262TIP3    H279278   1.997   2.121   1.979  0.1105  0.9111  0.0719
19263TIP3   OH279279   6.528   4.393  16.478  0.4675  0.0237  0.3921
19263TIP3    H179280   6.611   4.379  16.524  0.7967  1.7370  0.3963
19263TIP3    H279281   6.467   4.333  16.521  1.8153 -1.7218 -0.0293
19264TIP3   OH279282   0.096   4.169  14.062  0.2357 -0.8117 -0.4509
19264TIP3    H179283   0.150   4.184  14.140 -0.6804 -0.7064  0.1834
19264TIP3    H279284   0.108   4.247  14.008 -2.8820  1.5636  1.8564
19265TIP3   OH279285   2.285   6.063  14.475 -0.2264  0.1518 -0.1154
19265TIP3    H179286   2.359   6.002  14.477  0.6185  1.1000  2.6345
19265TIP3    H279287   2.310   6.130  14.411  0.4538 -0.5191 -0.5616
19266TIP3   OH279288   6.286   3.896   3.198 -0.2820 -0.9937  0.1600
19266TIP3    H179289   6.307   3.946   3.277 -0.1548  2.6313 -1.9303
19266TIP3    H279290   6.200   3.858   3.217 -0.9867  1.0823  1.5564
19267TIP3   OH279291   3.572   2.764  11.241 -0.0768 -0.1042 -0.0402
19267TIP3    H179292   3.614   2.805  11.316  1.4326 -0.9624 -0.3729
19267TIP3    H279293   3.555   2.837  11.180 -2.8301  0.8760  1.7031
19268TIP3   OH279294   1.305   5.355   2.880 -0.0827  0.1385 -0.5681
19268TIP3    H179295   1.268   5.268   2.898  0.6339 -0.0683 -0.0282
19268TIP3    H279296   1.230   5.414   2.880 -0.5392 -0.4396 -0.6188
19269TIP3   OH279297   3.770   2.809   5.735  0.0775  0.1292  0.3208
19269TIP3    H179298   3.724   2.779   5.657 -0.2382 -0.7328  0.8259
19269TIP3    H279299   3.776   2.732   5.791 -1.3157  1.1065  1.9346
19270TIP3   OH279300   2.568   5.796   2.471 -0.7375  0.2634 -0.1562
19270TIP3    H179301   2.626   5.870   2.491  1.6245 -1.9424  1.9199
19270TIP3    H279302   2.503   5.797   2.542 -0.5868  0.2373 -0.0167
19271TIP3   OH279303   6.062   1.891  16.362  0.0756 -0.6126  0.3733
19271TIP3    H179304   6.091   1.852  16.445 -1.4683  1.2073  1.8489
19271TIP3    H279305   6.140   1.935  16.327  0.8938 -1.9036  0.5064
19272TIP3   OH279306   0.673   3.395  11.245 -0.0765 -0.1244  0.3402
19272TIP3    H179307   0.763   3.427  11.242  0.1883 -0.8610  0.1312
19272TIP3    H279308   0.619   3.472  11.229  0.5715 -0.0074 -1.4323
19273TIP3   OH279309   6.078   1.177   0.345  0.1129  0.4748 -0.3786
19273TIP3    H179310   6.046   1.222   0.423  0.4049 -0.3085  0.2154
19273TIP3    H279311   6.059   1.236   0.272 -0.1740  1.2109  0.2882
19274TIP3   OH279312   6.275   2.128  13.913 -0.3585 -0.3097  0.3521
19274TIP3    H179313   6.323   2.143  13.994 -1.0382 -1.0776  0.9186
19274TIP3    H279314   6.244   2.038  13.920  0.2999 -0.6761 -1.1635
19275TIP3   OH279315   0.702   4.702   0.747 -0.1942 -0.5928 -0.1887
19275TIP3    H179316   0.652   4.735   0.822 -1.8364  0.1234 -1.5114
19275TIP3    H279317   0.790   4.738   0.758  0.3088 -2.3574  2.5395
19276TIP3   OH279318   6.690   5.235   4.095  0.3358  0.0213  0.1152
19276TIP3    H179319   6.680   5.186   4.013  1.0147  1.0333 -0.5957
19276TIP3    H279320   6.624   5.197   4.153 -0.7012 -0.2112 -1.1438
19277TIP3   OH279321   0.517   0.945   4.315  0.0926 -0.4405 -0.2455
19277TIP3    H179322   0.538   0.902   4.232 -0.1242 -1.5115  0.2335
19277TIP3    H279323   0.595   0.930   4.370 -0.0919 -0.4486  0.0171
19278TIP3   OH279324   6.117   5.145   1.566 -0.0659  0.5007 -0.0697
19278TIP3    H179325   6.147   5.120   1.478 -2.7610 -2.5736 -0.3032
19278TIP3    H279326   6.045   5.206   1.550 -1.3050 -0.9227 -0.1472
19279TIP3   OH279327   0.554   5.063   5.635  0.2491 -0.4707 -0.4237
19279TIP3    H179328   0.623   4.999   5.657  3.3859  1.9072 -2.3873
19279TIP3    H279329   0.555   5.066   5.539 -1.5217  0.8024 -0.4307
19280TIP3   OH279330   2.495   4.945   1.527  0.1021 -0.2104 -0.0205
19280TIP3    H179331   2.460   4.880   1.466 -0.5436  0.2607 -0.1647
19280TIP3    H279332   2.476   5.029   1.486 -1.7591  0.1975  1.4972
19281TIP3   OH279333   5.491   3.828  16.140 -0.5487 -0.5058 -0.1859
19281TIP3    H179334   5.572   3.848  16.187 -0.3866 -1.9487  0.1917
19281TIP3    H279335   5.423   3.874  16.189 -0.2125 -0.9154  0.6782
19282TIP3   OH279336   6.285   4.448  14.378 -0.9802  0.4869  0.2434
19282TIP3    H179337   6.309   4.357  14.395 -1.1158  0.5614  0.8728
19282TIP3    H279338   6.367   4.496  14.387 -1.0352  0.5145  0.6233
19283TIP3   OH279339   2.457   3.405  12.434 -0.1006 -0.4080 -0.1297
19283TIP3    H179340   2.401   3.333  12.405  0.4481 -0.9703  0.2019
19283TIP3    H279341   2.472   3.389  12.527  0.0054  0.1530 -0.0456
19284TIP3   OH279342   0.903   1.774   6.082 -0.0291 -0.2942  0.0924
19284TIP3    H179343   0.834   1.708   6.083 -0.3490  0.0133 -0.7552
19284TIP3    H279344   0.983   1.726   6.062 -0.1627 -0.5082  0.0760
19285TIP3   OH279345   6.013   5.816   3.580 -0.1818 -0.0434  0.1531
19285TIP3    H179346   5.935   5.827   3.634 -0.0557  1.8229 -0.0030
19285TIP3    H279347   5.997   5.871   3.503  1.3616  0.5458  0.2175
19286TIP3   OH279348   5.132   1.721  17.067 -0.3313 -0.6503  0.1039
19286TIP3    H179349   5.222   1.749  17.084 -0.4155 -0.9981  1.1743
19286TIP3    H279350   5.139   1.627  17.047 -0.6553 -1.2067  2.3596
19287TIP3   OH279351   0.354   1.999  12.759 -0.1480  0.1971 -0.0949
19287TIP3    H179352   0.385   1.911  12.737  0.3990  0.1801  0.7065
19287TIP3    H279353   0.327   2.037  12.675 -0.2164 -0.6616 -0.4700
19288TIP3   OH279354   5.788   1.264  12.381 -0.0112 -0.1454 -0.2404
19288TIP3    H179355   5.738   1.186  12.405  0.2308 -1.7195 -4.0745
19288TIP3    H279356   5.722   1.329  12.358 -0.2303  0.0699  0.9797
19289TIP3   OH279357   5.011   6.017  12.694  0.0459  0.3125  0.0704
19289TIP3    H179358   4.972   6.098  12.727 -1.5799 -0.5433  0.3822
19289TIP3    H279359   5.012   6.027  12.599 -1.3694  0.2265  0.0142
19290TIP3   OH279360   2.957   0.750  13.958  0.5272  0.4409 -0.0739
19290TIP3    H179361   2.877   0.718  13.916  0.6085 -0.1812  0.2286
19290TIP3    H279362   3.023   0.748  13.889  0.1158  1.6943 -0.5310
19291TIP3   OH279363   2.165   3.630  15.601  0.1867  0.3040  0.3863
19291TIP3    H179364   2.240   3.644  15.659  0.8614 -0.2537 -0.3223
19291TIP3    H279365   2.096   3.598  15.659  0.5805  0.5575  1.0136
19292TIP3   OH279366   0.671   4.929  16.104 -0.0702  0.1946  0.4171
19292TIP3    H179367   0.660   4.871  16.028  0.9549 -0.3126  0.6382
19292TIP3    H279368   0.653   4.873  16.180  3.1077 -0.5128  0.7595
19293TIP3   OH279369   2.171   2.544  16.543 -0.0802 -0.2051  0.5454
19293TIP3    H179370   2.249   2.596  16.523 -0.9668  0.6685 -0.8765
19293TIP3    H279371   2.120   2.599  16.602 -0.1686 -0.2470  0.5085
19294TIP3   OH279372   2.131   2.630  13.952  0.4909  0.2796 -0.4006
19294TIP3    H179373   2.080   2.711  13.946  0.5413  0.3319 -0.1258
19294TIP3    H279374   2.082   2.566  13.900  1.1486  0.8394 -1.7792
19295TIP3   OH279375   6.568   5.247  14.173 -0.0223 -0.1446  0.5357
19295TIP3    H179376   6.502   5.248  14.104 -1.0121 -1.4080  1.4185
19295TIP3    H279377   6.584   5.154  14.189  1.8316  0.1334  0.5052
19296TIP3   OH279378   4.233   6.762  16.100 -0.7533 -0.0239 -0.8101
19296TIP3    H179379   4.220   6.792  16.190  1.4070  0.1139 -0.4724
19296TIP3    H279380   4.203   6.834  16.046  1.6196  1.6774 -0.0522
19297TIP3   OH279381   0.638   4.215   4.369 -0.1904 -0.3214 -0.1692
19297TIP3    H179382   0.586   4.285   4.328 -0.7274 -0.4548  0.2809
19297TIP3    H279383   0.637   4.144   4.305 -1.2737 -0.6390  0.1896
19298TIP3   OH279384   5.098   0.767  11.222  0.0590  0.4829 -0.7015
19298TIP3    H179385   5.154   0.841  11.243 -0.8987  0.9576  0.2882
19298TIP3    H279386   5.059   0.789  11.137  1.7610 -0.1196 -1.6913
19299TIP3   OH279387   2.293   5.901   2.450  0.2859  0.2481  0.1223
19299TIP3    H179388   2.358   5.862   2.392  0.8949  0.1861  0.8341
19299TIP3    H279389   2.246   5.826   2.488 -0.7136  0.3083 -0.9461
19300TIP3   OH279390   5.123   5.213  12.839  0.1567  0.1683 -0.2098
19300TIP3    H179391   5.120   5.166  12.922  0.5779 -1.8725 -1.2710
19300TIP3    H279392   5.033   5.209  12.806 -0.3249  2.2224  0.7539
19301TIP3   OH279393   5.889   4.857  15.297  0.1014 -0.0873 -0.3798
19301TIP3    H179394   5.942   4.916  15.244 -1.2218  0.6027 -0.9918
19301TIP3    H279395   5.934   4.773  15.292  1.8430  0.7610  0.2292
19302TIP3   OH279396   3.445   0.141  12.469 -0.3378 -0.4414  0.5718
19302TIP3    H179397   3.522   0.086  12.483  1.4848  1.7454 -0.1799
19302TIP3    H279398   3.445   0.159  12.375 -2.2940 -1.0312  0.4045
19303TIP3   OH279399   2.727   6.355   1.545  0.0209 -0.0494  0.1326
19303TIP3    H179400   2.776   6.436   1.556 -0.8710  0.5110  0.0463
19303TIP3    H279401   2.771   6.310   1.473 -0.3485  1.0397 -0.8101
19304TIP3   OH279402   6.723   2.491   2.990  0.2945 -0.2284  0.5214
19304TIP3    H179403   6.690   2.401   2.998 -0.9136  0.2439  1.0844
19304TIP3    H279404   6.812   2.481   2.954 -0.0658 -1.6023 -0.0523
19305TIP3   OH279405   0.067   1.952  16.965 -0.4433  0.4033  0.1107
19305TIP3    H179406   0.061   1.962  16.870  0.9150  1.0571  0.0725
19305TIP3    H279407   0.055   2.041  17.000 -0.6769  0.2070  0.5448
19306TIP3   OH279408   4.286   1.325   0.641  0.7201  0.4158  0.0544
19306TIP3    H179409   4.316   1.366   0.722 -0.7508  1.1499  0.2693
19306TIP3    H279410   4.229   1.253   0.670  0.5224  0.4140 -0.3245
19307TIP3   OH279411   1.955   1.271  15.219  0.2260  0.1697  0.0387
19307TIP3    H179412   1.986   1.347  15.268  0.3112 -0.8166  1.5689
19307TIP3    H279413   1.860   1.273  15.229  0.1046  0.7680 -1.0197
19308TIP3   OH279414   3.837   5.878  16.754 -0.0075 -0.0661  0.1778
19308TIP3    H179415   3.800   5.940  16.818  3.6016  1.5146  1.0039
19308TIP3    H279416   3.932   5.889  16.764  0.7837 -0.5533 -4.7157
19309TIP3   OH279417   4.973   5.135  16.709  0.3968  0.1404  0.0926
19309TIP3    H179418   5.049   5.157  16.762  0.6893 -1.2352  0.2963
19309TIP3    H279419   4.927   5.218  16.696  1.4770  0.8493  0.6681
19310TIP3   OH279420   4.445   3.970   4.316  0.3217 -0.1431  0.2153
19310TIP3    H179421   4.504   3.897   4.330 -0.5382 -0.6570  1.2762
19310TIP3    H279422   4.373   3.933   4.265 -0.1749 -0.0744  0.8569
19311TIP3   OH279423   4.607   4.167  16.991 -0.1219 -0.6631  0.2337
19311TIP3    H179424   4.638   4.094  17.045 -1.2055 -2.0037 -0.8618
19311TIP3    H279425   4.574   4.125  16.911  0.9790  1.2115 -1.2869
19312TIP3   OH279426   6.027   6.417  11.308  0.1922  0.1138 -0.7499
19312TIP3    H179427   6.034   6.326  11.337 -0.4765  1.0659  2.9256
19312TIP3    H279428   6.115   6.440  11.281  0.3001 -1.6794 -2.1561
19313TIP3   OH279429   4.732   4.785   3.488  0.4678  0.5455 -0.1194
19313TIP3    H179430   4.741   4.875   3.520  1.2641  0.5346 -0.2810
19313TIP3    H279431   4.732   4.731   3.567 -0.6660  0.7148  0.0205
19314TIP3   OH279432   1.569   3.356  10.745 -0.9541  0.1938  0.2963
19314TIP3    H179433   1.581   3.398  10.830 -1.2319  0.6788  0.0983
19314TIP3    H279434   1.652   3.370  10.700 -0.9177  0.2109  0.3683
19315TIP3   OH279435   2.260   4.803  13.279 -0.4085  0.5520  0.2155
19315TIP3    H179436   2.329   4.740  13.259  0.5041  1.6884 -0.3223
19315TIP3    H279437   2.214   4.765  13.354  1.6021  0.3576  1.4233
19316TIP3   OH279438   3.196   0.623   5.988  0.4828  0.1584  0.0924
19316TIP3    H179439   3.105   0.623   5.958  0.5349  1.2948 -0.1053
19316TIP3    H279440   3.218   0.531   5.997 -0.9807 -0.1338  1.0036
19317TIP3   OH279441   6.399   0.950   4.728  0.7861 -0.1222 -0.1445
19317TIP3    H179442   6.377   0.915   4.641  0.1194  1.7632 -0.7937
19317TIP3    H279443   6.382   0.878   4.788 -0.2162 -1.0143 -1.4366
19318TIP3   OH279444   5.456   4.665   3.061 -0.2087 -0.4602  0.4082
19318TIP3    H179445   5.391   4.596   3.071  1.1631 -1.8000  0.5408
19318TIP3    H279446   5.438   4.704   2.975 -0.4758 -1.5772 -0.0574
19319TIP3   OH279447   2.224   4.801  14.968  0.2858  0.2816  0.2142
19319TIP3    H179448   2.145   4.812  14.915  1.4001  2.8827 -1.1171
19319TIP3    H279449   2.296   4.818  14.907  1.7365  1.1789  2.0686
19320TIP3   OH279450   2.127   4.660  13.516 -0.3688  0.2459  0.6630
19320TIP3    H179451   2.177   4.708  13.583 -1.0132 -0.0074  1.3472
19320TIP3    H279452   2.163   4.571  13.520 -1.5518 -0.2163  1.9152
19321TIP3   OH279453   2.018   3.531  11.402  0.2058 -0.3361 -0.7801
19321TIP3    H179454   1.971   3.504  11.323  0.1064  0.2060 -0.9065
19321TIP3    H279455   1.951   3.569  11.458  0.7021  1.8646 -1.5903
19322TIP3   OH279456   4.214   5.981   5.536  0.0519  0.0263  0.0789
19322TIP3    H179457   4.278   6.052   5.540 -0.7435  0.8179 -0.7757
19322TIP3    H279458   4.136   6.016   5.580 -0.5191 -0.1192 -0.8014
19323TIP3   OH279459   5.181   5.267   5.304  0.0974 -0.0329 -0.1418
19323TIP3    H179460   5.224   5.186   5.277 -1.1813 -1.0195  0.6825
19323TIP3    H279461   5.193   5.272   5.398 -0.3638  0.4172 -0.0961
19324TIP3   OH279462   5.015   5.832   0.124 -0.0627  0.8991  0.8610
19324TIP3    H179463   4.920   5.834   0.120 -0.0262  0.7804 -0.7825
19324TIP3    H279464   5.044   5.885   0.050  1.0946 -1.3817 -0.4382
19325TIP3   OH279465   3.879   1.588  17.135 -0.4166 -0.0504 -0.3432
19325TIP3    H179466   3.828   1.564  17.212 -0.8369 -1.2088 -0.9486
19325TIP3    H279467   3.817   1.580  17.062 -0.0249  1.0100 -0.8090
19326TIP3   OH279468   1.182   0.582   4.049 -0.1011  0.8917  0.5805
19326TIP3    H179469   1.265   0.536   4.037 -0.0736  0.7768  1.1523
19326TIP3    H279470   1.183   0.651   3.982  0.6232  1.1210  0.8082
19327TIP3   OH279471   1.278   3.768  16.048 -0.5690 -0.0768  0.0891
19327TIP3    H179472   1.219   3.696  16.067 -0.2680 -0.1664  0.7215
19327TIP3    H279473   1.350   3.728  15.999 -1.1699  0.0863 -0.9403
19328TIP3   OH279474   5.817   1.242  15.507  0.0121  0.0049 -0.0954
19328TIP3    H179475   5.798   1.267  15.416 -0.0551  0.4869  0.0532
19328TIP3    H279476   5.840   1.149  15.501  1.4627  0.3759 -0.8244
19329TIP3   OH279477   5.803   4.110   0.659 -0.1343 -0.0360  0.1204
19329TIP3    H179478   5.740   4.039   0.671  0.4073 -0.3228  1.3597
19329TIP3    H279479   5.819   4.144   0.747  1.4506  0.0233 -0.1621
19330TIP3   OH279480   5.200   6.531   5.274 -0.2785  0.9600  0.4437
19330TIP3    H179481   5.221   6.457   5.217  0.6772  1.8618 -0.4157
19330TIP3    H279482   5.276   6.540   5.332 -0.3012  1.3970  0.4106
19331TIP3   OH279483   2.438   4.884   3.705 -0.2891  0.8037  0.3459
19331TIP3    H179484   2.491   4.866   3.628  0.3744  2.8940  0.2470
19331TIP3    H279485   2.347   4.877   3.675 -0.1481 -2.1070  0.3442
19332TIP3   OH279486   6.542   1.136   0.480  0.1436 -0.2177 -0.4119
19332TIP3    H179487   6.562   1.070   0.547  2.6892 -0.6094 -1.4408
19332TIP3    H279488   6.547   1.220   0.526  1.9720 -0.4721 -0.0779
19333TIP3   OH279489   2.355   4.844   2.759  0.4938 -0.4624  0.0968
19333TIP3    H179490   2.292   4.773   2.747  0.2573 -0.2118 -0.1665
19333TIP3    H279491   2.307   4.923   2.734  0.7724 -0.2160  0.3311
19334TIP3   OH279492   2.882   4.229  15.921  0.3378  0.1418  0.1493
19334TIP3    H179493   2.930   4.305  15.953 -0.7442 -0.3258  3.1354
19334TIP3    H279494   2.820   4.207  15.990 -0.7243 -2.3313 -1.4051
19335TIP3   OH279495   6.176   0.076  13.912 -0.1503 -0.4506 -0.3198
19335TIP3    H179496   6.263   0.097  13.876  1.7358 -1.6466  3.1122
19335TIP3    H279497   6.148   0.157  13.956 -0.3554 -0.3709 -0.5898
19336TIP3   OH279498   4.449   2.639  13.305  0.0017 -0.2560  0.0260
19336TIP3    H179499   4.401   2.640  13.222 -2.9357  0.0941  1.5789
19336TIP3    H279500   4.420   2.719  13.350  1.7625 -0.2652  1.2840
19337TIP3   OH279501   0.505   4.111   4.983  0.2078 -0.6066 -0.1290
19337TIP3    H179502   0.525   4.029   5.029  2.0511  0.5560  1.2672
19337TIP3    H279503   0.532   4.180   5.043 -2.4898  1.1090 -0.7526
19338TIP3   OH279504   2.656   4.206   4.806 -0.1357  0.9930 -0.3203
19338TIP3    H179505   2.569   4.245   4.813 -0.3481  0.4959 -0.0633
19338TIP3    H279506   2.642   4.114   4.832  0.3684  0.7885 -0.7724
19339TIP3   OH279507   3.908   2.100  10.955 -0.0924 -0.2089 -0.0240
19339TIP3    H179508   3.932   2.034  10.891 -1.3624 -0.0813 -0.6623
19339TIP3    H279509   3.920   2.184  10.910  1.5014  0.0488  0.7758
19340TIP3   OH279510   2.361   5.329  11.217  0.7650 -0.2787  0.2440
19340TIP3    H179511   2.378   5.335  11.311  2.2011 -0.5319  0.0251
19340TIP3    H279512   2.438   5.285  11.182 -0.5724 -1.8955 -0.8188
19341TIP3   OH279513   5.109   5.189  12.024 -0.0790 -0.2556 -0.1018
19341TIP3    H179514   5.100   5.176  12.119  1.8762 -0.4119  0.1047
19341TIP3    H279515   5.078   5.107  11.986  0.0606 -0.5805  0.4661
19342TIP3   OH279516   0.541   2.953  10.829  0.1423 -0.3402 -0.5177
19342TIP3    H179517   0.605   3.008  10.785  1.1237 -1.3775 -0.4291
19342TIP3    H279518   0.480   3.015  10.870 -0.0826  0.6459 -2.2491
19343TIP3   OH279519   3.846   2.658   6.501 -0.5023 -0.6250  0.4645
19343TIP3    H179520   3.853   2.616   6.587 -1.5728  0.3295  1.0500
19343TIP3    H279521   3.831   2.750   6.521  0.5385 -0.1617 -0.7783
19344TIP3   OH279522   1.866   6.438  17.050  0.3838  0.3010  0.5319
19344TIP3    H179523   1.882   6.526  17.016  2.0334  1.4635  3.8672
19344TIP3    H279524   1.827   6.390  16.977 -0.9567  3.8825 -1.3275
19345TIP3   OH279525   1.433   4.515  16.017  0.3298 -0.1209  0.0675
19345TIP3    H179526   1.434   4.593  15.962  0.6675  1.0097  1.5883
19345TIP3    H279527   1.359   4.529  16.076  1.6180  0.0916  1.7226
19346TIP3   OH279528   5.780   4.087  14.806 -0.9471 -0.2588  0.1178
19346TIP3    H179529   5.722   4.098  14.881 -0.1815  1.3827  0.5147
19346TIP3    H279530   5.862   4.054  14.843 -0.8128 -0.1786 -0.1008
19347TIP3   OH279531   2.452   2.358  14.915  0.4700  0.2525 -0.1951
19347TIP3    H179532   2.495   2.287  14.962 -0.3173 -0.8846 -1.1288
19347TIP3    H279533   2.473   2.436  14.966  2.8146 -0.3640 -0.0923
19348TIP3   OH279534   3.643   5.663   4.554 -0.0337  0.3445 -0.8624
19348TIP3    H179535   3.677   5.606   4.486 -2.1182  0.6340 -2.2283
19348TIP3    H279536   3.714   5.726   4.570  1.4985 -1.3152 -0.7913
19349TIP3   OH279537   2.784   5.269   0.526  0.2311 -0.0360  0.3262
19349TIP3    H179538   2.743   5.234   0.447  0.7996 -0.8703  0.3955
19349TIP3    H279539   2.846   5.202   0.554  1.3972  1.0364  0.4317
19350TIP3   OH279540   5.947   2.207  13.524  0.2220  0.4319 -0.1259
19350TIP3    H179541   6.042   2.215  13.530  0.2173  0.0974  0.4983
19350TIP3    H279542   5.913   2.280  13.576  0.1288  0.8110 -0.7092
19351TIP3   OH279543   6.225   4.403  15.880  0.2130 -0.1479 -0.0424
19351TIP3    H179544   6.248   4.494  15.901 -0.7240  0.2993 -0.8221
19351TIP3    H279545   6.221   4.401  15.784 -0.6116 -0.7843 -0.0115
19352TIP3   OH279546   1.268   6.390  11.818  0.2406  0.5600 -0.4217
19352TIP3    H179547   1.339   6.339  11.778  1.1442  0.9454  0.6321
19352TIP3    H279548   1.308   6.475  11.837 -1.2196  1.6754 -2.0850
19353TIP3   OH279549   1.868   3.570   0.810 -0.8991  0.1106  0.6525
19353TIP3    H179550   1.962   3.589   0.814 -0.7176 -0.7160  0.5441
19353TIP3    H279551   1.858   3.490   0.862 -1.2717 -0.7558 -0.6983
19354TIP3   OH279552   2.914   5.239  12.373 -0.6097  0.0595  0.0793
19354TIP3    H179553   2.942   5.172  12.436 -0.5484  0.3074  0.3129
19354TIP3    H279554   2.910   5.192  12.289  2.0044  0.3632 -0.2838
19355TIP3   OH279555   4.273   0.168  12.648  0.2211  0.3260 -0.0997
19355TIP3    H179556   4.339   0.224  12.689 -1.0572  0.8812  1.2960
19355TIP3    H279557   4.281   0.185  12.554  4.1175 -1.9361 -0.3720
19356TIP3   OH279558   5.822   1.870   2.180  0.0776 -0.2748  0.3453
19356TIP3    H179559   5.874   1.804   2.227 -0.7225 -0.5669  0.8422
19356TIP3    H279560   5.813   1.942   2.242 -0.5165 -0.4279  0.4366
19357TIP3   OH279561   0.367   4.242  13.692 -0.1094  0.0837 -0.3074
19357TIP3    H179562   0.329   4.172  13.639 -1.3058  0.8613 -0.5145
19357TIP3    H279563   0.430   4.197  13.749  1.8493 -0.6885 -2.8771
19358TIP3   OH279564   6.419   5.280  14.403  0.2719  0.0588  0.2065
19358TIP3    H179565   6.451   5.334  14.475  1.5031 -0.9211  0.4363
19358TIP3    H279566   6.492   5.279  14.341 -0.2927 -0.1566 -0.4652
19359TIP3   OH279567   1.802   0.045  17.020  0.0202 -0.9164  0.0327
19359TIP3    H179568   1.871   0.046  17.086 -0.1496  1.4708  0.2781
19359TIP3    H279569   1.847   0.057  16.937 -0.0017 -0.1559  0.1181
19360TIP3   OH279570   1.017   2.088  14.005 -0.0219 -0.3570 -0.4335
19360TIP3    H179571   1.071   2.049  13.936  0.3396  1.3838 -1.1993
19360TIP3    H279572   1.003   2.017  14.068  1.6069 -1.3663 -1.1347
19361TIP3   OH279573   0.300   3.099  12.813  0.0150  0.3485 -0.3359
19361TIP3    H179574   0.213   3.139  12.805 -0.0856 -0.1387 -2.0351
19361TIP3    H279575   0.352   3.165  12.859 -0.0854  2.6614 -3.2022
19362TIP3   OH279576   5.260   5.989  12.849 -0.9206  0.1993  0.2683
19362TIP3    H179577   5.176   6.024  12.819 -1.0716 -0.5184 -0.1833
19362TIP3    H279578   5.248   5.894  12.850 -0.0425  0.0703 -0.0349
19363TIP3   OH279579   2.874   4.656  10.808  0.6329  0.6814  0.5826
19363TIP3    H179580   2.898   4.580  10.754  3.3294  0.5830  1.7562
19363TIP3    H279581   2.813   4.705  10.753  2.0336 -0.2060 -1.9791
19364TIP3   OH279582   0.318   4.457  12.474  0.1410 -0.8224 -0.3087
19364TIP3    H179583   0.275   4.419  12.397  1.2093 -1.5603 -0.5588
19364TIP3    H279584   0.378   4.522  12.438 -0.5509  0.0264  0.0276
19365TIP3   OH279585   1.492   4.079   3.078 -0.3200  0.1134 -0.4453
19365TIP3    H179586   1.396   4.081   3.082 -0.3235 -0.5202 -0.0953
19365TIP3    H279587   1.519   4.163   3.117 -0.7055 -0.4378  1.1021
19366TIP3   OH279588   0.222   5.716  15.924  0.7366  0.1369  0.2217
19366TIP3    H179589   0.169   5.767  15.985 -0.5883  0.7744 -1.3678
19366TIP3    H279590   0.306   5.761  15.920  0.5378  0.5790  0.9294
19367TIP3   OH279591   3.238   3.039   0.322 -0.6615  0.4136  0.7951
19367TIP3    H179592   3.328   3.008   0.333 -1.1432 -1.5422 -0.2548
19367TIP3    H279593   3.238   3.127   0.358  1.4311  0.0791  1.7450
19368TIP3   OH279594   5.056   1.227   2.517  0.2960  0.0809 -0.0263
19368TIP3    H179595   5.087   1.182   2.438  0.3275 -1.7034  0.9313
19368TIP3    H279596   4.978   1.178   2.543 -1.8527  2.7954 -0.8368
19369TIP3   OH279597   5.611   5.141  11.752 -0.2853  0.0190 -0.3560
19369TIP3    H179598   5.550   5.183  11.691 -0.5206 -0.8686 -0.7568
19369TIP3    H279599   5.697   5.152  11.712 -0.3543  0.0675 -0.4929
19370TIP3   OH279600   4.713   6.051   0.647  0.7226  0.2961  0.3881
19370TIP3    H179601   4.618   6.046   0.656  0.7658 -1.1834  0.1868
19370TIP3    H279602   4.740   6.118   0.710 -0.4091  0.4498  0.7230
19371TIP3   OH279603   6.113   5.128   5.505 -0.3652  0.1853  0.2878
19371TIP3    H179604   6.169   5.051   5.505 -0.1727  0.3227 -0.3751
19371TIP3    H279605   6.155   5.189   5.445  0.4088  1.5077  2.0824
19372TIP3   OH279606   0.306   4.595   0.572 -0.3766  1.3475  0.0815
19372TIP3    H179607   0.293   4.527   0.638  0.1460  2.5738  1.5213
19372TIP3    H279608   0.363   4.555   0.507  0.5768  0.6343  1.3047
19373TIP3   OH279609   5.903   4.547  15.820  0.0503  0.9740 -0.9932
19373TIP3    H179610   5.846   4.488  15.868 -0.1303  2.5220  0.8326
19373TIP3    H279611   5.846   4.619  15.793  0.3744  0.6471 -2.6487
19374TIP3   OH279612   6.730   5.640  14.882  0.7134  0.4388 -0.1871
19374TIP3    H179613   6.772   5.656  14.967  0.3776  1.5811 -0.2252
19374TIP3    H279614   6.655   5.584  14.903  0.7433  0.5557  0.2464
19375TIP3   OH279615   4.690   1.458   5.326  0.2315  0.0800 -0.1219
19375TIP3    H179616   4.767   1.406   5.350  0.4541  0.1048 -0.7470
19375TIP3    H279617   4.677   1.517   5.400  0.7652  0.0173  0.0306
19376TIP3   OH279618   6.207   6.371  15.533 -0.2080  0.3167 -0.2959
19376TIP3    H179619   6.112   6.355  15.532 -0.3065  0.8603 -0.3732
19376TIP3    H279620   6.236   6.339  15.619 -0.2142 -1.1421 -0.8223
19377TIP3   OH279621   4.684   6.234   2.189  0.1225  0.2216 -0.1940
19377TIP3    H179622   4.595   6.202   2.177 -0.0775  0.9917 -0.8856
19377TIP3    H279623   4.676   6.330   2.192  0.9970  0.3580 -1.1696
19378TIP3   OH279624   4.074   4.964   4.330  0.2376 -0.0101 -0.0825
19378TIP3    H179625   4.129   4.967   4.252  1.1607  0.6668  0.5788
19378TIP3    H279626   4.018   5.042   4.323  1.6571  1.1402  0.8634
19379TIP3   OH279627   1.350   5.621   2.224  0.2182 -0.1609 -0.5173
19379TIP3    H179628   1.442   5.595   2.222  0.0167 -0.8401 -1.3782
19379TIP3    H279629   1.309   5.561   2.285  0.1185 -0.6500 -1.0597
19380TIP3   OH279630   6.419   1.376   5.992 -0.2403  0.1390  0.2521
19380TIP3    H179631   6.330   1.364   5.959  0.0134 -1.2996  0.0083
19380TIP3    H279632   6.416   1.459   6.040 -1.2804  0.9829 -1.1626
19381TIP3   OH279633   4.607   1.353  11.372  0.2482 -0.0452 -0.3466
19381TIP3    H179634   4.685   1.377  11.422  0.3812 -0.1075 -0.5215
19381TIP3    H279635   4.641   1.308  11.295 -0.0184 -1.4686  0.3364
19382TIP3   OH279636   5.218   2.005  10.913  0.3027  0.2429  0.3087
19382TIP3    H179637   5.247   2.095  10.929  2.2120 -0.1426 -0.6112
19382TIP3    H279638   5.193   2.004  10.821  0.7101 -0.2466  0.1967
19383TIP3   OH279639   1.640   0.460  16.415  0.8144  0.2006  0.2765
19383TIP3    H179640   1.584   0.405  16.361  0.1506  1.1092  0.0265
19383TIP3    H279641   1.613   0.549  16.396  1.0623  0.5747  1.5661
19384TIP3   OH279642   3.697   6.743  16.577 -0.1073  0.2383 -0.4201
19384TIP3    H179643   3.766   6.718  16.638 -0.8609 -3.4479 -0.8007
19384TIP3    H279644   3.743   6.758  16.494  0.3898 -2.5216 -0.7574
19385TIP3   OH279645   2.994   1.784   2.252  0.3295 -0.4862  0.4360
19385TIP3    H179646   3.054   1.801   2.179 -1.2882 -3.2415 -1.7330
19385TIP3    H279647   2.948   1.867   2.265  0.3761  0.0150 -2.0318
19386TIP3   OH279648   1.840   1.069  11.008 -0.1164  0.2087 -0.0988
19386TIP3    H179649   1.815   1.153  10.968  0.0997  0.0685 -0.5305
19386TIP3    H279650   1.893   1.026  10.942  0.3678  0.0362  0.3977
19387TIP3   OH279651   0.712   3.948   2.072 -0.0535  0.0157 -0.5485
19387TIP3    H179652   0.720   4.038   2.103 -0.3191 -0.2264  0.2624
19387TIP3    H279653   0.797   3.928   2.033  0.8733 -0.1823  1.4655
19388TIP3   OH279654   2.212   5.002   4.109  0.0209 -0.0736  0.1753
19388TIP3    H179655   2.236   5.011   4.201 -0.4973  0.7561  0.2399
19388TIP3    H279656   2.128   5.046   4.102  1.2126  2.1607 -1.1962
19389TIP3   OH279657   4.929   5.489  15.669 -0.0305  0.0526  0.1625
19389TIP3    H179658   4.952   5.567  15.617 -2.1628  0.0147 -0.9213
19389TIP3    H279659   4.954   5.415  15.613 -1.3567  0.0061 -0.3950
19390TIP3   OH279660   6.224   3.120   3.846  0.6181  0.1390 -0.0288
19390TIP3    H179661   6.138   3.084   3.826  0.4823  0.3486  0.1638
19390TIP3    H279662   6.235   3.105   3.940  1.2153 -0.7735 -0.2351
19391TIP3   OH279663   5.126   1.125  16.514  0.1199 -0.2313 -0.1662
19391TIP3    H179664   5.039   1.146  16.480 -0.5296 -1.1310  0.8565
19391TIP3    H279665   5.185   1.184  16.467 -1.1113  0.8437 -0.4401
19392TIP3   OH279666   2.627   5.241   2.892  0.3967  0.8540 -0.3192
19392TIP3    H179667   2.722   5.236   2.893  0.3697 -0.4218 -1.2155
19392TIP3    H279668   2.603   5.213   2.804 -0.8082  1.3819 -0.1810
19393TIP3   OH279669   2.574   5.910  15.241 -0.5753  0.1012  0.4049
19393TIP3    H179670   2.560   5.910  15.146  2.8074  2.8928 -0.3162
19393TIP3    H279671   2.507   5.968  15.276 -1.0050  0.1448 -0.4719
19394TIP3   OH279672   1.712   6.270   4.263 -0.1037  0.6205  0.0291
19394TIP3    H179673   1.724   6.300   4.353  0.6866 -0.1619  0.2073
19394TIP3    H279674   1.768   6.327   4.211 -0.2847  0.8471  0.0831
19395TIP3   OH279675   0.904   5.149  13.695 -0.1416  0.5360  0.7342
19395TIP3    H179676   0.886   5.135  13.602  0.1928 -1.2667  0.9104
19395TIP3    H279677   0.818   5.157  13.736 -0.2851  1.6738  0.2468
19396TIP3   OH279678   0.267   0.212  10.614 -0.4771  0.1326  0.5162
19396TIP3    H179679   0.309   0.173  10.538  0.2467 -0.5986  1.2741
19396TIP3    H279680   0.260   0.305  10.593  1.9564  0.3728  0.5457
19397TIP3   OH279681   4.341   2.622   3.664 -0.5343  0.1190 -0.2613
19397TIP3    H179682   4.312   2.645   3.576 -0.2210 -1.1253 -0.7095
19397TIP3    H279683   4.262   2.624   3.718 -1.2338 -1.6691 -1.1332
19398TIP3   OH279684   1.530   3.893  15.139 -0.5282 -0.5740 -0.4777
19398TIP3    H179685   1.549   3.986  15.149  0.0982 -0.3734 -3.0248
19398TIP3    H279686   1.553   3.855  15.224  0.4026  1.3910  0.2107
19399TIP3   OH279687   2.167   3.871   4.068 -0.0452  0.2007 -0.2162
19399TIP3    H179688   2.144   3.778   4.072 -1.3052  0.4664 -0.8753
19399TIP3    H279689   2.087   3.917   4.094  0.0893  1.1251 -1.3701
19400TIP3   OH279690   5.843   0.092  14.082  0.1804  0.1489 -0.2657
19400TIP3    H179691   5.858   0.000  14.107 -0.5645 -0.0015 -0.3701
19400TIP3    H279692   5.795   0.088  14.000 -0.5149  0.6217  0.1028
19401TIP3   OH279693   1.367   4.727  14.145 -0.0048  0.3653  0.5651
19401TIP3    H179694   1.376   4.804  14.201 -0.6299 -0.6869  2.1930
19401TIP3    H279695   1.279   4.735  14.108 -0.2799  0.1808  1.1635
19402TIP3   OH279696   2.730   0.179  11.632  0.0603  0.3826  0.0515
19402TIP3    H179697   2.813   0.193  11.678  0.1992 -1.3325  0.4107
19402TIP3    H279698   2.676   0.130  11.694 -0.3127 -0.6266 -1.0306
19403TIP3   OH279699   6.141   2.351  12.006 -0.1845  0.1235  0.0559
19403TIP3    H179700   6.222   2.323  12.049  1.4335  3.5841 -0.4228
19403TIP3    H279701   6.079   2.364  12.078  0.1897 -0.9030  0.5944
19404TIP3   OH279702   4.573   5.356   0.875  0.0692  0.3166 -0.1430
19404TIP3    H179703   4.625   5.433   0.851 -0.4874  1.2652  1.5324
19404TIP3    H279704   4.508   5.349   0.805  1.1553  0.3423 -1.1821
19405TIP3   OH279705   3.031   4.659  14.171 -0.0588  0.1915 -0.1484
19405TIP3    H179706   3.098   4.626  14.230 -0.6280 -1.0983 -0.1805
19405TIP3    H279707   3.040   4.754  14.174  0.0455  0.1521  1.8604
19406TIP3   OH279708   0.419   6.498   4.032 -0.1928 -0.5800  0.3593
19406TIP3    H179709   0.399   6.548   4.111 -0.1359  0.5405 -0.3092
19406TIP3    H279710   0.492   6.441   4.057  1.1971  1.2091  0.6072
19407TIP3   OH279711   0.520   5.618   0.473  0.3629 -0.6952  0.1434
19407TIP3    H179712   0.456   5.557   0.436  1.6033 -1.7148 -0.3912
19407TIP3    H279713   0.481   5.704   0.460 -0.7532 -1.2718 -0.4579
19408TIP3   OH279714   2.649   4.083  11.805  0.1024 -0.0869 -0.4750
19408TIP3    H179715   2.584   4.030  11.853  0.5070 -0.3933 -0.2628
19408TIP3    H279716   2.652   4.166  11.854  1.7554 -1.0090  1.0761
19409TIP3   OH279717   4.136   4.318   0.053  0.3544 -0.3866 -0.5320
19409TIP3    H179718   4.200   4.370   0.102  0.6581  0.0560 -1.3826
19409TIP3    H279719   4.188   4.255   0.004 -0.0525 -2.2786  1.2935
19410TIP3   OH279720   0.720   4.244   0.484  0.2912  0.1216 -0.1455
19410TIP3    H179721   0.786   4.246   0.553 -0.1742  0.4075  0.2899
19410TIP3    H279722   0.740   4.320   0.430 -0.0198  0.5190  0.2994
19411TIP3   OH279723   4.056   2.782   5.720  0.7302  0.4899  0.1278
19411TIP3    H179724   4.101   2.867   5.714 -0.9266  1.5733  1.9034
19411TIP3    H279725   3.964   2.802   5.704  0.1242 -0.7371  1.7666
19412TIP3   OH279726   0.026   1.485   5.285 -0.2729 -0.5829 -0.3618
19412TIP3    H179727  -0.035   1.511   5.354  0.6612  0.6274  0.0655
19412TIP3    H279728   0.059   1.400   5.312  0.3499  0.0387  0.9008
19413TIP3   OH279729   0.856   6.295   5.599  0.5803 -0.3918 -0.2931
19413TIP3    H179730   0.903   6.216   5.622 -0.4582 -0.5679  1.3867
19413TIP3    H279731   0.806   6.271   5.520  0.8630 -1.1689 -0.2428
19414TIP3   OH279732   4.371   4.865  13.963  0.0881  0.4256  0.1753
19414TIP3    H179733   4.379   4.957  13.987 -2.2487  0.1038  2.8030
19414TIP3    H279734   4.404   4.818  14.039 -2.5124 -0.7698  0.6895
19415TIP3   OH279735   6.273   6.490  11.216 -0.5504 -0.1202 -0.8025
19415TIP3    H179736   6.362   6.456  11.210  0.1891  1.8784 -2.0604
19415TIP3    H279737   6.247   6.506  11.125 -1.1781  1.7696 -0.3258
19416TIP3   OH279738   2.589   6.682  13.886 -0.5304  0.3824  0.4933
19416TIP3    H179739   2.660   6.746  13.889  1.0454 -0.9603 -3.1091
19416TIP3    H279740   2.509   6.735  13.886  0.6212  2.2054  0.0017
19417TIP3   OH279741   1.002   3.120   3.606  1.1074  0.3013  0.3760
19417TIP3    H179742   1.007   3.040   3.659  3.0635 -0.2760 -0.5776
19417TIP3    H279743   0.913   3.119   3.571  0.2291 -0.0353  2.4591
19418TIP3   OH279744   0.732   1.742   4.562 -0.8606 -0.1065 -0.2299
19418TIP3    H179745   0.642   1.716   4.543 -0.7896  0.2388 -1.0410
19418TIP3    H279746   0.772   1.759   4.477 -0.3112  0.6914  0.1691
19419TIP3   OH279747   0.391   5.761   0.705 -0.4309  0.5444  0.3325
19419TIP3    H179748   0.358   5.675   0.680 -0.4511  0.9038 -0.9914
19419TIP3    H279749   0.487   5.753   0.699 -0.4422  0.6861 -0.0884
19420TIP3   OH279750   4.892   6.686  11.561  0.0037  0.1256 -0.0082
19420TIP3    H179751   4.877   6.659  11.470 -0.0011  1.2848 -0.3622
19420TIP3    H279752   4.884   6.605  11.611 -0.2183 -0.4948 -1.0147
19421TIP3   OH279753   0.869   5.265  12.247  0.1330 -0.3094  0.2477
19421TIP3    H179754   0.944   5.323  12.232 -0.2363  0.0903 -0.0725
19421TIP3    H279755   0.850   5.275  12.340 -0.8559  1.2411 -0.0844
19422TIP3   OH279756   5.132   4.007   3.677 -0.3776  0.7616  0.4910
19422TIP3    H179757   5.093   3.938   3.624  0.8019  1.6326 -1.6671
19422TIP3    H279758   5.088   4.002   3.761 -0.7078 -2.2172  0.2193
19423TIP3   OH279759   5.793   3.046   2.935 -0.5569  0.6344 -0.5191
19423TIP3    H179760   5.703   3.036   2.906 -0.9905  1.2936  0.5163
19423TIP3    H279761   5.805   3.141   2.946 -0.3741  0.4627  1.1629
19424TIP3   OH279762   6.201   0.531   0.756 -0.0821  0.6413  0.0847
19424TIP3    H179763   6.107   0.518   0.742  0.2737 -0.2671 -1.8222
19424TIP3    H279764   6.227   0.590   0.686  0.5498  2.0034  1.4347
19425TIP3   OH279765   1.676   2.069   5.221  0.4864 -0.3320 -0.4088
19425TIP3    H179766   1.672   2.049   5.127  0.4831 -1.2833 -0.2119
19425TIP3    H279767   1.746   2.014   5.254 -0.9686 -1.6714  0.5545
19426TIP3   OH279768   4.500   2.453   5.569  0.4126  0.6167  0.1116
19426TIP3    H179769   4.476   2.457   5.476  1.1436 -0.0817 -0.1143
19426TIP3    H279770   4.590   2.422   5.569 -0.3941 -2.0588  1.1209
19427TIP3   OH279771   0.807   4.447   5.960 -0.1477  0.0295  0.4259
19427TIP3    H179772   0.727   4.442   6.012  0.0028  0.8958  0.7713
19427TIP3    H279773   0.785   4.506   5.887  0.0688 -0.0022  0.3332
19428TIP3   OH279774   0.471   0.403   2.805  0.0774  0.2257 -0.4980
19428TIP3    H179775   0.484   0.496   2.785 -1.0149  0.1140 -1.8589
19428TIP3    H279776   0.475   0.359   2.719 -0.9803 -0.7828 -0.0466
19429TIP3   OH279777   2.034   6.300   1.454 -0.2222  0.2297  0.0473
19429TIP3    H179778   2.014   6.301   1.360 -2.2958  1.7635  0.4404
19429TIP3    H279779   1.952   6.272   1.495  0.0720  1.3845  1.4880
19430TIP3   OH279780   6.149   3.092   5.459  0.6178  0.3308 -0.1484
19430TIP3    H179781   6.181   3.065   5.545  0.0962 -0.6063 -0.2402
19430TIP3    H279782   6.089   3.164   5.477 -1.4354 -1.4458  0.5505
19431TIP3   OH279783   3.211   0.617   5.403  0.7761 -0.0965  0.4259
19431TIP3    H179784   3.199   0.604   5.497 -0.8095  0.2781  0.3055
19431TIP3    H279785   3.129   0.588   5.364  0.5463  1.7823 -0.6380
19432TIP3   OH279786   5.699   0.488  13.749  0.3813  0.0702  0.1317
19432TIP3    H179787   5.707   0.576  13.711 -1.1565  0.3200  0.3035
19432TIP3    H279788   5.784   0.471  13.790 -0.0192  2.4581  2.1555
19433TIP3   OH279789   6.814   6.198   1.510  0.7979 -0.7366 -0.5943
19433TIP3    H179790   6.740   6.259   1.509  1.6218  0.2916 -0.3625
19433TIP3    H279791   6.777   6.116   1.477 -0.4032 -0.2037 -0.6476
19434TIP3   OH279792   4.264   1.960  15.722  0.6245 -0.2022  0.0832
19434TIP3    H179793   4.279   2.047  15.757  1.6735 -0.4097  0.1930
19434TIP3    H279794   4.169   1.952  15.716  0.5157  0.8750  0.2344
19435TIP3   OH279795   1.652   4.066  16.927 -0.2881 -0.5603 -0.5029
19435TIP3    H179796   1.639   4.115  17.008  0.9131 -1.4223  0.2420
19435TIP3    H279797   1.572   4.081  16.877 -1.1631 -0.1840  0.9391
19436TIP3   OH279798   2.770   2.738   5.436 -0.1030  0.1520 -0.1363
19436TIP3    H179799   2.820   2.748   5.356 -0.6437 -1.5165 -0.7139
19436TIP3    H279800   2.679   2.748   5.409 -0.3630 -1.4451  0.0472
19437TIP3   OH279801   0.105   1.804   1.619  0.2011  0.1853  0.9611
19437TIP3    H179802   0.191   1.844   1.613 -0.1262  0.7158 -0.5370
19437TIP3    H279803   0.056   1.861   1.678  1.4035 -1.1857  3.4302
19438TIP3   OH279804   1.822   0.005   1.266  0.9466 -0.0847 -0.5448
19438TIP3    H179805   1.792  -0.081   1.238  2.1081 -0.2698 -1.2756
19438TIP3    H279806   1.759   0.066   1.228 -0.3700 -0.6393  0.6798
19439TIP3   OH279807   6.631   0.434  13.658 -0.3018  0.1610 -0.3709
19439TIP3    H179808   6.708   0.379  13.640 -0.4176  0.6759 -2.6231
19439TIP3    H279809   6.626   0.494  13.584 -2.7251  0.3510 -0.1158
19440TIP3   OH279810   0.543   2.144  13.229  0.4429 -0.3413  0.0417
19440TIP3    H179811   0.555   2.205  13.301 -1.6998 -0.8667  0.9085
19440TIP3    H279812   0.563   2.058  13.267  2.4979 -0.3563 -0.9157
19441TIP3   OH279813   5.586   4.386   5.876  0.4008  0.7884 -0.0225
19441TIP3    H179814   5.616   4.475   5.857  0.2785  0.8411  0.0362
19441TIP3    H279815   5.511   4.372   5.818  2.5175 -0.5398 -2.6852
19442TIP3   OH279816   2.075   0.738   0.257 -0.3648 -0.1162  0.6436
19442TIP3    H179817   2.008   0.709   0.195  0.8265 -0.5720 -0.4678
19442TIP3    H279818   2.102   0.824   0.223  2.3942 -1.6161 -1.3041
19443TIP3   OH279819   5.718   3.410   3.130  0.1787  0.3159  0.4253
19443TIP3    H179820   5.691   3.487   3.180  0.8248  0.3951  0.6494
19443TIP3    H279821   5.667   3.338   3.168 -2.8292  1.0552 -1.7773
19444TIP3   OH279822   4.957   0.934  14.980  0.0499 -0.2489 -0.1819
19444TIP3    H179823   4.975   0.957  15.071  1.2602  2.5923 -1.0252
19444TIP3    H279824   4.998   0.849  14.968 -0.6352 -0.9584  2.0395
19445TIP3   OH279825   2.781   5.103   4.438  0.0781  0.4544 -0.0213
19445TIP3    H179826   2.736   5.157   4.374 -0.3502  0.4914  0.3046
19445TIP3    H279827   2.816   5.030   4.387 -0.6537  0.2398 -0.2326
19446TIP3   OH279828   1.125   2.445   0.970  0.0833  0.5434  0.1606
19446TIP3    H179829   1.063   2.402   0.911  0.9328 -1.6732  0.7691
19446TIP3    H279830   1.081   2.444   1.055  0.3561  0.2739  0.3025
19447TIP3   OH279831   0.791   0.904   1.094  0.2466  0.1508  0.0027
19447TIP3    H179832   0.883   0.889   1.073  0.5890 -0.3937  1.7401
19447TIP3    H279833   0.770   0.838   1.160 -1.4223  0.2316 -0.3754
19448TIP3   OH279834   4.427   2.773  11.475  0.0146 -0.2437  0.1842
19448TIP3    H179835   4.447   2.866  11.481  1.1473 -0.4971  0.5752
19448TIP3    H279836   4.483   2.732  11.540 -1.4897 -1.0704  1.0224
19449TIP3   OH279837   1.932   3.615  14.885  0.4026 -0.1922 -0.7111
19449TIP3    H179838   1.898   3.689  14.935  1.1560 -0.9042  0.9530
19449TIP3    H279839   1.854   3.568  14.855 -0.0755  0.3929 -0.4035
19450TIP3   OH279840   5.987   1.891  12.457  0.3887 -0.0775 -0.5871
19450TIP3    H179841   5.959   1.953  12.525  0.3481 -0.6497 -0.0717
19450TIP3    H279842   6.082   1.904  12.452  0.3183  0.3694 -0.8314
19451TIP3   OH279843   5.069   3.924  17.069 -0.6101  0.0560  0.0392
19451TIP3    H179844   5.092   3.883  17.153  1.3563 -0.8300 -0.8691
19451TIP3    H279845   5.094   3.859  17.003 -0.1569  1.5525 -1.3246
19452TIP3   OH279846   0.225   2.609  12.479  0.6820 -0.0181  0.0177
19452TIP3    H179847   0.266   2.686  12.517  0.0941  0.2044  0.2221
19452TIP3    H279848   0.261   2.603  12.390  1.5879 -0.1802  0.3933
19453TIP3   OH279849   0.248   5.008   4.539 -0.0076 -0.4444  0.1462
19453TIP3    H179850   0.298   5.089   4.529 -1.4699  0.4123 -0.5160
19453TIP3    H279851   0.314   4.939   4.539  1.2333  0.7072  0.2232
19454TIP3   OH279852   3.150   2.248   1.065  0.2906  0.3037  0.0495
19454TIP3    H179853   3.192   2.165   1.040  2.1539  0.6957  1.6648
19454TIP3    H279854   3.102   2.275   0.987  0.2368 -1.9065 -0.7645
19455TIP3   OH279855   4.990   4.001   4.520 -0.6596  0.2883  0.0883
19455TIP3    H179856   4.906   3.955   4.522 -0.5543  0.0435 -0.7491
19455TIP3    H279857   4.984   4.066   4.590 -1.4925  0.1783  0.1221
19456TIP3   OH279858   5.405   2.375   4.738 -0.0267  0.0934  0.0490
19456TIP3    H179859   5.363   2.307   4.685 -0.2320  0.0745  0.2338
19456TIP3    H279860   5.362   2.369   4.823 -0.6203  0.9893 -0.1707
19457TIP3   OH279861   4.829   2.373  12.784  0.1161  0.1591  0.0150
19457TIP3    H179862   4.847   2.280  12.775 -1.9463 -0.1473 -1.9521
19457TIP3    H279863   4.836   2.391  12.878 -0.4940 -2.2234  0.5665
19458TIP3   OH279864   0.954   5.836   0.839 -0.4630 -0.1737 -0.3167
19458TIP3    H179865   0.987   5.823   0.928  0.7158 -1.7378 -0.9354
19458TIP3    H279866   1.003   5.911   0.805 -1.0480  0.5458  0.3873
19459TIP3   OH279867   4.880   2.396   2.915  0.3213 -0.4075  0.3805
19459TIP3    H179868   4.793   2.356   2.918  0.4867 -0.7400  2.1672
19459TIP3    H279869   4.939   2.326   2.943  0.8785  0.4064  1.3118
19460TIP3   OH279870   3.067   4.095   2.964 -0.2472 -0.0727 -0.3704
19460TIP3    H179871   2.997   4.046   2.920  0.7765 -1.5327 -0.4337
19460TIP3    H279872   3.076   4.053   3.049  0.1946  0.4749 -0.1410
19461TIP3   OH279873   0.298   0.510   5.260 -0.5141 -0.1474  0.4630
19461TIP3    H179874   0.350   0.554   5.328  0.0175  0.5749 -0.3857
19461TIP3    H279875   0.309   0.417   5.279  1.6961 -0.0539 -0.0827
19462TIP3   OH279876   6.420   2.214  12.995  0.0950  0.0589 -0.5725
19462TIP3    H179877   6.351   2.153  13.020  1.3729 -0.4909  1.9234
19462TIP3    H279878   6.433   2.199  12.901 -1.3908 -1.6225 -0.5572
19463TIP3   OH279879   6.541   6.163   2.322  0.1676 -0.0403  0.2233
19463TIP3    H179880   6.488   6.217   2.263  0.7380 -0.4014 -0.6279
19463TIP3    H279881   6.485   6.150   2.398 -0.0241  1.6840  0.4226
19464TIP3   OH279882   3.154   2.496  10.867  0.5509  0.0842  0.1477
19464TIP3    H179883   3.122   2.469  10.781  0.2071 -0.0553  0.3186
19464TIP3    H279884   3.077   2.492  10.924  0.7275  0.4011  0.4093
19465TIP3   OH279885   0.631   4.480  13.936 -0.3948 -0.2010  0.5378
19465TIP3    H179886   0.619   4.575  13.936  1.1297  0.0157  0.3819
19465TIP3    H279887   0.724   4.467  13.955 -0.6172 -1.6776  0.7758
19466TIP3   OH279888   6.595   0.135   3.879  1.1625 -0.2530  1.0660
19466TIP3    H179889   6.510   0.095   3.861  0.9989  0.7995 -0.6560
19466TIP3    H279890   6.588   0.167   3.969 -0.1683 -0.4038  1.0328
19467TIP3   OH279891   4.262   0.050   5.623  0.0919  0.5287  0.0217
19467TIP3    H179892   4.206   0.101   5.682 -0.0731  0.3370  0.0311
19467TIP3    H279893   4.344   0.099   5.620  0.1204  0.5071  0.4524
19468TIP3   OH279894   4.782   5.212  11.923 -0.4165  0.0042  0.3875
19468TIP3    H179895   4.819   5.293  11.959 -0.3066  0.7003 -1.2092
19468TIP3    H279896   4.718   5.184  11.989  0.5623  0.5844  1.6355
19469TIP3   OH279897   2.756   4.712  14.247 -0.0506  0.4060  0.2447
19469TIP3    H179898   2.700   4.667  14.311  1.1541 -0.2373  0.8637
19469TIP3    H279899   2.843   4.676  14.261  0.5737  1.5335 -0.5869
19470TIP3   OH279900   5.242   6.169  13.912  0.3981 -0.2428 -0.2503
19470TIP3    H179901   5.220   6.091  13.962 -0.1007 -0.3278 -0.5922
19470TIP3    H279902   5.214   6.149  13.822 -0.9066  0.7864 -0.1094
19471TIP3   OH279903   4.228   0.447   1.513 -0.3591 -0.1151 -0.2342
19471TIP3    H179904   4.257   0.537   1.526 -1.8589  0.9151 -3.0495
19471TIP3    H279905   4.171   0.430   1.587  0.6833  0.8814  0.8503
19472TIP3   OH279906   5.497   1.177  13.684  0.3287  0.2742  0.7047
19472TIP3    H179907   5.473   1.270  13.679 -0.1245  0.1030 -0.7039
19472TIP3    H279908   5.581   1.172  13.638  0.1075 -0.0854  0.3346
19473TIP3   OH279909   6.737   0.485  15.451  0.9997  0.4516  0.0201
19473TIP3    H179910   6.812   0.426  15.461  1.4395  0.9113 -0.5379
19473TIP3    H279911   6.665   0.427  15.425  0.6754 -0.2728  2.3367
19474TIP3   OH279912   3.633   0.888  12.832  0.3162  0.3079 -0.2362
19474TIP3    H179913   3.660   0.806  12.872  0.3996 -0.3978 -1.6875
19474TIP3    H279914   3.538   0.887  12.837  0.3106  0.0483 -0.3901
19475TIP3   OH279915   4.293   3.507   1.804  0.5552  0.6874 -0.0537
19475TIP3    H179916   4.264   3.480   1.716 -0.5337 -2.4003  1.1086
19475TIP3    H279917   4.354   3.439   1.830  2.0156  2.3637  1.0728
19476TIP3   OH279918   6.159   4.233  15.430 -0.8689  0.5793 -0.1016
19476TIP3    H179919   6.243   4.275  15.448 -0.7752  0.5707 -0.5158
19476TIP3    H279920   6.153   4.163  15.495  0.0001 -0.1980 -0.8469
19477TIP3   OH279921   4.749   6.817   0.970 -0.1490 -0.1818 -0.3579
19477TIP3    H179922   4.832   6.771   0.959  1.0170  1.6626  0.3680
19477TIP3    H279923   4.715   6.826   0.881  2.0925  1.9064 -1.1050
19478TIP3   OH279924   6.129   1.816   4.811  0.3125  0.3845  0.3698
19478TIP3    H179925   6.164   1.841   4.897  0.5825 -1.1278  0.7194
19478TIP3    H279926   6.084   1.734   4.827  1.7767 -0.7912 -1.2346
19479TIP3   OH279927   5.129   6.033   2.899  0.2384 -0.3827 -0.1982
19479TIP3    H179928   5.047   6.060   2.857  0.7190  1.2748 -0.1360
19479TIP3    H279929   5.122   6.064   2.989  1.0464  0.0687 -0.2773
19480TIP3   OH279930   3.901   3.872   3.155 -0.7743 -0.1151  0.3127
19480TIP3    H179931   3.994   3.894   3.159 -0.8798  0.3684  0.1091
19480TIP3    H279932   3.896   3.802   3.091 -0.5677 -0.0599  0.2355
19481TIP3   OH279933   4.153   2.180   2.354  0.0995  0.2989  0.4218
19481TIP3    H179934   4.096   2.175   2.431 -1.1986 -1.1217 -0.5674
19481TIP3    H279935   4.103   2.233   2.291  0.4633  0.1538  0.0041
19482TIP3   OH279936   5.488   6.596   5.051 -0.2497 -0.1435  0.2969
19482TIP3    H179937   5.408   6.618   5.003  0.7059  1.8160 -0.5330
19482TIP3    H279938   5.479   6.641   5.135 -0.7071 -1.2779  0.8731
19483TIP3   OH279939   6.678   1.137   2.051  0.3935 -0.0247 -0.1389
19483TIP3    H179940   6.662   1.140   2.145 -0.0712  1.1287 -0.2401
19483TIP3    H279941   6.678   1.043   2.030  0.6555 -0.3026  1.0206
19484TIP3   OH279942   0.210   4.208  12.836  0.4670  0.1075  0.3342
19484TIP3    H179943   0.251   4.122  12.844 -0.7086 -0.3591  1.7768
19484TIP3    H279944   0.281   4.270  12.853  1.3826 -0.5403 -0.9927
19485TIP3   OH279945   1.225   2.785  11.221  0.2847 -0.0141 -0.2687
19485TIP3    H179946   1.183   2.808  11.138 -0.4778 -1.1075 -0.2140
19485TIP3    H279947   1.246   2.869  11.262 -1.9907  0.6096 -0.2537
19486TIP3   OH279948   5.419   2.199  13.419 -0.1629  0.1378  0.2985
19486TIP3    H179949   5.338   2.205  13.470  0.7838 -2.3745  2.3347
19486TIP3    H279950   5.395   2.147  13.342 -0.6100 -0.1940  0.6528
19487TIP3   OH279951   3.054   4.550  15.024  0.0970 -0.1692 -0.1287
19487TIP3    H179952   3.099   4.556  15.109 -1.0527  0.6541  0.4572
19487TIP3    H279953   2.962   4.536  15.047 -0.3718  0.9571 -1.2135
19488TIP3   OH279954   6.475   3.977   5.435  0.3076 -0.1881  0.1595
19488TIP3    H179955   6.485   4.072   5.446  0.4249 -0.2425  0.5317
19488TIP3    H279956   6.510   3.960   5.347 -0.1775  0.1785 -0.1114
19489TIP3   OH279957   1.199   2.628   6.776 -0.0947  0.0167 -0.8038
19489TIP3    H179958   1.139   2.629   6.701 -0.2199  2.4487 -0.7271
19489TIP3    H279959   1.188   2.540   6.813 -1.2989 -0.6561 -2.6092
19490TIP3   OH279960   6.451   1.496   4.357 -0.3446  0.0461 -0.1646
19490TIP3    H179961   6.363   1.479   4.324 -0.6379  0.0318  0.6234
19490TIP3    H279962   6.454   1.453   4.443 -0.5004  2.4369  1.0944
19491TIP3   OH279963   6.698   3.713   5.375  0.0708 -0.6486  0.3488
19491TIP3    H179964   6.730   3.755   5.455  0.6991  0.8629 -0.6671
19491TIP3    H279965   6.733   3.765   5.304 -0.0629 -2.2589 -0.9638
19492TIP3   OH279966   4.855   1.122  15.415  0.1403  0.4307  0.3764
19492TIP3    H179967   4.865   1.165  15.500 -0.5430  0.6918  0.3241
19492TIP3    H279968   4.903   1.039  15.425  0.0533  0.4517  1.0211
19493TIP3   OH279969   2.511   3.210  14.551  0.1470 -0.0016 -0.1036
19493TIP3    H179970   2.570   3.195  14.477 -0.0152  0.3876 -0.3160
19493TIP3    H279971   2.483   3.123  14.578  1.4547 -0.2582  0.5215
19494TIP3   OH279972   4.054   1.028  12.510  0.4419 -0.0975 -0.5487
19494TIP3    H179973   4.068   1.103  12.568  0.8890 -0.8703  0.3602
19494TIP3    H279974   4.142   0.994  12.493  0.1246 -2.3504  1.6860
19495TIP3   OH279975   1.297   6.387  12.234  0.1537  0.0835 -0.1473
19495TIP3    H179976   1.369   6.336  12.270 -0.2565 -0.5953 -0.2701
19495TIP3    H279977   1.259   6.331  12.166 -1.6656 -0.3731  1.1814
19496TIP3   OH279978   0.468   2.325   2.713  0.2837 -0.1610 -0.2440
19496TIP3    H179979   0.378   2.297   2.728  0.6261 -1.1036  0.1763
19496TIP3    H279980   0.520   2.270   2.773  1.1661  0.1010 -0.7515
19497TIP3   OH279981   5.704   4.650   0.048  0.8747  0.0559  0.5283
19497TIP3    H179982   5.655   4.576   0.011  2.2106 -0.8883  0.5714
19497TIP3    H279983   5.760   4.610   0.114  2.8187  0.8296 -0.5725
19498TIP3   OH279984   5.956   1.086   1.656 -0.3672  0.3248  0.0926
19498TIP3    H179985   5.974   0.997   1.628  1.4072  0.7883 -0.4044
19498TIP3    H279986   5.874   1.081   1.706 -1.3347 -1.2235 -1.5814
19499TIP3   OH279987   3.431   6.746   2.465  0.5774 -0.3483 -0.0413
19499TIP3    H179988   3.370   6.704   2.404  1.0380 -1.9867  0.5599
19499TIP3    H279989   3.375   6.786   2.531  0.1239 -0.5204 -0.3121
19500TIP3   OH279990   0.355   0.580  15.900  0.3625 -0.0815 -1.1418
19500TIP3    H179991   0.291   0.516  15.931  1.3102  0.2011  1.7537
19500TIP3    H279992   0.322   0.664  15.930  2.6253 -0.0582  1.7868
19501TIP3   OH279993   4.078   6.684  14.908  0.9094  0.0611 -0.4536
19501TIP3    H179994   4.052   6.641  14.826  0.9283  0.0101 -0.4335
19501TIP3    H279995   4.003   6.738  14.932  0.5062 -0.6975  0.0268
19502TIP3   OH279996   3.581   2.439   1.188  0.5229 -0.2789 -0.4526
19502TIP3    H179997   3.500   2.389   1.197 -0.3978  0.7408 -2.3866
19502TIP3    H279998   3.648   2.374   1.170 -0.2286 -0.9854 -0.7359
19503TIP3   OH279999   6.409   0.536  16.585  0.8305  0.1225  0.1810
19503TIP3    H180000   6.497   0.500  16.595  0.6482  0.3095  3.0478
19503TIP3    H280001   6.357   0.493  16.653 -1.2089  0.4170 -1.0929
19504TIP3   OH280002   0.665   3.261  12.225  0.2373 -0.6571  0.5533
19504TIP3    H180003   0.573   3.286  12.230  0.6937  2.0002 -1.7523
19504TIP3    H280004   0.702   3.284  12.310 -0.8988 -0.2947  0.9573
19505TIP3   OH280005   2.094   5.689  14.133 -0.0693 -0.1298 -0.5420
19505TIP3    H180006   2.042   5.609  14.133 -0.1891 -0.0541 -1.0456
19505TIP3    H280007   2.074   5.731  14.216 -0.3138 -0.4196 -0.4528
19506TIP3   OH280008   3.953   5.249  12.637  0.3596 -0.4046  0.0110
19506TIP3    H180009   4.029   5.247  12.579  0.1642 -1.2051 -0.2331
19506TIP3    H280010   3.955   5.336  12.677  1.6835 -0.5998  0.3907
19507TIP3   OH280011   0.739   4.775  16.745 -0.3284  0.5847  0.4676
19507TIP3    H180012   0.658   4.789  16.792 -0.6482 -1.4260  0.6179
19507TIP3    H280013   0.806   4.767  16.813 -0.3168  0.4923  0.4460
19508TIP3   OH280014   3.739   4.400   5.644  0.0396  0.2678 -0.5245
19508TIP3    H180015   3.757   4.338   5.715 -2.1596 -0.2820 -0.3705
19508TIP3    H280016   3.755   4.350   5.564 -1.4232 -0.4397 -0.3992
19509TIP3   OH280017   3.188   4.692  16.565  0.6644 -0.1141  0.0363
19509TIP3    H180018   3.130   4.768  16.556  1.9462  0.8339 -0.4405
19509TIP3    H280019   3.200   4.682  16.660  1.4335  1.0412  0.0786
19510TIP3   OH280020   3.853   5.686  12.922 -0.1383 -0.0918  0.4742
19510TIP3    H180021   3.804   5.734  12.989  0.5099 -0.5759  1.3154
19510TIP3    H280022   3.922   5.746  12.895 -0.5603  0.2036  0.0347
19511TIP3   OH280023   6.218   0.442  13.384  0.0301  0.3747  0.2418
19511TIP3    H180024   6.130   0.429  13.418 -0.1556 -1.1518 -0.7455
19511TIP3    H280025   6.266   0.363  13.410  0.7977  0.6774 -0.2033
19512TIP3   OH280026   1.043   1.941   5.009 -0.7148  0.4986 -0.2147
19512TIP3    H180027   1.025   1.868   5.069 -0.5408  0.5393 -0.1115
19512TIP3    H280028   0.957   1.970   4.980 -0.8558  1.1616  0.8241
19513TIP3   OH280029   0.073   3.661   4.025  0.0585 -0.0772 -0.0456
19513TIP3    H180030  -0.014   3.696   4.044  0.7055  1.3085  0.5392
19513TIP3    H280031   0.082   3.667   3.930  0.0785  1.2465  0.0239
19514TIP3   OH280032   2.067   1.999  13.451 -0.2637  0.5402  0.3039
19514TIP3    H180033   2.119   1.920  13.435  0.9935  1.5410 -0.7954
19514TIP3    H280034   2.014   1.978  13.528 -0.6517 -1.6906 -0.5140
19515TIP3   OH280035   2.421   2.674   4.271 -0.0546 -0.0604 -0.1503
19515TIP3    H180036   2.465   2.634   4.196  0.1395 -0.5626  0.2248
19515TIP3    H280037   2.342   2.714   4.234  1.4442  2.2309 -1.1040
19516TIP3   OH280038   4.404   5.942  11.519 -0.2181 -0.2915 -0.1429
19516TIP3    H180039   4.367   5.925  11.432 -0.8842  0.0751  0.0594
19516TIP3    H280040   4.341   5.901  11.579  0.3776 -0.7756  0.1614
19517TIP3   OH280041   1.767   6.637  15.152 -0.2423  0.5345  0.2038
19517TIP3    H180042   1.766   6.662  15.059 -1.6697  2.7185  0.7237
19517TIP3    H280043   1.677   6.613  15.171  0.1391 -0.3729  0.9489
19518TIP3   OH280044   3.705   5.427   1.341  0.5893  0.0848 -0.2844
19518TIP3    H180045   3.638   5.366   1.371  0.9978 -0.7833 -1.0930
19518TIP3    H280046   3.768   5.432   1.413  0.1540  0.1532  0.0901
19519TIP3   OH280047   6.204   1.082   4.307 -0.1268  0.3927 -0.1521
19519TIP3    H180048   6.285   1.040   4.277  0.4196  0.5607  1.0180
19519TIP3    H280049   6.147   1.009   4.332 -0.7326  0.2345 -1.8687
19520TIP3   OH280050   4.425   4.088  14.807 -0.0482  0.1506 -0.5286
19520TIP3    H180051   4.377   4.032  14.867  0.0737  1.3775  0.7812
19520TIP3    H280052   4.376   4.083  14.725 -2.3522  1.1571  0.6756
19521TIP3   OH280053   3.223   2.948  16.122  0.4095  0.1772 -0.0451
19521TIP3    H180054   3.251   3.034  16.153 -2.2139  1.7846 -1.7265
19521TIP3    H280055   3.303   2.906  16.091  1.8828  1.6537  1.5599
19522TIP3   OH280056   1.374   0.173   4.025 -0.4202 -0.1843  0.1207
19522TIP3    H180057   1.404   0.147   4.112 -1.1996  0.9566  0.7598
19522TIP3    H280058   1.451   0.162   3.969  0.3971  0.0801  1.1634
19523TIP3   OH280059   1.326   0.238   0.143  0.1571  0.9127 -0.0617
19523TIP3    H180060   1.371   0.262   0.062  0.9645  0.4896  0.2547
19523TIP3    H280061   1.369   0.158   0.172  0.9134  1.8624  1.5951
19524TIP3   OH280062   6.448   4.286  15.684  0.5319  0.0888 -0.3748
19524TIP3    H180063   6.473   4.342  15.758 -1.0400 -0.3062  0.4821
19524TIP3    H280064   6.395   4.343  15.628 -3.1501 -0.9888  1.6817
19525TIP3   OH280065   3.394   4.260   5.881 -0.3769  0.2867  0.4555
19525TIP3    H180066   3.470   4.226   5.834 -0.6627 -1.8125  1.4059
19525TIP3    H280067   3.430   4.324   5.942  0.4587  0.2349  0.0361
19526TIP3   OH280068   2.460   2.556  15.832  0.3266  0.3626  0.0331
19526TIP3    H180069   2.555   2.564  15.837  0.1785  1.4170  1.9007
19526TIP3    H280070   2.440   2.477  15.883  0.0702  1.4305  1.6572
19527TIP3   OH280071   1.915   0.353  12.302  1.4957  1.0599 -0.0226
19527TIP3    H180072   2.001   0.315  12.285  0.9236 -0.5315  0.4470
19527TIP3    H280073   1.892   0.323  12.390  0.3541  1.2368 -0.2475
19528TIP3   OH280074   4.224   5.941  14.056 -0.0147 -0.5371 -0.2507
19528TIP3    H180075   4.258   5.987  14.133  0.4002 -1.3739  0.0780
19528TIP3    H280076   4.291   5.874  14.036 -0.0760 -0.2902 -1.3819
19529TIP3   OH280077   1.476   1.457  11.290  0.2363 -0.0251  0.2331
19529TIP3    H180078   1.411   1.405  11.336  0.8841  0.4795  1.8081
19529TIP3    H280079   1.426   1.512  11.231 -0.6055 -0.9417  0.0666
19530TIP3   OH280080   0.326   5.623   5.422  0.2804 -0.3843  0.6693
19530TIP3    H180081   0.317   5.632   5.517 -1.8446  0.3232  0.4633
19530TIP3    H280082   0.246   5.662   5.387  1.2517 -0.1645 -1.4531
19531TIP3   OH280083   5.377   5.642  16.665  0.2921  0.5480 -0.2435
19531TIP3    H180084   5.386   5.578  16.594 -0.6685  1.1926 -0.9815
19531TIP3    H280085   5.433   5.714  16.640 -0.4609  1.0095 -0.6429
19532TIP3   OH280086   5.509   1.941  13.829 -0.3424  0.1240 -0.0386
19532TIP3    H180087   5.590   1.892  13.811 -0.5361 -0.7747  1.4011
19532TIP3    H280088   5.537   2.032  13.832  0.5497 -0.1408  0.0143
19533TIP3   OH280089   6.052   1.970   4.100  0.3165 -0.0509  0.1637
19533TIP3    H180090   6.028   1.880   4.122 -1.6890  0.5244  0.5617
19533TIP3    H280091   6.147   1.974   4.112  0.7573 -2.5968 -1.6937
19534TIP3   OH280092   1.900   1.235  12.334  0.2744 -0.3269  0.1204
19534TIP3    H180093   1.900   1.254  12.427  1.2611 -0.6017  0.1890
19534TIP3    H280094   1.992   1.242  12.308 -0.2362  2.2929 -1.3693
19535TIP3   OH280095   5.216   4.279   3.843  0.2880 -0.7207 -0.0403
19535TIP3    H180096   5.259   4.331   3.910 -1.6378  0.7655  0.1413
19535TIP3    H280097   5.191   4.198   3.887 -0.4312 -0.0087  0.9147
19536TIP3   OH280098   3.648   2.506  12.800 -0.0755  0.4394 -1.0182
19536TIP3    H180099   3.682   2.482  12.886 -3.1823 -0.4008  0.1217
19536TIP3    H280100   3.719   2.554  12.758  1.2520  1.7332  2.3839
19537TIP3   OH280101   6.632   1.384  13.596  0.4141 -0.5485  0.1054
19537TIP3    H180102   6.700   1.351  13.654 -0.9152  0.4189  2.3372
19537TIP3    H280103   6.574   1.310  13.582  0.2995 -0.5727  0.7020
19538TIP3   OH280104   1.503   5.487   4.491  0.9500  0.6499 -0.0900
19538TIP3    H180105   1.446   5.411   4.491 -0.0077  1.3466 -0.3646
19538TIP3    H280106   1.471   5.541   4.419  4.0656 -0.4368 -2.4704
19539TIP3   OH280107   4.732   0.387   1.272  0.0293  0.1608  0.1341
19539TIP3    H180108   4.723   0.439   1.352 -1.4268  0.2012 -0.0271
19539TIP3    H280109   4.684   0.437   1.205 -0.5918 -0.9045 -0.2445
19540TIP3   OH280110   2.365   0.422   0.708 -0.2334  0.6926 -0.0656
19540TIP3    H180111   2.327   0.334   0.710 -2.8284  1.6667 -1.3858
19540TIP3    H280112   2.441   0.415   0.650  0.3824 -0.8929  0.8814
19541TIP3   OH280113   0.824   2.655   6.223 -0.0755 -0.9320  0.1863
19541TIP3    H180114   0.743   2.693   6.257 -0.0356  0.2208 -0.9436
19541TIP3    H280115   0.797   2.571   6.185 -0.7557 -0.5379 -0.2174
19542TIP3   OH280116   0.576   0.135  12.123 -0.2518  0.1110  0.2477
19542TIP3    H180117   0.496   0.148  12.174  1.0066  1.0076  2.0967
19542TIP3    H280118   0.614   0.223  12.116  0.5895 -0.3038 -0.5893
19543TIP3   OH280119   1.302   2.654   1.000 -0.2993 -0.0020 -0.0521
19543TIP3    H180120   1.253   2.719   1.051  0.4539 -0.6553  1.5602
19543TIP3    H280121   1.240   2.581   0.990  0.3257 -0.8950  2.1257
19544TIP3   OH280122   6.060   5.303  13.128 -0.0145  0.5747 -0.2401
19544TIP3    H180123   6.014   5.387  13.122  0.0395  0.5443 -1.3145
19544TIP3    H280124   6.143   5.324  13.169 -1.0181  0.6005  1.9473
19545TIP3   OH280125   0.802   2.461  11.911 -0.5260 -0.1025 -0.5010
19545TIP3    H180126   0.848   2.529  11.960  1.5309 -1.1972 -0.7679
19545TIP3    H280127   0.803   2.492  11.820  0.3355 -0.4056 -0.6097
19546TIP3   OH280128   5.453   4.620  15.879 -0.2096 -0.0970  0.4060
19546TIP3    H180129   5.400   4.599  15.955  0.0491  0.0998  0.6450
19546TIP3    H280130   5.486   4.536  15.848 -0.1495 -0.1563  0.6331
19547TIP3   OH280131   5.804   0.321   4.355  0.9529 -0.0449 -0.0610
19547TIP3    H180132   5.755   0.402   4.367  0.8359 -0.2540  0.9402
19547TIP3    H280133   5.889   0.338   4.396  0.1784 -1.1259  2.1091
19548TIP3   OH280134   6.008   2.304  11.288  1.1292  1.2606  0.1896
19548TIP3    H180135   6.052   2.267  11.211 -0.5470 -2.0611  0.6299
19548TIP3    H280136   5.970   2.386  11.256 -1.3844 -0.9741 -3.4016
19549TIP3   OH280137   5.150   4.747   0.199 -0.0478  0.8307  0.1753
19549TIP3    H180138   5.115   4.693   0.270  0.4045  0.6232  0.2483
19549TIP3    H280139   5.116   4.706   0.119  1.6572 -0.6213  0.1401
19550TIP3   OH280140   5.436   6.273  11.161  0.0488 -0.1539  0.1319
19550TIP3    H180141   5.393   6.197  11.122  1.9712 -1.2136 -0.0340
19550TIP3    H280142   5.469   6.241  11.245  0.3426  0.6812  0.3465
19551TIP3   OH280143   6.535   1.212   0.923  0.3391  0.0968 -0.6027
19551TIP3    H180144   6.493   1.285   0.970  1.2436  1.8595 -2.3864
19551TIP3    H280145   6.476   1.192   0.852  0.5463 -0.2742 -0.6720
19552TIP3   OH280146   0.965   4.551   4.713 -0.4176  0.1257  0.2756
19552TIP3    H180147   0.874   4.570   4.733 -0.4534  0.4188 -0.1587
19552TIP3    H280148   0.967   4.537   4.618 -0.2773 -1.4128  0.4740
19553TIP3   OH280149   6.684   1.063   4.754 -0.0280  0.1740  0.1890
19553TIP3    H180150   6.609   1.005   4.762 -0.2034  0.2855 -0.6218
19553TIP3    H280151   6.760   1.005   4.750 -0.1861  0.0107 -0.4163
19554TIP3   OH280152   2.769   4.077  12.605  0.2620  0.2223  0.1632
19554TIP3    H180153   2.722   3.995  12.593 -0.2129  0.4131  0.6682
19554TIP3    H280154   2.722   4.140  12.550 -0.6385  0.6165  1.3367
19555TIP3   OH280155   1.067   6.584  15.593 -0.0762 -0.8435  0.5267
19555TIP3    H180156   1.071   6.671  15.632  0.8788 -1.1777  1.2077
19555TIP3    H280157   1.119   6.591  15.513 -4.9030  0.8548 -2.9456
19556TIP3   OH280158   1.576   0.791  11.433  0.0780  0.1190  0.0712
19556TIP3    H180159   1.614   0.846  11.364  0.0200 -0.9582 -0.8396
19556TIP3    H280160   1.642   0.723  11.449 -0.7651 -0.8222 -0.3739
19557TIP3   OH280161   6.615   5.250   2.989  0.3467  0.4611 -0.1598
19557TIP3    H180162   6.691   5.308   2.995  0.6199  0.1916 -0.8796
19557TIP3    H280163   6.557   5.293   2.926 -0.4664  1.0523  0.9511
19558TIP3   OH280164   2.964   6.484  11.803  0.0997 -0.0175  0.2212
19558TIP3    H180165   2.988   6.571  11.835  1.3065  0.6070 -2.1982
19558TIP3    H280166   2.872   6.494  11.777 -0.3221 -0.0165  1.6098
19559TIP3   OH280167   5.985   0.344  13.542  0.3323  0.0177 -0.3481
19559TIP3    H180168   5.896   0.349  13.506 -0.5876  0.5595  1.8237
19559TIP3    H280169   5.982   0.269  13.602  0.6364  1.3521  1.4034
19560TIP3   OH280170   1.207   1.794  11.717 -0.0264  0.0595  0.8463
19560TIP3    H180171   1.274   1.774  11.651  0.0629  1.2166  0.5742
19560TIP3    H280172   1.175   1.708  11.744  1.0576 -0.4915  0.4533
19561TIP3   OH280173   0.332   1.888   3.948  0.7174 -0.0604  0.3196
19561TIP3    H180174   0.415   1.841   3.939  0.4374 -0.5989  0.4968
19561TIP3    H280175   0.300   1.862   4.035  1.0368  1.2415  0.8428
19562TIP3   OH280176   0.191   6.500  16.021 -0.8757 -0.3117 -0.2303
19562TIP3    H180177   0.244   6.421  16.009 -0.1859 -0.1451  1.4327
19562TIP3    H280178   0.152   6.489  16.108  2.1140  2.7245  1.7213
19563TIP3   OH280179   2.997   3.144  12.359 -0.2130 -0.4728 -0.3202
19563TIP3    H180180   2.904   3.125  12.374 -0.4218  0.4412 -0.4202
19563TIP3    H280181   3.000   3.237  12.338  0.7944 -0.3581  0.2528
19564TIP3   OH280182   5.623   3.618  12.692 -0.0475 -0.4542 -0.3221
19564TIP3    H180183   5.545   3.667  12.716  1.3565  0.4452  2.9777
19564TIP3    H280184   5.693   3.684  12.690  1.0482 -1.5846 -0.7238
19565TIP3   OH280185   1.714   3.154   5.663 -0.1305 -0.0419  0.4025
19565TIP3    H180186   1.692   3.091   5.731 -0.7689 -1.8304 -1.3694
19565TIP3    H280187   1.786   3.113   5.615  1.8764  2.1900  1.2717
19566TIP3   OH280188   3.598   3.925   4.995  0.5138 -0.4389 -0.0881
19566TIP3    H180189   3.664   3.867   4.959  1.2033  0.3461 -0.1246
19566TIP3    H280190   3.597   3.906   5.089  0.6435 -0.6006 -0.1208
19567TIP3   OH280191   5.882   6.606   1.290  0.0115  0.3512  0.2427
19567TIP3    H180192   5.865   6.552   1.367 -0.8156  0.8654  0.4309
19567TIP3    H280193   5.796   6.621   1.251  0.3633  0.5367 -0.4869
19568TIP3   OH280194   2.411   5.070   4.581  0.5054 -1.0670  0.3956
19568TIP3    H180195   2.372   5.043   4.664  0.3763 -1.1606  0.3060
19568TIP3    H280196   2.479   5.133   4.605  0.2504 -0.8518  0.5456
19569TIP3   OH280197   4.052   4.879  16.489 -0.2383  1.3178  0.1280
19569TIP3    H180198   3.962   4.857  16.463 -0.0478 -0.3347  0.7899
19569TIP3    H280199   4.081   4.943  16.423 -1.3632  0.7366 -0.9700
19570TIP3   OH280200   4.289   1.341   4.876 -0.4395 -0.0214 -0.3310
19570TIP3    H180201   4.227   1.399   4.831  0.6686  0.3475 -1.4392
19570TIP3    H280202   4.325   1.396   4.946 -0.8355 -0.0058 -0.1378
19571TIP3   OH280203   1.391   1.210   0.241 -0.3913 -0.1635 -0.5091
19571TIP3    H180204   1.386   1.166   0.325  1.4090  0.1495 -0.2046
19571TIP3    H280205   1.311   1.183   0.195 -0.7451 -1.4024  0.7669
19572TIP3   OH280206   2.190   4.438   6.230 -0.3618 -0.4839 -0.2550
19572TIP3    H180207   2.175   4.522   6.272  0.0591 -0.7654  0.4818
19572TIP3    H280208   2.134   4.377   6.278  0.8453 -0.9891  0.5689
19573TIP3   OH280209   2.831   6.090  14.203  0.2843  0.5651 -0.2226
19573TIP3    H180210   2.800   6.002  14.185  0.1282  0.5547  0.0738
19573TIP3    H280211   2.863   6.086  14.294 -1.1834  1.1808  0.3565
19574TIP3   OH280212   2.100   3.023   2.831 -0.2758 -0.6741  0.1787
19574TIP3    H180213   2.044   2.945   2.840 -1.6530  0.2042 -0.3467
19574TIP3    H280214   2.083   3.074   2.910  0.7023 -0.9361  0.5700
19575TIP3   OH280215   1.914   3.886   1.134 -0.0564  0.1985  0.6742
19575TIP3    H180216   1.827   3.924   1.146 -0.3048 -0.2543  0.3455
19575TIP3    H280217   1.901   3.792   1.145  0.3749  0.1171  0.5256
19576TIP3   OH280218   1.168   3.746  14.533 -0.0433  0.0937  0.5408
19576TIP3    H180219   1.178   3.807  14.460 -2.8414  0.3305  0.2502
19576TIP3    H280220   1.217   3.668  14.506 -0.5229  0.3983 -1.3377
19577TIP3   OH280221   0.937   0.312   5.914 -0.3298  0.4648 -0.0836
19577TIP3    H180222   0.895   0.230   5.887  1.0058  0.3106 -1.9175
19577TIP3    H280223   0.877   0.381   5.887 -1.2580  0.1429  1.0702
19578TIP3   OH280224   5.209   5.703   2.328  0.0247 -0.0660 -0.5224
19578TIP3    H180225   5.216   5.784   2.277 -0.6042 -0.1054 -0.6806
19578TIP3    H280226   5.214   5.633   2.263 -0.4988 -0.1229 -0.5076
19579TIP3   OH280227   5.684   0.268  16.529  0.3591  0.1520 -0.0946
19579TIP3    H180228   5.680   0.362  16.509  1.5220  0.1118 -0.5534
19579TIP3    H280229   5.719   0.227  16.450  1.5119 -0.4504  0.7026
19580TIP3   OH280230   1.948   3.902   5.246 -0.1800  0.4749 -0.1059
19580TIP3    H180231   1.923   3.869   5.333 -0.1683  2.8129  0.8480
19580TIP3    H280232   2.044   3.898   5.245 -0.2043 -0.1612 -0.2824
19581TIP3   OH280233   3.804   3.436  17.258  0.5779 -0.1602 -0.1832
19581TIP3    H180234   3.853   3.358  17.232 -0.5741 -0.6747 -0.9531
19581TIP3    H280235   3.712   3.409  17.248  0.1489  0.8657  0.8699
19582TIP3   OH280236   0.735   5.133   0.504  0.0536 -0.1439 -0.1250
19582TIP3    H180237   0.720   5.160   0.414 -0.0901 -1.1476 -0.4138
19582TIP3    H280238   0.822   5.094   0.504 -0.8482 -2.3130 -0.3875
19583TIP3   OH280239   4.038   2.683  15.344 -0.2069 -0.0234 -0.2157
19583TIP3    H180240   3.987   2.755  15.382 -0.6009 -1.1299  1.4689
19583TIP3    H280241   4.106   2.665  15.409  0.5259 -0.5115 -1.0973
19584TIP3   OH280242   5.245   2.546   1.679  0.0655  0.0159  0.2746
19584TIP3    H180243   5.261   2.619   1.740 -0.4622  0.6736 -0.3513
19584TIP3    H280244   5.152   2.552   1.658  0.3123  0.0640 -0.9118
19585TIP3   OH280245   5.862   5.813  14.580 -0.1333  0.2512  0.2090
19585TIP3    H180246   5.847   5.823  14.486  2.5601 -0.5395 -0.3732
19585TIP3    H280247   5.889   5.722  14.591 -0.4564  0.3138  1.7892
19586TIP3   OH280248   5.771   3.980  15.965  0.4590  0.3841  0.0569
19586TIP3    H180249   5.726   3.896  15.980  3.8011 -1.1942  2.6938
19586TIP3    H280250   5.795   3.978  15.872 -0.5859 -1.0058 -0.2163
19587TIP3   OH280251   3.390   0.407  12.583  0.3009 -0.0006 -0.3376
19587TIP3    H180252   3.390   0.330  12.527 -1.6753  1.4553 -2.5521
19587TIP3    H280253   3.383   0.481  12.522  0.5971  1.8528  1.7360
19588TIP3   OH280254   0.305   3.332   4.631  0.5854  0.0264 -0.2605
19588TIP3    H180255   0.237   3.273   4.664 -0.0144  0.0789 -1.3601
19588TIP3    H280256   0.331   3.294   4.547  1.6287  0.2402 -0.0466
19589TIP3   OH280257   2.535   0.066   1.685  0.3282  0.5849 -0.2957
19589TIP3    H180258   2.531   0.104   1.773  0.5231  1.3480 -0.6017
19589TIP3    H280259   2.451   0.022   1.673  1.0887 -1.3510  1.0582
19590TIP3   OH280260   5.839   0.380  11.783  0.2653 -0.2570  0.3390
19590TIP3    H180261   5.859   0.341  11.868  0.1367  0.9294  0.9419
19590TIP3    H280262   5.923   0.378  11.736  0.2097 -1.4303  0.2543
19591TIP3   OH280263   3.799   5.846  14.787  0.3635 -0.4464 -0.1572
19591TIP3    H180264   3.889   5.877  14.792 -0.4171  1.8209  1.3411
19591TIP3    H280265   3.789   5.815  14.697  2.3512  0.0658 -0.6080
19592TIP3   OH280266   2.205   5.013   2.605 -0.8560 -0.7958  0.2821
19592TIP3    H180267   2.221   4.989   2.514  3.1844 -1.8413  1.0668
19592TIP3    H280268   2.234   5.104   2.611 -2.1845 -0.3503  0.3747
19593TIP3   OH280269   5.563   1.477   0.963  0.4719  0.4570  0.3777
19593TIP3    H180270   5.600   1.497   0.877 -1.0642  0.9624 -0.2085
19593TIP3    H280271   5.588   1.386   0.980  0.6092  0.2808 -0.7033
19594TIP3   OH280272   3.704   1.425  17.287 -0.4099  0.0879 -0.0660
19594TIP3    H180273   3.608   1.421  17.284 -0.4198  0.5014 -0.2879
19594TIP3    H280274   3.726   1.393  17.375 -0.6787 -1.2535 -0.4595
19595TIP3   OH280275   0.138   6.583   3.197  0.1190  0.0905 -0.9230
19595TIP3    H180276   0.134   6.582   3.101  0.4894 -1.3615 -0.9430
19595TIP3    H280277   0.231   6.599   3.216 -0.2957  2.8065 -0.7389
19596TIP3   OH280278   1.024   5.821  10.595 -0.1809 -0.4998  0.5009
19596TIP3    H180279   1.109   5.778  10.600 -0.0895 -0.3487  0.2666
19596TIP3    H280280   1.000   5.817  10.502 -0.6439 -0.9531  0.6414
19597TIP3   OH280281   3.049   5.249  12.763 -0.2504 -0.5750 -0.2903
19597TIP3    H180282   3.091   5.265  12.847 -0.0522  0.3234 -0.5422
19597TIP3    H280283   2.991   5.174  12.778  0.7147 -1.2159  0.3111
19598TIP3   OH280284   3.787   0.337  14.970  0.0113  0.0830 -0.3305
19598TIP3    H180285   3.728   0.397  15.016 -1.9045 -0.9895 -1.2526
19598TIP3    H280286   3.770   0.354  14.877 -0.2017 -1.5116 -0.6120
19599TIP3   OH280287   0.817   0.379  17.232  0.0702 -0.1954 -0.5566
19599TIP3    H180288   0.845   0.427  17.310 -1.9093 -0.0371  0.1087
19599TIP3    H280289   0.898   0.340  17.198  1.0934  0.2960  1.1645
19600TIP3   OH280290   0.781   4.631  13.652  0.2096 -0.0142  0.1841
19600TIP3    H180291   0.707   4.572  13.639 -0.1716  0.7675 -1.5508
19600TIP3    H280292   0.799   4.627  13.746 -1.4983 -0.8469  0.5214
19601TIP3   OH280293   2.273   4.448  12.593  0.4665 -0.4875  0.4593
19601TIP3    H180294   2.185   4.462  12.558  0.3756  1.8549  1.4583
19601TIP3    H280295   2.260   4.389  12.667 -0.4545  0.6751  1.2599
19602TIP3   OH280296   4.455   3.116  16.748  0.0980 -0.2922  0.2858
19602TIP3    H180297   4.368   3.144  16.775  0.5341  0.8472  0.5455
19602TIP3    H280298   4.440   3.060  16.671 -0.7418  1.4060 -0.8329
19603TIP3   OH280299   4.402   6.660   2.695 -0.8085  0.4505  0.4536
19603TIP3    H180300   4.479   6.703   2.734 -0.8182 -0.0373  1.0180
19603TIP3    H280301   4.383   6.713   2.617 -0.1496  0.8199  0.5291
19604TIP3   OH280302   5.398   3.171  10.979 -0.0249 -0.1498  0.2801
19604TIP3    H180303   5.321   3.141  11.028 -0.7702 -1.4816 -1.5856
19604TIP3    H280304   5.364   3.238  10.920  0.1882 -0.8094 -0.6234
19605TIP3   OH280305   5.569   5.930  10.685  0.1901  0.0853  0.1796
19605TIP3    H180306   5.620   5.849  10.678  0.4067  0.3520 -2.1896
19605TIP3    H280307   5.605   5.975  10.761  0.4927 -1.7319  1.1745
19606TIP3   OH280308   5.644   1.513   0.708 -0.3199  0.2294  0.0805
19606TIP3    H180309   5.722   1.470   0.673  0.1959 -0.1709  1.6310
19606TIP3    H280310   5.622   1.580   0.643  1.3819  0.4154 -0.3545
19607TIP3   OH280311   4.166   2.934  15.990 -0.1469  0.3770  0.0679
19607TIP3    H180312   4.111   2.903  16.063  0.2786 -0.9360 -0.1333
19607TIP3    H280313   4.177   2.856  15.935 -1.1351  1.5158 -1.8555
19608TIP3   OH280314   0.637   0.749   0.892  0.2793 -0.0844 -0.0950
19608TIP3    H180315   0.616   0.823   0.835 -2.2177  0.0697  0.9130
19608TIP3    H280316   0.688   0.787   0.963  0.2792  0.3864 -0.3437
19609TIP3   OH280317   1.836   0.733   1.408 -0.5322  0.4205  0.1565
19609TIP3    H180318   1.833   0.660   1.345  0.9093  0.9826 -0.6001
19609TIP3    H280319   1.848   0.691   1.493 -1.1545 -0.2823 -0.0856
19610TIP3   OH280320   0.844   4.834  14.457 -0.3525 -0.1843  0.5140
19610TIP3    H180321   0.918   4.780  14.431  0.0690 -0.5155  2.3148
19610TIP3    H280322   0.883   4.914  14.491 -0.8335 -0.1700  1.0468
19611TIP3   OH280323   0.100   2.745   1.185 -0.2352 -0.3714 -0.1220
19611TIP3    H180324   0.179   2.737   1.237  0.1016 -2.3123 -0.8561
19611TIP3    H280325   0.058   2.825   1.217  2.6787  1.5062 -0.6701
19612TIP3   OH280326   5.474   0.001  12.908 -0.2577  0.8736 -0.2252
19612TIP3    H180327   5.472  -0.015  13.002  1.3721 -1.3826 -0.4888
19612TIP3    H280328   5.457   0.095  12.899 -4.0702  0.6348  2.0290
19613TIP3   OH280329   1.482   4.342   4.017  0.0678  0.6156  0.4196
19613TIP3    H180330   1.446   4.404   3.954  0.7943  0.6096 -0.0161
19613TIP3    H280331   1.500   4.263   3.965  1.1030  0.7713  0.5263
19614TIP3   OH280332   5.276   2.504   3.869  0.2905 -0.2994  0.1407
19614TIP3    H180333   5.366   2.524   3.846  0.3825 -0.8890 -0.0379
19614TIP3    H280334   5.277   2.410   3.889 -0.4772 -0.5344 -0.8348
19615TIP3   OH280335   5.642   1.763  12.744 -0.3235  0.4684 -0.2710
19615TIP3    H180336   5.556   1.748  12.707 -0.8865 -1.0322  1.5131
19615TIP3    H280337   5.691   1.683  12.726  1.0096  1.5921 -1.9501
19616TIP3   OH280338   2.928   5.672   3.344  0.0008 -0.2918  0.3764
19616TIP3    H180339   2.921   5.763   3.316 -2.8711  0.0177  1.7102
19616TIP3    H280340   2.988   5.632   3.281 -1.1056  1.7868 -2.1976
19617TIP3   OH280341   1.916   2.648   4.940 -0.0404 -0.4238 -0.9837
19617TIP3    H180342   1.904   2.564   4.984 -0.3059 -1.0718 -2.2598
19617TIP3    H280343   1.975   2.697   4.998 -1.5027 -0.6680  0.8062
19618TIP3   OH280344   4.949   1.621   3.962 -0.3830 -0.2388 -0.3269
19618TIP3    H180345   5.014   1.595   3.897 -1.5648 -0.2131 -1.5634
19618TIP3    H280346   4.990   1.602   4.046  1.8654  1.3290 -0.9927
19619TIP3   OH280347   3.135   5.338  13.006  0.4526 -0.5144 -0.6294
19619TIP3    H180348   3.222   5.297  13.011  1.3965  1.0456 -2.6044
19619TIP3    H280349   3.114   5.361  13.096  3.2194  1.1598 -0.2875
19620TIP3   OH280350   3.150   3.043  12.679  0.0012 -0.0040  0.0553
19620TIP3    H180351   3.238   3.068  12.650  0.0969 -0.7367 -0.3276
19620TIP3    H280352   3.144   2.950  12.657 -0.6335 -0.1176  0.6776
19621TIP3   OH280353   5.494   1.734  12.307  0.1982  0.1499 -0.7699
19621TIP3    H180354   5.452   1.727  12.221 -0.1547  0.4966 -0.6329
19621TIP3    H280355   5.433   1.787  12.359  0.2479 -0.3280 -0.2045
19622TIP3   OH280356   2.051   3.587   5.289  0.1250  0.0237  0.3410
19622TIP3    H180357   2.029   3.524   5.358  0.0804  2.1131  2.3640
19622TIP3    H280358   1.971   3.595   5.237  0.0213 -1.2665  0.2604
19623TIP3   OH280359   2.509   4.347   0.431 -0.3145  0.1133 -0.1420
19623TIP3    H180360   2.486   4.336   0.339  2.2014  1.8750 -1.0917
19623TIP3    H280361   2.556   4.267   0.454  0.3797  0.3106 -0.8545
19624TIP3   OH280362   3.758   5.108  11.015  0.3438  0.2956 -0.2687
19624TIP3    H180363   3.802   5.056  10.948 -0.8413 -1.1262  0.0141
19624TIP3    H280364   3.806   5.089  11.096  0.1743 -0.0261 -0.2428
19625TIP3   OH280365   0.309   0.595   0.215 -0.0102 -0.2891 -0.1045
19625TIP3    H180366   0.219   0.564   0.205  0.1547 -0.1407 -2.5878
19625TIP3    H280367   0.338   0.558   0.299 -2.3178 -0.4233  0.6928
19626TIP3   OH280368   4.693   1.374  12.903 -0.0482 -0.4004  0.1830
19626TIP3    H180369   4.775   1.378  12.854  1.0949  0.3864  2.0297
19626TIP3    H280370   4.679   1.281  12.921  1.2846 -0.4501  1.1237
19627TIP3   OH280371   6.780   5.432   2.607  0.2023  0.7277  0.5446
19627TIP3    H180372   6.759   5.391   2.523  3.0795 -0.5652  0.3538
19627TIP3    H280373   6.700   5.423   2.658 -0.4523 -1.9496 -0.7538
19628TIP3   OH280374   0.387   0.571   4.996 -0.3846  0.0315 -0.1728
19628TIP3    H180375   0.352   0.634   4.933 -2.0223 -1.6867 -1.0683
19628TIP3    H280376   0.323   0.569   5.067 -0.4825 -0.8047 -0.2757
19629TIP3   OH280377   5.944   2.537   0.874 -0.2314 -0.0161  0.6622
19629TIP3    H180378   5.964   2.503   0.787 -1.5733 -1.3916  0.8384
19629TIP3    H280379   5.851   2.559   0.870  0.1354  1.8120  1.1905
19630TIP3   OH280380   2.669   5.266  16.892 -0.1724  0.4561  0.0467
19630TIP3    H180381   2.573   5.271  16.886 -0.2665 -1.6800 -1.5059
19630TIP3    H280382   2.700   5.330  16.828 -0.6156 -0.1195 -0.7559
19631TIP3   OH280383   2.896   0.260   3.296  0.2597 -0.2439 -0.5709
19631TIP3    H180384   2.855   0.325   3.352  1.8806  0.7040 -0.4152
19631TIP3    H280385   2.884   0.177   3.342  1.0192  0.4284  0.9122
19632TIP3   OH280386   3.625   2.396   6.126  0.4922 -0.0439 -0.2843
19632TIP3    H180387   3.697   2.392   6.063  0.9018  2.3979 -0.0650
19632TIP3    H280388   3.656   2.456   6.194 -0.5629 -1.3774  1.4677
19633TIP3   OH280389   0.902   6.380  12.088  0.2427  0.1976  0.1791
19633TIP3    H180390   0.904   6.475  12.101 -0.0079  0.6196 -2.3996
19633TIP3    H280391   0.812   6.360  12.064  0.6700 -0.4145 -0.9901
19634TIP3   OH280392   6.628   0.961  17.064 -0.2774 -0.2883 -0.2604
19634TIP3    H180393   6.706   1.005  17.030 -0.3435 -0.6172 -0.8461
19634TIP3    H280394   6.643   0.958  17.159 -0.0329  0.5180 -0.2613
19635TIP3   OH280395   6.143   3.963  15.518 -0.3860 -0.0852  0.1947
19635TIP3    H180396   6.142   3.881  15.468  1.0938  0.9380 -1.6632
19635TIP3    H280397   6.058   4.003  15.501 -0.3433 -0.3093 -0.5717
19636TIP3   OH280398   0.686   1.651   5.304  0.6314 -0.2827 -0.2175
19636TIP3    H180399   0.653   1.741   5.302  2.0593  0.2760 -1.7604
19636TIP3    H280400   0.614   1.598   5.270  0.2038  0.4494 -0.4815
19637TIP3   OH280401   0.952   2.862  14.431 -0.3722 -0.3413  0.1398
19637TIP3    H180402   1.027   2.908  14.393 -0.6905  0.1615  0.1130
19637TIP3    H280403   0.928   2.914  14.508 -0.9062 -0.3057 -0.0475
19638TIP3   OH280404   0.343   4.662   5.182  0.2069 -0.1081  0.4307
19638TIP3    H180405   0.269   4.711   5.148 -0.2551 -0.2198  1.2648
19638TIP3    H280406   0.379   4.617   5.105 -0.3214  0.2822 -0.0515
19639TIP3   OH280407   4.084   2.602   0.830  0.2555  0.2389 -0.1560
19639TIP3    H180408   4.064   2.636   0.743  1.3485 -0.6008 -0.7704
19639TIP3    H280409   4.124   2.516   0.813 -1.4761 -0.9122  1.2844
19640TIP3   OH280410   2.172   6.652  12.297  0.4020 -0.1018 -0.3641
19640TIP3    H180411   2.237   6.588  12.269 -1.3191 -1.5358 -1.2692
19640TIP3    H280412   2.144   6.695  12.216  0.9087  1.2080  0.1329
19641TIP3   OH280413   4.364   4.279   4.100  0.7137  0.0790 -0.2431
19641TIP3    H180414   4.407   4.279   4.185  0.1800 -2.0458  0.0801
19641TIP3    H280415   4.278   4.319   4.116  0.0396 -1.6000  0.5950
19642TIP3   OH280416   0.718   1.994   0.091  0.2999  0.2483  0.2450
19642TIP3    H180417   0.743   1.913   0.046 -2.9282  0.1505 -1.6768
19642TIP3    H280418   0.728   1.973   0.184  2.7391 -1.1350 -0.2146
19643TIP3   OH280419   3.076   1.267  17.057  0.8592 -0.2513 -0.0661
19643TIP3    H180420   3.012   1.254  16.986  0.6588 -0.1994  0.1047
19643TIP3    H280421   3.067   1.359  17.080  1.3701 -0.1120 -0.4014
19644TIP3   OH280422   1.805   5.912  11.902  0.0363  0.5185 -0.2569
19644TIP3    H180423   1.881   5.970  11.910  0.1357  0.2759  0.6892
19644TIP3    H280424   1.733   5.962  11.941  0.1897 -0.1005  0.8561
19645TIP3   OH280425   2.479   3.732  10.670 -0.3339  0.5814  0.3560
19645TIP3    H180426   2.530   3.651  10.680 -2.1373 -0.5219  1.2186
19645TIP3    H280427   2.412   3.710  10.605 -2.0154  0.7201  1.9662
19646TIP3   OH280428   5.287   5.050  11.400 -0.0334  0.3753  0.2629
19646TIP3    H180429   5.250   4.979  11.348 -0.1278  1.0970 -0.6675
19646TIP3    H280430   5.289   5.126  11.341  0.8718  0.9269  0.9681
19647TIP3   OH280431   2.556   6.592  12.019 -0.2342  0.0452  0.2853
19647TIP3    H180432   2.624   6.527  12.004 -0.8468 -0.2994 -1.1798
19647TIP3    H280433   2.575   6.627  12.106  1.4545 -0.4572  0.1551
19648TIP3   OH280434   1.914   5.813  11.630 -0.3552 -0.3134 -0.3665
19648TIP3    H180435   1.848   5.859  11.578  0.9236  1.6843 -0.3679
19648TIP3    H280436   1.897   5.841  11.720 -0.9928 -1.7408 -0.0246
19649TIP3   OH280437   2.416   4.232   0.154  0.6618 -0.3661  0.1963
19649TIP3    H180438   2.391   4.142   0.176  1.0274 -0.3474  0.7167
19649TIP3    H280439   2.512   4.232   0.159  0.6082  0.4075  1.6208
19650TIP3   OH280440   2.896   1.817   4.024 -0.8271  0.8671  0.1686
19650TIP3    H180441   2.954   1.800   3.949  3.1427  4.7578  1.9108
19650TIP3    H280442   2.819   1.859   3.985 -1.4445 -1.9446 -2.0069
19651TIP3   OH280443   3.301   0.378  14.131  0.3335  0.3230 -0.0018
19651TIP3    H180444   3.356   0.362  14.208 -0.2560 -2.3022 -0.0247
19651TIP3    H280445   3.357   0.354  14.057  0.0972  0.5026 -0.2386
19652TIP3   OH280446   6.081   6.801   3.385 -0.4313 -0.5227 -0.5846
19652TIP3    H180447   6.094   6.854   3.463 -1.5087  0.0191 -0.7483
19652TIP3    H280448   6.003   6.838   3.344 -2.0416 -3.0259 -0.0191
19653TIP3   OH280449   3.486   1.433   5.101 -0.0426 -0.5102 -0.7179
19653TIP3    H180450   3.541   1.489   5.155  0.1632 -1.7757  0.4435
19653TIP3    H280451   3.548   1.392   5.040 -0.0466 -0.2123 -0.9235
19654TIP3   OH280452   1.406   3.287  16.692  0.1911  0.0514  0.2881
19654TIP3    H180453   1.387   3.298  16.785 -0.4678 -1.1227  0.3097
19654TIP3    H280454   1.453   3.204  16.686  1.3366  0.7188 -0.3075
19655TIP3   OH280455   1.260   1.672  15.537 -0.1246 -0.3902 -0.0237
19655TIP3    H180456   1.312   1.713  15.468  0.6631 -3.1934 -1.2372
19655TIP3    H280457   1.169   1.688  15.511  0.1367  0.5970 -0.3915
19656TIP3   OH280458   2.813   5.781   4.341 -0.0113  0.0303 -0.1587
19656TIP3    H180459   2.782   5.871   4.337  2.3100  0.9741  1.4220
19656TIP3    H280460   2.878   5.774   4.272 -0.9829 -0.8316 -1.0322
19657TIP3   OH280461   3.633   1.403  16.553  0.1981  0.2752 -0.2801
19657TIP3    H180462   3.691   1.402  16.477 -0.7019  2.4826 -1.0802
19657TIP3    H280463   3.692   1.408  16.629  1.1215 -2.4610 -0.7383
19658TIP3   OH280464   6.177   1.443   4.628  0.2862 -0.0406 -0.3815
19658TIP3    H180465   6.199   1.496   4.704 -0.4002  1.0767 -0.9494
19658TIP3    H280466   6.254   1.386   4.616  0.4294 -0.1960  1.0882
19659TIP3   OH280467   1.128   0.170  14.162 -0.0039  0.3389  0.1017
19659TIP3    H180468   1.114   0.135  14.074  2.3597  0.7360 -0.5030
19659TIP3    H280469   1.108   0.263  14.154 -0.1947  0.2956  0.0832
19660TIP3   OH280470   1.950   4.518  14.201 -0.2425  0.1051 -0.0567
19660TIP3    H180471   1.939   4.505  14.296 -1.2676 -0.1731 -0.2059
19660TIP3    H280472   1.865   4.497  14.164  0.5254 -1.1400 -1.1911
19661TIP3   OH280473   0.361   6.477  14.953  0.0789 -0.0474 -0.4430
19661TIP3    H180474   0.276   6.461  14.993  0.9539 -2.2072  0.6820
19661TIP3    H280475   0.341   6.531  14.876 -2.1415  0.4684  0.4234
19662TIP3   OH280476   3.950   0.917  14.215 -0.5258 -0.1328  0.0176
19662TIP3    H180477   3.923   0.998  14.172 -0.0174  0.3868  0.6438
19662TIP3    H280478   3.943   0.850  14.147 -3.2845 -0.0544  0.0962
19663TIP3   OH280479   1.150   4.950  11.200  0.2653 -0.4455 -0.2257
19663TIP3    H180480   1.122   5.038  11.226  1.5143  0.2184 -1.0015
19663TIP3    H280481   1.242   4.945  11.228 -0.2607 -2.1703  1.3597
19664TIP3   OH280482   2.137   3.186  17.038  0.3600  0.6279 -0.0528
19664TIP3    H180483   2.137   3.279  17.015 -2.4884  1.1363  1.5470
19664TIP3    H280484   2.171   3.184  17.127 -0.5644  0.3133  0.3070
19665TIP3   OH280485   6.590   0.431   0.508  0.3238  0.1857  0.0429
19665TIP3    H180486   6.558   0.410   0.596  1.6272 -0.0383  0.4916
19665TIP3    H280487   6.563   0.356   0.455 -0.6326  0.4066  0.2079
19666TIP3   OH280488   0.848   3.005  12.282 -0.1684  0.5398  0.0865
19666TIP3    H180489   0.886   3.093  12.287 -0.8769  0.8313  0.6214
19666TIP3    H280490   0.839   2.978  12.374  2.1708 -1.0605 -0.0821
19667TIP3   OH280491   2.975   1.536  11.173  0.6780  0.1225 -0.1659
19667TIP3    H180492   2.975   1.446  11.205  0.9984  0.0974 -0.2388
19667TIP3    H280493   3.039   1.537  11.102  0.6492  0.4013 -0.1898
19668TIP3   OH280494   2.564   0.836   0.756 -0.4534  0.1990 -0.6952
19668TIP3    H180495   2.583   0.829   0.849 -1.1118  0.7434 -0.5048
19668TIP3    H280496   2.515   0.918   0.748 -0.3700  0.1809 -1.5252
19669TIP3   OH280497   6.390   4.670   6.011 -0.1623  0.0851 -0.2350
19669TIP3    H180498   6.394   4.766   6.008  1.5243  0.0367 -0.5913
19669TIP3    H280499   6.336   4.646   5.936  0.1502  0.7371 -0.6742
19670TIP3   OH280500   4.004   3.548  16.542  0.4571 -0.3689  0.0435
19670TIP3    H180501   4.097   3.564  16.528  0.1703  0.6493 -0.8494
19670TIP3    H280502   3.972   3.516  16.457 -0.3387  1.0474 -0.2383
19671TIP3   OH280503   1.323   3.603   4.784 -0.1854  0.2428 -0.4663
19671TIP3    H180504   1.405   3.651   4.800 -0.5053  0.4426  0.6132
19671TIP3    H280505   1.344   3.545   4.710  1.2923 -0.5453  0.5141
19672TIP3   OH280506   2.980   3.049  13.652 -0.2686 -0.2673 -0.0180
19672TIP3    H180507   2.976   3.132  13.604  2.3101  1.1020  1.8395
19672TIP3    H280508   2.949   3.071  13.740 -0.4866 -1.5464  0.2495
19673TIP3   OH280509   2.355   2.991   6.743 -0.2343  0.2193  0.0459
19673TIP3    H180510   2.368   3.082   6.716 -1.3266 -0.3704 -2.9056
19673TIP3    H280511   2.261   2.986   6.762 -0.5767 -0.6559 -1.6985
19674TIP3   OH280512   1.973   5.751  16.844 -0.6908  0.0887  0.1634
19674TIP3    H180513   1.978   5.664  16.805  0.3049  0.1476  0.1284
19674TIP3    H280514   1.914   5.740  16.919 -1.3019 -0.3975 -0.3807
19675TIP3   OH280515   1.399   5.513  16.454 -0.4803 -0.3663  0.5419
19675TIP3    H180516   1.458   5.530  16.381 -1.1096 -2.4648 -0.5441
19675TIP3    H280517   1.363   5.599  16.477  1.1996  0.6092 -0.2958
19676TIP3   OH280518   5.023   5.747  11.276 -0.1216  0.4817 -0.2684
19676TIP3    H180519   5.059   5.827  11.238 -0.3534 -0.2916 -2.2995
19676TIP3    H280520   4.936   5.771  11.307 -0.1505  1.0495 -0.7818
19677TIP3   OH280521   6.476   5.679   3.085 -0.0206 -0.2219 -0.1343
19677TIP3    H180522   6.565   5.715   3.088 -0.2984  0.4600  0.2648
19677TIP3    H280523   6.431   5.734   3.021 -0.1706 -0.5350 -0.2969
19678TIP3   OH280524   2.903   6.092   3.002  0.1266 -0.5005 -0.6547
19678TIP3    H180525   2.928   6.171   2.953 -1.0427  0.0407 -0.4236
19678TIP3    H280526   2.971   6.083   3.069  0.6809 -0.1195 -1.1490
19679TIP3   OH280527   0.829   1.630   2.263 -0.0439  0.2203 -0.6501
19679TIP3    H180528   0.785   1.712   2.287  3.2438  1.4740  1.7705
19679TIP3    H280529   0.870   1.649   2.179 -1.3603  0.1418 -1.3333
19680TIP3   OH280530   1.037   2.265  11.640 -0.8227 -0.1509  0.4863
19680TIP3    H180531   1.124   2.286  11.673 -1.0920  1.2280  0.3790
19680TIP3    H280532   0.981   2.337  11.672 -1.3408  0.5937 -1.8955
19681TIP3   OH280533   1.291   1.438   5.685 -0.0721 -0.1348 -0.0485
19681TIP3    H180534   1.253   1.446   5.773 -0.8805 -1.7454 -0.2117
19681TIP3    H280535   1.222   1.396   5.634  0.4145  0.7266 -1.4613
19682TIP3   OH280536   4.280   3.798   0.547  0.4404 -0.0791 -0.4252
19682TIP3    H180537   4.245   3.875   0.593 -0.2624 -1.0168  0.6818
19682TIP3    H280538   4.218   3.728   0.567  0.1525 -0.5791 -2.7807
19683TIP3   OH280539   6.445   0.472  14.753  0.4164  0.1447 -0.0872
19683TIP3    H180540   6.412   0.492  14.841  1.6811  2.7019 -0.1276
19683TIP3    H280541   6.488   0.552  14.724  2.2771 -1.4357 -2.0424
19684TIP3   OH280542   5.323   0.661  15.220 -0.2305  0.2031 -0.2509
19684TIP3    H180543   5.344   0.595  15.153 -1.5125  0.3192 -0.8119
19684TIP3    H280544   5.241   0.629  15.259 -0.2420  0.8649  0.2804
19685TIP3   OH280545   3.437   6.298   5.226 -0.4097 -0.1271 -0.4405
19685TIP3    H180546   3.465   6.360   5.293 -1.0330 -0.1864 -0.1212
19685TIP3    H280547   3.512   6.239   5.215  0.4827  1.1319 -1.3055
19686TIP3   OH280548   1.798   6.246  11.745  0.0460 -0.0761 -0.4138
19686TIP3    H180549   1.738   6.271  11.815  1.0211  1.6776 -0.1386
19686TIP3    H280550   1.744   6.244  11.666 -1.1498 -2.4345  0.3709
19687TIP3   OH280551   1.398   1.949   0.261 -0.0845 -0.2500 -0.1924
19687TIP3    H180552   1.393   1.858   0.233  1.9125 -0.3844 -0.2114
19687TIP3    H280553   1.389   1.945   0.356  0.2983 -0.5065 -0.1640
19688TIP3   OH280554   4.370   1.283  14.144 -0.2205 -0.3286  0.4860
19688TIP3    H180555   4.374   1.303  14.237 -0.9901  0.7970  0.2862
19688TIP3    H280556   4.368   1.368  14.100 -2.8302 -0.7839 -0.4253
19689TIP3   OH280557   2.942   2.364  12.012 -0.1035  0.2968  0.7979
19689TIP3    H180558   2.948   2.269  11.997  2.6023  0.6938 -1.5543
19689TIP3    H280559   3.006   2.381  12.081  1.2940  0.5972 -0.4979
19690TIP3   OH280560   4.059   4.664  16.286  0.7457 -0.2145  0.5105
19690TIP3    H180561   4.104   4.733  16.237  0.8455  0.0582  0.9778
19690TIP3    H280562   4.129   4.608  16.320  0.7677  0.3498  1.4466
19691TIP3   OH280563   0.366   1.567   3.756 -0.4900  0.3462  0.2202
19691TIP3    H180564   0.431   1.627   3.792 -0.2650  0.1534  0.1386
19691TIP3    H280565   0.404   1.537   3.673 -0.4176 -0.2047  0.4448
19692TIP3   OH280566   6.806   2.890   2.455  0.2220  0.0723  0.6793
19692TIP3    H180567   6.888   2.930   2.486  1.3657 -1.5258 -0.1762
19692TIP3    H280568   6.815   2.798   2.477 -2.2664  0.1285  2.4000
19693TIP3   OH280569   5.737   0.245   5.557  0.3455 -0.0360  0.5270
19693TIP3    H180570   5.776   0.281   5.478  1.4564 -2.6251 -0.2193
19693TIP3    H280571   5.643   0.260   5.547  0.7773  4.5120  1.3933
19694TIP3   OH280572   1.956   4.877  13.634  0.8378 -0.0614  0.1261
19694TIP3    H180573   1.886   4.908  13.576 -1.0846  1.3217  2.9864
19694TIP3    H280574   1.980   4.791  13.598 -3.4258 -1.3696 -0.2132
19695TIP3   OH280575   5.809   4.920   1.763 -0.5806 -0.5937  0.0833
19695TIP3    H180576   5.878   4.889   1.705 -1.7090 -1.4168 -0.8768
19695TIP3    H280577   5.853   4.938   1.846  0.8740 -0.4793 -0.6896
19696TIP3   OH280578   1.480   6.487   3.300  0.2396  0.3277 -0.1227
19696TIP3    H180579   1.538   6.560   3.278  0.9825 -0.1786  0.1080
19696TIP3    H280580   1.455   6.450   3.215  0.3643  0.4732 -0.2243
19697TIP3   OH280581   1.060   2.244   3.647 -0.2366 -0.0784  0.2757
19697TIP3    H180582   1.155   2.251   3.635 -0.1737 -0.3675  0.5804
19697TIP3    H280583   1.046   2.265   3.740 -0.4401 -0.3185  0.3002
19698TIP3   OH280584   3.870   0.360  16.700  0.4992  0.5721  0.2994
19698TIP3    H180585   3.786   0.405  16.706  0.4280  0.5949 -0.6866
19698TIP3    H280586   3.931   0.415  16.749 -0.1426  0.3200  1.4114
19699TIP3   OH280587   1.430   5.254  16.992 -0.5896 -0.0040  0.2111
19699TIP3    H180588   1.436   5.328  16.931 -0.6004  0.2357  0.5028
19699TIP3    H280589   1.413   5.293  17.077  0.0468 -0.2980  0.4811
19700TIP3   OH280590   5.159   1.339   0.242 -0.1399 -0.1971 -0.2108
19700TIP3    H180591   5.180   1.363   0.332 -0.7975 -0.2403 -0.0365
19700TIP3    H280592   5.234   1.288   0.212  1.4053  2.1449 -0.6335
19701TIP3   OH280593   3.367   4.583  13.798  0.2640  0.3423 -0.0639
19701TIP3    H180594   3.441   4.557  13.743 -0.3238  1.2460 -1.3384
19701TIP3    H280595   3.324   4.500  13.819  0.7467 -0.0612 -0.6181
19702TIP3   OH280596   2.307   6.230  10.609  0.2247 -0.2065 -0.6584
19702TIP3    H180597   2.256   6.287  10.667  3.2256  2.6301 -0.5354
19702TIP3    H280598   2.371   6.188  10.667  0.1114 -1.2277 -1.2511
19703TIP3   OH280599   1.038   3.382  12.581  0.1396  0.4758 -0.0739
19703TIP3    H180600   1.018   3.306  12.637 -0.0411  1.0135  0.6152
19703TIP3    H280601   1.133   3.385  12.577  0.1472 -0.7504 -1.4733
19704TIP3   OH280602   1.435   2.511  15.339 -0.0144  0.3049 -0.3480
19704TIP3    H180603   1.352   2.558  15.348 -0.6758 -0.5735 -1.4608
19704TIP3    H280604   1.478   2.521  15.423 -1.2757  0.7542  0.2716
19705TIP3   OH280605   4.538   5.314   5.374 -0.0886  0.6647  0.2132
19705TIP3    H180606   4.605   5.381   5.388  0.4388  0.7327 -2.1562
19705TIP3    H280607   4.563   5.242   5.432  2.7342  0.2525 -1.3480
19706TIP3   OH280608   0.262   0.575  14.992 -0.1095 -0.0097 -0.1795
19706TIP3    H180609   0.263   0.480  14.978  1.2392  0.2064 -1.9324
19706TIP3    H280610   0.348   0.595  15.028 -0.9700  0.3883  1.7536
19707TIP3   OH280611   6.679   6.000  13.762 -0.0247  0.1353 -1.0365
19707TIP3    H180612   6.763   6.019  13.722 -0.6444  1.8235 -1.6460
19707TIP3    H280613   6.620   5.982  13.688 -0.5829  0.7004 -0.7459
19708TIP3   OH280614   2.185   0.433  12.610 -0.8086  0.2080 -0.7140
19708TIP3    H180615   2.229   0.360  12.651 -0.2780  0.7378 -0.3259
19708TIP3    H280616   2.235   0.450  12.530 -1.2969 -0.2342 -1.1273
19709TIP3   OH280617   2.479   2.704   5.763  0.6108 -0.3548 -0.3197
19709TIP3    H180618   2.462   2.614   5.789  0.4046 -0.5148 -0.9901
19709TIP3    H280619   2.492   2.700   5.669 -0.0885  0.4104 -0.4653
19710TIP3   OH280620   3.273   6.553   3.424  0.4318 -0.0515  0.0699
19710TIP3    H180621   3.325   6.610   3.480 -0.2742 -0.0961  0.7854
19710TIP3    H280622   3.216   6.506   3.485  0.1489 -0.6171 -0.6261
19711TIP3   OH280623   1.403   0.439  15.560  0.0758  0.4282  0.0913
19711TIP3    H180624   1.355   0.469  15.483 -0.3512 -1.5814 -0.4842
19711TIP3    H280625   1.427   0.348  15.539  1.1736  0.2961  1.7608
19712TIP3   OH280626   5.452   4.240  11.853  0.1668 -0.4259  0.1023
19712TIP3    H180627   5.386   4.308  11.838  0.4879 -0.0091  0.5496
19712TIP3    H280628   5.536   4.284  11.841  0.4585 -1.7147 -3.9476
19713TIP3   OH280629   0.826   0.952   3.875 -0.6563  0.4455 -0.0460
19713TIP3    H180630   0.888   0.964   3.803 -1.0516 -0.5692 -0.5693
19713TIP3    H280631   0.753   0.905   3.836 -1.4748  1.0478  0.7234
19714TIP3   OH280632   3.146   5.005   4.348  0.1741  0.0823  1.2382
19714TIP3    H180633   3.062   4.983   4.307  1.1772 -1.0593 -0.3279
19714TIP3    H280634   3.172   5.087   4.306  0.8335 -0.6883  0.0780
19715TIP3   OH280635   3.472   2.491   2.264 -0.2324  0.3069 -0.1430
19715TIP3    H180636   3.560   2.512   2.231  0.1455  1.8086  1.6004
19715TIP3    H280637   3.419   2.567   2.238 -0.6095  0.1652  0.2181
19716TIP3   OH280638   3.908   2.817  14.316 -0.6472 -0.1166  0.1965
19716TIP3    H180639   3.884   2.728  14.342  0.2279 -0.3986  0.0594
19716TIP3    H280640   3.932   2.861  14.397  2.4322 -1.1023 -0.0892
19717TIP3   OH280641   2.372   5.974   0.992 -0.3107  0.3858 -0.5643
19717TIP3    H180642   2.387   6.065   0.966  0.5371  1.4062  2.9337
19717TIP3    H280643   2.299   5.979   1.054  0.6993 -1.0504  0.8228
19718TIP3   OH280644   2.225   4.881  12.626 -0.1886 -0.0360  0.2580
19718TIP3    H180645   2.150   4.873  12.568 -0.1370  0.2999  0.1461
19718TIP3    H280646   2.254   4.971  12.617  0.6990 -0.3615 -0.2937
19719TIP3   OH280647   6.802   0.615   3.372 -0.3630  0.6295  0.7275
19719TIP3    H180648   6.782   0.538   3.318 -0.4787  1.1891 -0.0355
19719TIP3    H280649   6.891   0.598   3.405  0.7190  1.3731 -1.6200
19720TIP3   OH280650   4.670   5.463  14.338  0.1744 -0.2778 -0.2396
19720TIP3    H180651   4.654   5.456  14.433 -0.1687 -1.1987 -0.3588
19720TIP3    H280652   4.666   5.557  14.321  1.4066  0.0151  0.8539
19721TIP3   OH280653   5.351   0.749  11.731  0.6280 -0.5034 -0.2457
19721TIP3    H180654   5.292   0.798  11.789 -0.0987 -1.0311 -0.5242
19721TIP3    H280655   5.439   0.772  11.762  0.3353  1.1869 -0.5459
19722TIP3   OH280656   5.052   1.974   0.133 -0.2234 -0.0140  0.4736
19722TIP3    H180657   5.016   2.037   0.195 -0.1033 -0.0146  0.5458
19722TIP3    H280658   5.140   1.956   0.166 -0.9781 -1.8057  1.6560
19723TIP3   OH280659   6.621   5.554   3.750  0.2216  0.0780  0.0036
19723TIP3    H180660   6.687   5.610   3.708  1.7767 -0.6582  1.3327
19723TIP3    H280661   6.654   5.543   3.840 -1.8778 -0.1154  0.7940
19724TIP3   OH280662   2.082   5.286   1.119 -0.3538  0.5480  0.2516
19724TIP3    H180663   1.993   5.314   1.140 -0.2943 -0.2211  1.6732
19724TIP3    H280664   2.070   5.206   1.067 -0.5213 -0.1219  1.2830
19725TIP3   OH280665   5.364   4.116  13.420 -0.0242 -0.7603  0.3623
19725TIP3    H180666   5.452   4.155  13.414 -0.2435 -0.0231  1.6253
19725TIP3    H280667   5.324   4.158  13.496 -1.7601 -0.5382 -0.6285
19726TIP3   OH280668   3.872   4.717   1.520 -0.3982  0.2606  0.2825
19726TIP3    H180669   3.842   4.806   1.506  0.3495  0.5689  0.6141
19726TIP3    H280670   3.945   4.705   1.459 -1.4750 -0.6518 -0.8735
19727TIP3   OH280671   0.768   2.186  11.021 -0.1779 -0.1530 -0.7026
19727TIP3    H180672   0.788   2.137  11.100 -0.4837  0.7532 -0.0370
19727TIP3    H280673   0.691   2.239  11.045  0.1546  0.6582 -1.3775
19728TIP3   OH280674   1.898   6.206   1.777  0.5023  0.2923 -0.0916
19728TIP3    H180675   1.915   6.294   1.743  0.0950 -0.0492 -1.2180
19728TIP3    H280676   1.981   6.159   1.766  0.7934  0.5906  0.7378
19729TIP3   OH280677   6.045   5.549   2.350  0.7149 -0.0167 -0.1015
19729TIP3    H180678   5.982   5.607   2.307  0.7824  0.9945  1.0880
19729TIP3    H280679   6.011   5.540   2.439  1.0950 -1.2423 -0.0687
19730TIP3   OH280680   1.731   0.147   2.930 -0.3074 -0.0731  0.2394
19730TIP3    H180681   1.677   0.220   2.898 -1.7438 -0.6565  1.2444
19730TIP3    H280682   1.674   0.070   2.921  0.9499 -0.9877 -0.1829
19731TIP3   OH280683   4.440   6.081   0.662 -0.0320 -0.0348 -0.0122
19731TIP3    H180684   4.389   6.001   0.675  1.0342 -0.9240 -1.1095
19731TIP3    H280685   4.385   6.136   0.606 -0.5646 -0.1854  0.3519
19732TIP3   OH280686   3.927   5.504   1.500  0.4523 -0.5668 -0.4617
19732TIP3    H180687   3.904   5.588   1.461 -0.8292 -0.6888 -0.0227
19732TIP3    H280688   3.958   5.526   1.588 -0.8407 -0.5970  0.0269
19733TIP3   OH280689   2.666   3.220  11.301  0.3861 -0.3866  0.2082
19733TIP3    H180690   2.739   3.266  11.261  1.7819 -1.6280  1.2329
19733TIP3    H280691   2.625   3.172  11.229  1.6447 -1.0290 -0.0934
19734TIP3   OH280692   3.438   0.775   5.961 -0.0950  0.3689  0.1270
19734TIP3    H180693   3.426   0.828   6.040 -0.0957  0.1035  0.3070
19734TIP3    H280694   3.365   0.713   5.962  0.1291  0.1020  0.1300
19735TIP3   OH280695   5.426   0.015  13.181  0.4931 -0.0651  0.4071
19735TIP3    H180696   5.390   0.099  13.151 -1.8272 -0.9586  0.4555
19735TIP3    H280697   5.389   0.005  13.269  0.8161 -1.0948  0.4265
19736TIP3   OH280698   1.006   5.739   4.019 -0.0324 -1.1949 -0.2421
19736TIP3    H180699   0.937   5.737   4.086  0.8407  0.4523  0.7632
19736TIP3    H280700   1.078   5.688   4.057  0.2065 -0.8461 -0.2245
19737TIP3   OH280701   3.889   3.817  13.285 -0.6994 -0.3915 -0.0296
19737TIP3    H180702   3.940   3.881  13.234 -0.3757 -0.2983  0.4110
19737TIP3    H280703   3.869   3.748  13.222  0.8786 -0.9459  0.0388
19738TIP3   OH280704   5.289   4.075  16.538  0.5761  0.5374 -0.0251
19738TIP3    H180705   5.204   4.061  16.579 -0.3689  0.9183 -1.7672
19738TIP3    H280706   5.318   4.160  16.571 -0.4176  1.0891 -0.5389
19739TIP3   OH280707   6.597   4.741  15.986 -0.1068 -0.3030 -0.3661
19739TIP3    H180708   6.523   4.717  15.930 -0.1550 -1.6864  0.2411
19739TIP3    H280709   6.646   4.805  15.935 -1.3454  0.1194 -1.0661
19740TIP3   OH280710   4.399   5.099   2.259  0.0770  0.1480 -0.2568
19740TIP3    H180711   4.357   5.177   2.223  1.4952  2.0580  1.9505
19740TIP3    H280712   4.485   5.096   2.216  0.9880  1.3015  1.3518
19741TIP3   OH280713   6.682   0.028  13.442 -0.0577 -0.2589 -0.4849
19741TIP3    H180714   6.754  -0.023  13.405  0.2250 -0.0336 -0.2452
19741TIP3    H280715   6.605  -0.001  13.393  0.4459  0.7133 -1.9289
19742TIP3   OH280716   5.727   3.209  13.169 -0.3733 -0.0738 -0.3502
19742TIP3    H180717   5.822   3.221  13.167 -0.3235  0.0099  1.3285
19742TIP3    H280718   5.693   3.276  13.109  0.6234 -0.2522 -1.1392
19743TIP3   OH280719   4.126   3.707  12.136  0.6399  0.3776  0.1782
19743TIP3    H180720   4.115   3.763  12.212  1.7636 -0.1924  0.7824
19743TIP3    H280721   4.053   3.645  12.141  0.6376  0.4192  0.7210
19744TIP3   OH280722   1.916   5.666  13.821  0.0015 -0.1206 -0.1974
19744TIP3    H180723   1.939   5.648  13.912 -0.4314  0.2293 -0.0147
19744TIP3    H280724   1.840   5.610  13.805 -2.0557  2.1929  0.7103
19745TIP3   OH280725   6.229   2.101  16.266 -0.0855  0.0207 -0.4395
19745TIP3    H180726   6.323   2.111  16.255 -0.0662 -0.2170 -0.4902
19745TIP3    H280727   6.191   2.172  16.214  0.1038  1.1762  0.9202
19746TIP3   OH280728   1.035   0.394  13.011 -0.1059 -0.2246  0.1089
19746TIP3    H180729   0.989   0.464  12.964  1.0715 -0.7668 -1.9450
19746TIP3    H280730   1.088   0.440  13.076 -1.5274  0.5686  0.7536
19747TIP3   OH280731   1.613   1.534  16.416  0.3464  0.2953  0.7951
19747TIP3    H180732   1.552   1.466  16.447  0.2966  0.6025  1.3743
19747TIP3    H280733   1.650   1.497  16.336 -1.9003  0.8203 -0.5705
19748TIP3   OH280734   4.140   3.112  15.269  0.4189  0.4280 -0.2912
19748TIP3    H180735   4.181   3.040  15.317  0.9248  0.8328 -0.1107
19748TIP3    H280736   4.126   3.077  15.181 -2.2309 -0.9768  0.5841
19749TIP3   OH280737   2.652   1.494   4.685 -0.3611 -0.7345 -0.4504
19749TIP3    H180738   2.641   1.446   4.603  0.5891 -1.6595 -0.0538
19749TIP3    H280739   2.567   1.488   4.728 -0.9245 -0.0860 -1.4358
19750TIP3   OH280740   2.454   3.902  12.107  0.0168  0.3722 -0.3526
19750TIP3    H180741   2.503   3.832  12.064  1.8854  1.1075  0.4675
19750TIP3    H280742   2.421   3.956  12.036  1.1316  0.3214 -0.9299
19751TIP3   OH280743   1.886   1.396   0.910  0.5503 -0.1022  0.3777
19751TIP3    H180744   1.841   1.477   0.885 -0.1148 -0.6681 -0.3119
19751TIP3    H280745   1.979   1.415   0.898  0.3465  0.2624 -0.6923
19752TIP3   OH280746   4.483   2.058   3.112  0.5203  0.0818  0.6634
19752TIP3    H180747   4.439   1.984   3.070 -0.8318  0.7215  0.9016
19752TIP3    H280748   4.413   2.121   3.128  0.9137 -0.1117  3.8975
19753TIP3   OH280749   3.575   1.712  16.429  0.1119 -0.0238  0.3071
19753TIP3    H180750   3.595   1.651  16.358 -1.9547 -2.1216  1.4008
19753TIP3    H280751   3.636   1.688  16.500  0.0056 -0.0961  0.3740
19754TIP3   OH280752   0.902   4.199  11.650  0.3334 -0.3515  0.2525
19754TIP3    H180753   0.833   4.212  11.716 -1.1037 -0.2632 -1.2002
19754TIP3    H280754   0.923   4.106  11.657 -0.4713 -0.5483  0.2307
19755TIP3   OH280755   1.946   2.387   2.587  0.2770  0.4645  0.0466
19755TIP3    H180756   1.997   2.467   2.598  0.4712  0.3935 -0.3276
19755TIP3    H280757   1.920   2.387   2.495  1.9721 -0.9021 -0.4820
19756TIP3   OH280758   1.538   3.098  10.638 -0.1219  0.0956 -0.8154
19756TIP3    H180759   1.569   3.179  10.679 -1.1430 -0.2496  0.7513
19756TIP3    H280760   1.614   3.064  10.591  1.0504  0.7071  0.5575
19757TIP3   OH280761   6.555   4.999   1.824 -0.2056 -0.0410  0.2559
19757TIP3    H180762   6.629   4.980   1.882 -0.2349 -1.3120 -0.0987
19757TIP3    H280763   6.523   5.084   1.854  0.8995  0.1603  0.9297
19758TIP3   OH280764   1.654   6.420  12.509 -0.4976 -0.5276  0.1290
19758TIP3    H180765   1.690   6.366  12.579 -0.8896  0.8338  1.4388
19758TIP3    H280766   1.680   6.510  12.532 -1.6947  0.0858 -0.7927
19759TIP3   OH280767   2.329   6.319  14.332 -0.5243  0.1751  0.0058
19759TIP3    H180768   2.414   6.312  14.289  0.5483  1.1577  1.8744
19759TIP3    H280769   2.296   6.405  14.306  0.2605  0.8968  1.3276
19760TIP3   OH280770   4.165   2.155   4.437  0.1421 -0.0369 -0.3650
19760TIP3    H180771   4.218   2.102   4.378  0.9739 -0.5964  0.8406
19760TIP3    H280772   4.081   2.165   4.391 -0.0915 -2.4801 -0.6183
19761TIP3   OH280773   4.362   4.020  11.312  1.3436  0.2413 -0.0148
19761TIP3    H180774   4.437   4.025  11.253  3.6072 -1.9038  2.4326
19761TIP3    H280775   4.324   4.108  11.309  2.8742  0.9471 -2.5920
19762TIP3   OH280776   0.462   2.806  14.422  0.0951 -0.3670  0.2137
19762TIP3    H180777   0.523   2.810  14.348  0.6226  0.8945  0.6864
19762TIP3    H280778   0.516   2.827  14.499 -0.8600  0.5188  0.6769
19763TIP3   OH280779   4.555   3.928  14.233 -0.1902  0.0555 -0.4219
19763TIP3    H180780   4.611   3.896  14.304  1.4998 -0.7227 -2.0231
19763TIP3    H280781   4.540   3.851  14.178 -2.0997  0.4775 -0.5310
19764TIP3   OH280782   1.854   4.822  11.483 -0.1663 -0.5009  0.4764
19764TIP3    H180783   1.903   4.902  11.467  1.2732 -1.5011 -0.3774
19764TIP3    H280784   1.893   4.757  11.425 -1.3402 -1.8199  1.0716
19765TIP3   OH280785   4.763   1.275   1.216 -0.5109  0.2030 -0.4486
19765TIP3    H180786   4.778   1.331   1.140  0.5285  0.6675  0.0763
19765TIP3    H280787   4.736   1.335   1.286 -0.0592 -0.0305 -0.0668
19766TIP3   OH280788   3.347   1.720   5.034 -0.3481  0.2852  0.6500
19766TIP3    H180789   3.390   1.802   5.011 -0.6842  0.3641  0.2721
19766TIP3    H280790   3.404   1.652   5.000 -0.5907  0.3924  0.0151
19767TIP3   OH280791   3.364   4.534  15.565 -0.3711 -0.3522 -0.2731
19767TIP3    H180792   3.458   4.517  15.568 -0.3356 -0.0510  0.5474
19767TIP3    H280793   3.323   4.451  15.585 -0.2882 -0.5008 -0.7013
19768TIP3   OH280794   6.015   1.143  12.468 -0.4828  0.6003 -0.2402
19768TIP3    H180795   5.955   1.213  12.441  0.3617  2.5729  2.5025
19768TIP3    H280796   6.098   1.164  12.425 -1.2551 -1.3540 -2.9353
19769TIP3   OH280797   4.444   3.121  16.017  0.2273  0.5647 -0.5998
19769TIP3    H180798   4.509   3.172  16.065 -0.4742  0.9837 -0.0749
19769TIP3    H280799   4.403   3.066  16.084  1.4861 -1.2671 -1.2759
19770TIP3   OH280800   4.834   2.738  11.562  0.6268 -0.0395 -0.4759
19770TIP3    H180801   4.817   2.674  11.493 -1.3940 -0.7455  0.5842
19770TIP3    H280802   4.747   2.770  11.587  1.2640  0.1198  1.7828
19771TIP3   OH280803   4.839   1.224  15.675 -0.1646 -0.0914 -0.1160
19771TIP3    H180804   4.863   1.312  15.702  1.5176 -0.4651 -0.2863
19771TIP3    H280805   4.743   1.222  15.681 -0.0731  0.6256  3.2840
19772TIP3   OH280806   5.428   6.503   5.407 -0.5014 -0.0434 -0.3755
19772TIP3    H180807   5.413   6.411   5.427 -0.5814  0.3068  1.3373
19772TIP3    H280808   5.521   6.508   5.384 -0.4750 -0.5379 -0.3810
19773TIP3   OH280809   1.868   1.582   3.312  0.8257 -0.6122  0.2591
19773TIP3    H180810   1.924   1.526   3.258  0.1663 -0.3598 -0.7265
19773TIP3    H280811   1.891   1.671   3.286 -0.3519 -0.5158 -0.5202
19774TIP3   OH280812   4.532   4.249  13.217 -0.3937  0.8455 -0.7419
19774TIP3    H180813   4.601   4.185  13.236  1.5433  2.2470 -2.6149
19774TIP3    H280814   4.459   4.222  13.273  1.3592 -1.1980  0.7470
19775TIP3   OH280815   6.485   1.151  14.810 -0.1331  0.0670  0.2609
19775TIP3    H180816   6.490   1.157  14.715 -0.9590  1.3408  0.2694
19775TIP3    H280817   6.466   1.059  14.828  1.9884 -0.6249 -0.6795
19776TIP3   OH280818   5.198   0.050  12.684  0.2792  0.1958 -0.2510
19776TIP3    H180819   5.276   0.015  12.726 -0.8743 -0.1049  1.7553
19776TIP3    H280820   5.232   0.106  12.614  2.3002  0.7005  1.0492
19777TIP3   OH280821   2.364   0.764   3.162  0.1551  0.0381 -0.3207
19777TIP3    H180822   2.317   0.801   3.237 -0.8532 -1.7072 -0.0501
19777TIP3    H280823   2.410   0.839   3.124  0.5452  1.0189  1.9025
19778TIP3   OH280824   0.493   6.622  12.754  0.3120 -0.4297  0.2581
19778TIP3    H180825   0.489   6.598  12.661  0.7930  0.1835  0.0673
19778TIP3    H280826   0.517   6.541  12.799  1.5464 -0.4197 -0.3255
19779TIP3   OH280827   2.784   0.942   4.870 -0.4878 -0.0656  0.4063
19779TIP3    H180828   2.768   0.851   4.895 -1.2533 -0.5563 -1.6743
19779TIP3    H280829   2.699   0.984   4.874 -0.5971 -0.1090 -1.0650
19780TIP3   OH280830   3.777   1.871  11.765 -0.0184  0.1833 -0.3957
19780TIP3    H180831   3.834   1.846  11.838  0.5003  0.8148 -0.5721
19780TIP3    H280832   3.689   1.846  11.793  0.3511 -0.8967 -0.1563
19781TIP3   OH280833   2.520   0.007   1.351 -0.3460 -0.0478 -0.7993
19781TIP3    H180834   2.530   0.007   1.256 -1.5409 -0.0925 -0.9473
19781TIP3    H280835   2.589   0.064   1.383 -0.3436  0.4947 -1.7453
19782TIP3   OH280836   5.112   1.808   2.861  0.4267 -0.5391 -0.9570
19782TIP3    H180837   5.065   1.858   2.794  1.4312 -1.2204 -2.2283
19782TIP3    H280838   5.050   1.799   2.933  0.9673  4.8866  0.6227
19783TIP3   OH280839   4.241   5.643  14.920  0.5423  0.1716 -0.2264
19783TIP3    H180840   4.330   5.634  14.955  0.3073 -0.6233  0.1855
19783TIP3    H280841   4.187   5.586  14.976  0.2054 -1.3835 -2.0454
19784TIP3   OH280842   3.242   2.555   3.291 -0.2960  0.2771 -0.1600
19784TIP3    H180843   3.215   2.621   3.227 -0.2898  0.9059  0.4664
19784TIP3    H280844   3.162   2.507   3.311 -0.1577 -0.3780 -1.1467
19785TIP3   OH280845   4.284   6.771  14.569 -0.5098  0.2804  0.4189
19785TIP3    H180846   4.219   6.700  14.571  0.8426 -1.0026  0.1233
19785TIP3    H280847   4.335   6.759  14.649  1.0357 -0.3796 -0.6254
19786TIP3   OH280848   5.500   2.421   5.883 -0.0745  0.8880 -0.3343
19786TIP3    H180849   5.463   2.414   5.795  0.3292  0.4799 -0.4808
19786TIP3    H280850   5.595   2.417   5.869  0.0269  1.8262  0.0389
19787TIP3   OH280851   2.791   0.710  14.544  0.2520  0.1211  0.1074
19787TIP3    H180852   2.769   0.618  14.556 -0.1725  0.2964  0.7242
19787TIP3    H280853   2.750   0.734  14.460 -3.3528  0.8120  1.8562
19788TIP3   OH280854   0.288   3.210  16.717 -0.0961  0.6309 -0.1204
19788TIP3    H180855   0.345   3.215  16.794 -0.7076 -0.6478  0.4415
19788TIP3    H280856   0.348   3.195  16.644  0.3578  0.1935  0.3322
19789TIP3   OH280857   2.444   4.099   1.101 -0.0715  0.1143  0.4120
19789TIP3    H180858   2.424   4.073   1.191 -0.8192 -0.0610  0.1970
19789TIP3    H280859   2.417   4.191   1.096 -0.8946 -0.1330  0.1121
19790TIP3   OH280860   0.459   4.021  15.650 -0.1511  0.0756  0.6732
19790TIP3    H180861   0.490   3.948  15.598 -0.2906  0.1706  0.4558
19790TIP3    H280862   0.536   4.077  15.661 -0.4467  0.7836 -0.6593
19791TIP3   OH280863   0.371   6.576   4.568 -0.0098 -0.7338  0.6827
19791TIP3    H180864   0.359   6.606   4.478  1.1727 -1.7633  0.1516
19791TIP3    H280865   0.453   6.616   4.596 -0.9822  0.5944  1.7812
19792TIP3   OH280866   3.501   4.926  14.126 -0.1289  0.7233  0.3464
19792TIP3    H180867   3.450   4.875  14.063  0.6581  0.5437 -0.1634
19792TIP3    H280868   3.592   4.910  14.102  0.1620  1.4795  0.8901
19793TIP3   OH280869   6.466   2.501  12.906  0.3206  0.3777 -0.5316
19793TIP3    H180870   6.420   2.421  12.879  0.0008  0.4790 -0.2962
19793TIP3    H280871   6.537   2.470  12.962 -0.5512  0.3259  0.5925
19794TIP3   OH280872   5.455   3.147  15.166 -0.1317  0.3926 -0.2594
19794TIP3    H180873   5.510   3.197  15.105  0.6279  1.7411  1.4536
19794TIP3    H280874   5.387   3.208  15.193 -0.6885 -0.3124 -0.0303
19795TIP3   OH280875   3.922   3.036   5.836  0.2838  0.0955  0.0106
19795TIP3    H180876   3.876   3.106   5.883  0.9805  2.2115 -2.2537
19795TIP3    H280877   3.853   2.991   5.787  0.0685  0.5279 -0.0940
19796TIP3   OH280878   0.074   3.340  16.080 -0.1831  0.0548 -0.4794
19796TIP3    H180879   0.143   3.383  16.030 -1.2415  1.5774 -0.6899
19796TIP3    H280880  -0.002   3.396  16.069 -1.8412 -2.2390 -1.2883
19797TIP3   OH280881   3.374   2.346  16.682  0.1821 -0.2432  0.4622
19797TIP3    H180882   3.400   2.291  16.756 -1.3943 -0.1932  1.0976
19797TIP3    H280883   3.280   2.330  16.672  0.4739 -0.9311 -2.1255
19798TIP3   OH280884   4.812   5.718  14.587 -0.5580 -0.3394  0.5801
19798TIP3    H180885   4.766   5.782  14.642 -1.2999 -0.2471 -0.1247
19798TIP3    H280886   4.817   5.760  14.501  0.4833 -0.5271  0.5331
19799TIP3   OH280887   4.502   2.154   1.735  0.1798 -0.6706 -0.2701
19799TIP3    H180888   4.448   2.096   1.790 -0.6752 -0.0222 -0.4166
19799TIP3    H280889   4.440   2.217   1.698  1.1179  0.4397  0.0054
19800TIP3   OH280890   4.662   6.717  12.008  0.2613 -0.2998 -0.0312
19800TIP3    H180891   4.598   6.647  11.993 -0.0372  0.0587 -0.4397
19800TIP3    H280892   4.644   6.747  12.097  0.4541 -0.8045  0.1846
19801TIP3   OH280893   4.283   0.146   4.682  0.2448 -0.1910  0.1922
19801TIP3    H180894   4.191   0.162   4.664  0.0483 -0.9511  0.4854
19801TIP3    H280895   4.300   0.194   4.764 -0.4346 -1.7242  1.2748
19802TIP3   OH280896   6.074   4.015  11.854  0.2058  0.2019  0.3771
19802TIP3    H180897   6.043   4.101  11.828  0.5243  0.0267 -0.6186
19802TIP3    H280898   6.036   3.955  11.790  1.1073 -0.2274  0.2252
19803TIP3   OH280899   2.095   2.151  11.636 -0.4323 -0.7381  0.2896
19803TIP3    H180900   2.046   2.195  11.705 -0.4993  0.9331 -0.7678
19803TIP3    H280901   2.028   2.118  11.577 -0.3795  1.1426 -0.9118
19804TIP3   OH280902   2.696   5.118  11.719  0.6041  0.3551 -0.1134
19804TIP3    H180903   2.649   5.183  11.772  1.2022  0.1275  0.7196
19804TIP3    H280904   2.652   5.120  11.634 -1.0629 -0.0299  0.6957
19805TIP3   OH280905   2.367   0.470  13.409  0.1294  0.1254 -0.5321
19805TIP3    H180906   2.313   0.545  13.434 -1.1856 -0.4896 -1.4283
19805TIP3    H280907   2.389   0.427  13.493 -0.7251  0.4243 -0.1459
19806TIP3   OH280908   2.974   4.569   1.823  0.2250  0.0385 -0.8245
19806TIP3    H180909   3.015   4.655   1.810  1.0790 -0.4442 -1.3902
19806TIP3    H280910   2.881   4.588   1.829  0.2566  0.8715 -2.4137
19807TIP3   OH280911   5.701   0.439   2.923 -0.5481 -0.0770 -0.3607
19807TIP3    H180912   5.699   0.443   2.827 -0.1873  0.8091 -0.3433
19807TIP3    H280913   5.613   0.465   2.950 -0.2815  0.9644 -0.4352
19808TIP3   OH280914   3.244   2.779  12.447 -0.1062 -0.1073  0.6061
19808TIP3    H180915   3.325   2.730  12.428 -0.0951  0.3939 -0.7930
19808TIP3    H280916   3.250   2.800  12.540  3.0930  2.8940 -0.0700
19809TIP3   OH280917   5.675   2.758  15.517 -0.8170  0.2120 -0.4600
19809TIP3    H180918   5.700   2.804  15.597 -1.8852  1.2150 -0.6699
19809TIP3    H280919   5.731   2.680  15.515 -1.0924 -0.0784  1.4994
19810TIP3   OH280920   3.122   1.135   5.282  0.5288 -0.2325  0.2957
19810TIP3    H180921   3.164   1.050   5.295 -0.0730 -0.6587 -0.4731
19810TIP3    H280922   3.032   1.113   5.257 -0.2591  0.6501  2.1414
19811TIP3   OH280923   1.113   1.988  14.537  0.6277  0.3412 -0.1127
19811TIP3    H180924   1.133   1.992  14.443  1.0212 -0.0189 -0.0428
19811TIP3    H280925   1.116   1.894  14.558 -0.6385  0.3056  0.0028
19812TIP3   OH280926   1.516   4.669  11.589 -0.1710  0.1354 -0.0815
19812TIP3    H180927   1.473   4.754  11.593 -1.7298 -0.6152 -0.2266
19812TIP3    H280928   1.558   4.659  11.674 -1.3911  0.3496  0.5673
19813TIP3   OH280929   6.368   0.893  12.971  0.2884 -0.2914  0.3043
19813TIP3    H180930   6.367   0.953  13.046 -0.3859 -0.0916  0.1460
19813TIP3    H280931   6.408   0.813  13.005 -0.3450 -0.3332  0.9859
19814TIP3   OH280932   1.885   5.523  14.192  0.1748  0.4872 -0.3117
19814TIP3    H180933   1.797   5.536  14.159  1.0738  2.3122 -2.1733
19814TIP3    H280934   1.888   5.573  14.274 -0.9070 -0.8659  0.6066
19815TIP3   OH280935   1.588   3.184  13.897  0.1282  0.0197  0.1248
19815TIP3    H180936   1.681   3.205  13.896  1.0757 -3.5454  0.9498
19815TIP3    H280937   1.566   3.165  13.806 -0.0222  1.4507 -0.1681
19816TIP3   OH280938   5.719   0.368  13.366  0.2593 -0.2071 -0.1937
19816TIP3    H180939   5.746   0.353  13.275 -0.4642 -1.3965 -0.2349
19816TIP3    H280940   5.754   0.454  13.388  0.5734  0.0293 -1.5513
19817TIP3   OH280941   5.335   6.540   4.676  0.2620  1.0645 -0.0022
19817TIP3    H180942   5.274   6.588   4.620 -0.0026 -1.2968 -1.9062
19817TIP3    H280943   5.418   6.540   4.627  0.0455 -0.9924 -0.4494
19818TIP3   OH280944   4.679   1.735  17.142 -0.1907 -0.3288  0.1453
19818TIP3    H180945   4.747   1.782  17.190  1.0866 -2.5072  0.5712
19818TIP3    H280946   4.606   1.730  17.204 -0.2838  0.8407  0.1663
19819TIP3   OH280947   3.723   1.292   4.380 -0.2353  0.0042  0.0050
19819TIP3    H180948   3.682   1.377   4.359 -1.5278  0.0734  2.4859
19819TIP3    H280949   3.689   1.233   4.313 -1.7638  0.8068  0.0112
19820TIP3   OH280950   3.821   1.796   5.681 -0.1170 -0.0313  0.4765
19820TIP3    H180951   3.875   1.717   5.673 -1.4062 -1.1066  1.8029
19820TIP3    H280952   3.752   1.771   5.742 -3.0991  0.7237 -2.3272
19821TIP3   OH280953   6.686   1.670   5.949  0.2770  0.4619 -0.0318
19821TIP3    H180954   6.733   1.655   6.031  2.3702 -1.4876 -1.4825
19821TIP3    H280955   6.601   1.629   5.962  0.5479  0.2459  1.1649
19822TIP3   OH280956   4.503   0.086   2.830 -0.6867 -0.3541  0.2565
19822TIP3    H180957   4.450   0.126   2.761  0.1956  0.5572  0.0784
19822TIP3    H280958   4.448   0.091   2.908 -1.5779 -1.1231 -0.2955
19823TIP3   OH280959   3.020   1.634  13.570 -0.4329  0.5439 -0.0940
19823TIP3    H180960   2.934   1.598  13.548 -0.4059  1.0551 -1.0885
19823TIP3    H280961   3.005   1.689  13.647 -0.8972  0.2487  0.0282
19824TIP3   OH280962   4.182   3.120  14.651  0.0821  0.2300  0.1168
19824TIP3    H180963   4.157   3.192  14.709  1.0551  0.9185 -0.2865
19824TIP3    H280964   4.144   3.042  14.691 -0.9048  0.9491  0.6224
19825TIP3   OH280965   3.723   4.399  13.452 -0.0880  0.0329  0.3672
19825TIP3    H180966   3.743   4.354  13.369  0.3811  0.7799  0.0644
19825TIP3    H280967   3.802   4.386  13.505  1.2479  2.7556 -0.7282
19826TIP3   OH280968   6.300   5.990  15.520 -0.1172 -0.4382 -0.2053
19826TIP3    H180969   6.346   5.906  15.517  1.4150  0.2622  1.4968
19826TIP3    H280970   6.320   6.031  15.437  0.2345 -1.2047 -0.5088
19827TIP3   OH280971   1.283   1.313   4.396 -0.2471  0.1571 -0.2988
19827TIP3    H180972   1.364   1.356   4.368 -1.2238  1.5648 -1.1080
19827TIP3    H280973   1.270   1.342   4.486  0.7383 -1.0424  0.2636
19828TIP3   OH280974   4.963   2.582   3.842  0.9483  0.4339  0.2137
19828TIP3    H180975   4.966   2.504   3.898 -0.1597 -0.7898 -1.3552
19828TIP3    H280976   5.036   2.635   3.873  0.2402 -0.0375  2.9754
19829TIP3   OH280977   4.426   0.878   1.346 -0.0634 -0.8852 -0.1507
19829TIP3    H180978   4.474   0.957   1.370 -3.1112  1.1097 -0.0037
19829TIP3    H280979   4.481   0.835   1.281  2.0857  0.9256  0.3277
19830TIP3   OH280980   3.617   2.058  10.844 -0.0602 -0.6275  0.4332
19830TIP3    H180981   3.687   2.085  10.785 -0.8706 -2.2038 -1.3325
19830TIP3    H280982   3.629   1.963  10.853 -2.0111 -0.9563 -0.0126
19831TIP3   OH280983   4.480   6.097   1.295 -0.3610  0.1066 -0.0530
19831TIP3    H180984   4.385   6.096   1.302 -0.4516  2.1295 -0.5300
19831TIP3    H280985   4.509   6.150   1.369  0.4515 -0.9084  0.3813
19832TIP3   OH280986   3.238   1.350   2.590  0.1503 -0.1849 -0.4359
19832TIP3    H180987   3.329   1.349   2.560  0.2825 -1.3856 -0.0762
19832TIP3    H280988   3.217   1.257   2.604 -0.3962  0.2138  1.6537
19833TIP3   OH280989   2.286   2.026   5.279 -0.2891 -0.4491  0.0424
19833TIP3    H180990   2.285   2.048   5.372  1.9025  1.0532 -0.2030
19833TIP3    H280991   2.372   1.988   5.264  0.0447  0.8436 -1.6469
19834TIP3   OH280992   2.712   5.823  12.919  0.2988 -0.0025 -0.3321
19834TIP3    H180993   2.663   5.767  12.858  1.3618 -0.5727 -0.6862
19834TIP3    H280994   2.699   5.911  12.885 -2.0539  0.1255  0.6841
19835TIP3   OH280995   0.413   2.506  11.333  0.5509  0.1115  0.1052
19835TIP3    H180996   0.325   2.476  11.355  1.2411 -0.6662  2.0059
19835TIP3    H280997   0.414   2.511  11.237 -1.5745  0.2394  0.0538
19836TIP3   OH280998   0.843   2.126   2.646  0.5892  0.0138 -0.8171
19836TIP3    H180999   0.803   2.039   2.650 -1.3341  0.8984  1.7278
19836TIP3    H281000   0.790   2.174   2.583  0.8372 -0.2475 -1.2341
19837TIP3   OH281001   3.422   3.525   3.624 -0.0014 -0.4448 -1.3533
19837TIP3    H181002   3.439   3.473   3.703  0.5128 -0.6650 -1.6079
19837TIP3    H281003   3.342   3.574   3.645  0.5416  0.0641 -0.4144
19838TIP3   OH281004   1.277   6.563   1.565  0.0168 -0.4142 -0.5423
19838TIP3    H181005   1.370   6.549   1.547  0.6993  0.3214  1.9544
19838TIP3    H281006   1.260   6.653   1.537 -0.0464 -0.6616 -1.3157
19839TIP3   OH281007   0.324   0.795   6.189 -0.1796 -0.7417  0.4554
19839TIP3    H181008   0.309   0.879   6.232 -2.0945  1.0066 -3.1959
19839TIP3    H281009   0.402   0.809   6.135 -1.3036 -0.7665 -1.2330
19840TIP3   OH281010   1.951   2.140   0.281 -0.5660 -0.0851  0.4789
19840TIP3    H181011   2.044   2.157   0.270 -0.4469 -0.6939  0.4777
19840TIP3    H281012   1.915   2.222   0.314 -0.2844  0.6160 -0.8609
19841TIP3   OH281013   3.722   6.565   4.689  0.2693  0.3084 -0.2366
19841TIP3    H181014   3.800   6.620   4.681  0.6465  0.1552  1.8127
19841TIP3    H281015   3.704   6.535   4.600  1.1051  2.2916 -1.1180
19842TIP3   OH281016   0.006   6.498  15.528  0.0697  0.6193  0.1142
19842TIP3    H181017   0.077   6.560  15.511  0.4455  0.4252  0.9093
19842TIP3    H281018   0.017   6.475  15.620  1.4583 -2.4998 -0.6974
19843TIP3   OH281019   2.266   5.892   4.973  0.0909  0.1166  0.3367
19843TIP3    H181020   2.180   5.926   4.947 -0.1541 -0.6605  0.0751
19843TIP3    H281021   2.255   5.869   5.066  0.2798  0.7968  0.5345
19844TIP3   OH281022   0.753   0.560   2.926 -0.4000 -0.2061  0.5062
19844TIP3    H181023   0.734   0.652   2.944 -1.2483  0.0790 -1.6002
19844TIP3    H281024   0.673   0.526   2.888  1.0856 -0.7025 -2.5027
19845TIP3   OH281025   1.805   2.671   0.054  0.1563 -0.5320 -0.3356
19845TIP3    H181026   1.759   2.602   0.006  0.9704 -1.5742  0.3439
19845TIP3    H281027   1.898   2.654   0.038  0.4301 -0.6176  1.1796
19846TIP3   OH281028   2.230   3.804  11.007  0.0452 -0.3952  0.4313
19846TIP3    H181029   2.214   3.758  11.089 -1.5540  0.2337  0.5033
19846TIP3    H281030   2.192   3.748  10.940 -1.0575  0.3313  0.4233
19847TIP3   OH281031   2.906   4.987  12.544 -0.0502  0.3422  0.0236
19847TIP3    H181032   2.831   4.950  12.497 -1.5313  1.6839  1.2466
19847TIP3    H281033   2.868   5.034  12.618  1.9859  1.3981  0.4696
19848TIP3   OH281034   3.941   0.562  16.459 -0.1070 -0.2010  0.0815
19848TIP3    H181035   3.898   0.478  16.477  0.8902 -0.8337 -0.3931
19848TIP3    H281036   3.888   0.627  16.506 -0.5379 -1.1687  0.9705
19849TIP3   OH281037   0.601   2.601   3.464  0.3317 -0.4555  0.3910
19849TIP3    H181038   0.519   2.647   3.482  0.0627 -0.8227  0.1121
19849TIP3    H281039   0.646   2.657   3.400 -0.7231 -1.3528 -1.1979
19850TIP3   OH281040   6.506   5.823   1.145 -0.4503 -0.1604 -0.0866
19850TIP3    H181041   6.459   5.777   1.076 -1.3390  0.7092 -0.0958
19850TIP3    H281042   6.531   5.906   1.106  1.4854 -0.7527 -0.1961
19851TIP3   OH281043   4.402   6.717   3.658  0.4951  0.6287  0.4564
19851TIP3    H181044   4.444   6.681   3.736  0.3299  0.4362  0.4579
19851TIP3    H281045   4.322   6.759   3.691  0.8830  1.3318  0.5020
19852TIP3   OH281046   6.020   5.706   0.527  0.4249 -0.0683 -0.1821
19852TIP3    H181047   6.082   5.765   0.486  0.5366 -0.5496 -0.7082
19852TIP3    H281048   6.071   5.659   0.592 -0.0645  1.8039  1.6950
19853TIP3   OH281049   1.521   3.343  13.155 -0.1400  0.1945 -0.1249
19853TIP3    H181050   1.578   3.313  13.084 -0.1721 -0.4034  0.0996
19853TIP3    H281051   1.551   3.433  13.172  1.2694 -0.3598  0.5114
19854TIP3   OH281052   0.801   5.125  15.392 -0.3753 -0.4303 -0.2192
19854TIP3    H181053   0.740   5.063  15.354 -1.2707 -0.4879  1.2188
19854TIP3    H281054   0.816   5.093  15.481 -1.5839  1.8342  0.8936
19855TIP3   OH281055   2.413   4.389   3.377 -0.0312  0.1748 -0.3688
19855TIP3    H181056   2.327   4.427   3.358  0.0016 -0.3799 -1.7271
19855TIP3    H281057   2.461   4.398   3.295  0.2187 -2.1165 -0.5367
19856TIP3   OH281058   3.082   3.358   5.351 -0.2371  0.0932 -0.1322
19856TIP3    H181059   3.166   3.385   5.388  0.7381 -0.4950 -1.7934
19856TIP3    H281060   3.085   3.391   5.261 -0.9552 -1.5851 -0.7979
19857TIP3   OH281061   6.245   6.683   0.247  0.0425  0.8986  0.3331
19857TIP3    H181062   6.335   6.715   0.256  0.1900  1.8090 -2.9032
19857TIP3    H281063   6.196   6.757   0.212 -1.4510 -0.2008 -0.0524
19858TIP3   OH281064   2.007   0.495   5.302 -0.1459  0.3146  0.1597
19858TIP3    H181065   2.054   0.443   5.237  1.9809  0.9321  1.0927
19858TIP3    H281066   2.011   0.443   5.382 -1.0746  0.3842  0.2565
19859TIP3   OH281067   0.191   6.760   5.200  0.2765 -0.4864  0.3951
19859TIP3    H181068   0.120   6.714   5.245 -0.3290 -1.0134 -1.0321
19859TIP3    H281069   0.254   6.691   5.178  0.1720 -0.3789 -0.2684
19860TIP3   OH281070   0.654   4.889   5.189  0.7331  0.2210 -0.3359
19860TIP3    H181071   0.647   4.893   5.094 -2.3105 -0.0763 -0.2417
19860TIP3    H281072   0.673   4.979   5.216  1.5656  0.3149 -1.2058
19861TIP3   OH281073   1.665   3.941  11.549 -0.2501  0.2991 -0.0695
19861TIP3    H181074   1.624   3.980  11.471 -1.4052  0.9033  0.8106
19861TIP3    H281075   1.594   3.897  11.595  0.3824  0.0697  0.7243
19862TIP3   OH281076   4.340   2.753   5.627 -0.2480  0.1828  0.2888
19862TIP3    H181077   4.249   2.727   5.643  0.1043  0.0268  2.2146
19862TIP3    H281078   4.374   2.685   5.570 -0.4785 -1.5166  2.0759
19863TIP3   OH281079   0.201   3.682  11.041  0.0002 -0.5480  0.3487
19863TIP3    H181080   0.133   3.628  11.081 -1.2140  1.3252  0.9169
19863TIP3    H281081   0.188   3.769  11.079  1.2420  0.4011 -1.3029
19864TIP3   OH281082   2.438   2.385   3.368 -0.4512 -0.9048  0.6834
19864TIP3    H181083   2.458   2.424   3.453 -1.5271  1.9629 -0.2603
19864TIP3    H281084   2.522   2.384   3.321 -0.4514  0.9091  0.5604
19865TIP3   OH281085   1.436   0.571   5.841 -0.0898 -0.0348 -0.5148
19865TIP3    H181086   1.518   0.578   5.791  0.5867 -2.9885  0.0102
19865TIP3    H281087   1.456   0.610   5.926 -0.2120  1.9426 -1.3343
19866TIP3   OH281088   6.772   3.804  13.816  0.4706  0.9816  0.7347
19866TIP3    H181089   6.799   3.772  13.730 -0.6168  1.5300  0.1639
19866TIP3    H281090   6.767   3.726  13.870 -0.0312  0.4639 -0.0391
19867TIP3   OH281091   1.611   0.376   3.643 -0.4765  0.8423 -0.6720
19867TIP3    H181092   1.560   0.316   3.587  1.5473 -0.0327 -1.6615
19867TIP3    H281093   1.632   0.450   3.586 -1.7230  1.8591  0.1318
19868TIP3   OH281094   0.445   3.488  14.182  0.6534  0.8597 -0.2252
19868TIP3    H181095   0.406   3.540  14.252 -0.4614  1.9496 -1.6010
19868TIP3    H281096   0.371   3.445  14.139  1.3143  0.2450 -0.7834
19869TIP3   OH281097   2.725   4.570   2.144  0.1413 -0.2151  0.6348
19869TIP3    H181098   2.775   4.621   2.081 -1.0418  1.8748  1.2813
19869TIP3    H281099   2.666   4.634   2.185 -3.9161 -2.5595 -0.8820
19870TIP3   OH281100   1.117   4.951  16.727 -0.4532  0.5962 -0.4642
19870TIP3    H181101   1.151   4.917  16.810  0.7984  0.9920 -0.7892
19870TIP3    H281102   1.125   4.877  16.667 -2.7706 -0.1835  0.0719
19871TIP3   OH281103   0.194   0.760   5.896 -0.5936  0.0635  0.3361
19871TIP3    H181104   0.238   0.773   5.980  0.8672 -0.6498 -0.2824
19871TIP3    H281105   0.182   0.848   5.861  1.5613  0.2479 -0.0473
19872TIP3   OH281106   1.733   1.358   1.134  0.2689  0.1884  0.3739
19872TIP3    H181107   1.760   1.434   1.185  1.4500 -0.0239  0.0942
19872TIP3    H281108   1.793   1.355   1.060 -0.2764 -0.5528 -0.0587
19873TIP3   OH281109   4.121   1.551   2.077  0.3850 -0.2571  0.1264
19873TIP3    H181110   4.070   1.559   2.157  0.7703  0.3692  0.3213
19873TIP3    H281111   4.197   1.498   2.102 -0.5084 -1.8137 -0.3434
19874TIP3   OH281112   1.159   2.252  16.939 -0.3073 -0.0439 -0.3357
19874TIP3    H181113   1.168   2.245  17.035  0.6253  0.7350 -0.3448
19874TIP3    H281114   1.132   2.343  16.925 -0.2587 -0.1056 -0.8189
19875TIP3   OH281115   4.431   2.951   0.474 -0.1746  0.0425 -0.1280
19875TIP3    H181116   4.453   2.971   0.383  1.9164 -1.1233  0.0374
19875TIP3    H281117   4.451   3.031   0.522 -2.4071  1.0620 -0.7808
19876TIP3   OH281118   4.099   4.712   2.151  0.5747 -0.2949  0.5125
19876TIP3    H181119   4.157   4.779   2.114  0.0250  0.5239  1.0861
19876TIP3    H281120   4.060   4.670   2.075 -0.4473  1.2796  0.1173
19877TIP3   OH281121   6.781   6.680  14.871 -0.1079  0.0799 -0.1186
19877TIP3    H181122   6.853   6.618  14.872  0.5261  0.7807  1.0373
19877TIP3    H281123   6.788   6.726  14.955 -2.1970 -0.1647  0.2564
19878TIP3   OH281124   5.462   3.373  14.519 -0.4960  0.4515  0.0442
19878TIP3    H181125   5.514   3.355  14.441  0.8836  1.0963  0.7872
19878TIP3    H281126   5.522   3.418  14.578 -1.2343 -0.8072  1.8327
19879TIP3   OH281127   2.828   6.747   5.062  0.3857 -0.3780  0.2098
19879TIP3    H181128   2.794   6.665   5.097 -0.4383  0.0803  0.5248
19879TIP3    H281129   2.889   6.721   4.993 -0.6544 -1.2534 -0.4166
19880TIP3   OH281130   0.517   1.330   2.983  0.0690 -0.0612 -0.1056
19880TIP3    H181131   0.606   1.315   3.016  1.1913  3.6367 -0.9255
19880TIP3    H281132   0.481   1.397   3.041 -1.1971  0.3383 -1.3004
19881TIP3   OH281133   1.350   6.446   0.959 -0.0944 -0.0728 -0.4874
19881TIP3    H181134   1.347   6.390   0.881 -2.1030  0.7580 -1.0865
19881TIP3    H281135   1.272   6.501   0.951  0.6976  1.3719  1.1494
19882TIP3   OH281136   3.815   0.984   0.085 -0.2519 -0.4599  0.0603
19882TIP3    H181137   3.843   0.915   0.145 -0.9300  0.2391  1.2158
19882TIP3    H281138   3.720   0.989   0.096 -0.2489  0.4332 -0.2448
19883TIP3   OH281139   1.991   6.625  16.844  0.2798  0.1688 -0.0562
19883TIP3    H181140   2.081   6.650  16.868  0.5370  0.5423 -1.3398
19883TIP3    H281141   1.956   6.702  16.799 -0.2828 -0.3762 -0.5701
19884TIP3   OH281142   1.636   3.481  10.979 -0.1349 -0.1839 -0.2766
19884TIP3    H181143   1.731   3.486  10.978 -0.1239  1.0887 -3.4140
19884TIP3    H281144   1.608   3.560  11.025  0.2945 -0.6092  0.7326
19885TIP3   OH281145   4.409   0.662   5.449 -0.3154 -0.2239  0.2007
19885TIP3    H181146   4.439   0.592   5.390  0.7507  0.8453 -0.5810
19885TIP3    H281147   4.445   0.742   5.411 -0.3371  0.6045  1.8427
19886TIP3   OH281148   1.951   5.147   4.565  0.2148  0.7824  0.6817
19886TIP3    H181149   1.869   5.109   4.533  0.5275  0.2965  0.4503
19886TIP3    H281150   1.939   5.153   4.660 -0.1513  0.8711  0.6316
19887TIP3   OH281151   4.926   2.816  14.448 -0.0325 -0.4228  0.0889
19887TIP3    H181152   4.892   2.889  14.396 -1.4401 -1.8139 -1.0650
19887TIP3    H281153   4.985   2.856  14.511  0.3801  1.5458 -1.4543
19888TIP3   OH281154   6.155   0.108   4.193  0.2909  0.3393  0.8297
19888TIP3    H181155   6.068   0.137   4.163  1.0629  0.5008 -1.4800
19888TIP3    H281156   6.151   0.012   4.185  1.2474  0.4332 -2.5050
19889TIP3   OH281157   2.148   4.850  11.689 -0.0299 -0.2738  0.2371
19889TIP3    H181158   2.083   4.899  11.638  1.1537 -0.4478 -1.5176
19889TIP3    H281159   2.190   4.916  11.744  1.9370  0.9575 -2.4969
19890TIP3   OH281160   2.421   5.373   6.150 -0.2722  0.0818 -0.7771
19890TIP3    H181161   2.354   5.415   6.203  1.4950  1.3271  0.6314
19890TIP3    H281162   2.447   5.296   6.201  0.6376  0.6495 -0.3554
19891TIP3   OH281163   2.510   3.039   0.543 -0.1488  0.3664 -0.0729
19891TIP3    H181164   2.498   2.963   0.599  1.6311  1.0057  1.2551
19891TIP3    H281165   2.429   3.089   0.553 -0.0449  0.2492  1.6237
19892TIP3   OH281166   2.713   3.651   2.169  0.1216  0.2687 -0.3731
19892TIP3    H181167   2.627   3.650   2.211  0.3890 -1.3128  0.2010
19892TIP3    H281168   2.759   3.723   2.211  0.4856 -1.4334  2.3921
19893TIP3   OH281169   5.903   1.853   3.026  0.1832 -0.5257  0.2664
19893TIP3    H181170   5.824   1.802   3.007 -0.4157  0.2870  0.5283
19893TIP3    H281171   5.966   1.788   3.059  0.0065 -1.3553 -0.9851
19894TIP3   OH281172   3.098   3.631  11.632  0.3503 -0.7191 -0.4487
19894TIP3    H181173   3.185   3.668  11.619 -0.0810  0.3655 -0.4462
19894TIP3    H281174   3.111   3.554  11.686  1.2999 -0.5301 -0.3997
19895TIP3   OH281175   5.982   1.222   5.281  0.6674 -0.3510 -0.0919
19895TIP3    H181176   5.961   1.222   5.187  0.2213  0.0101  0.0050
19895TIP3    H281177   5.923   1.287   5.319  1.5363  0.2418  0.2844
19896TIP3   OH281178   0.799   4.278   4.941  0.3071 -0.4561 -0.3013
19896TIP3    H181179   0.763   4.218   5.005  1.5840  0.4672  1.3594
19896TIP3    H281180   0.825   4.222   4.868  0.4395 -1.7707  0.7144
19897TIP3   OH281181   1.051   5.753  11.625 -0.4801  0.0573 -0.1187
19897TIP3    H181182   1.019   5.663  11.619 -1.5446  0.4791 -1.4610
19897TIP3    H281183   1.133   5.746  11.673 -0.3065 -1.6856 -0.5852
19898TIP3   OH281184   5.439   5.758  11.110  0.2452  0.4750 -0.2253
19898TIP3    H181185   5.487   5.708  11.176 -0.9278 -2.8376 -1.6283
19898TIP3    H281186   5.447   5.849  11.138  0.6584 -0.6128  3.8742
19899TIP3   OH281187   5.288   5.833   6.211 -0.9420  0.0476 -0.2326
19899TIP3    H181188   5.248   5.752   6.179 -0.6864  0.8468 -2.8462
19899TIP3    H281189   5.227   5.902   6.184  0.3558  0.9594 -0.9932
19900TIP3   OH281190   5.993   4.660   4.793 -0.0282  0.1394  0.3199
19900TIP3    H181191   5.920   4.667   4.854  0.2420  0.4122  0.6149
19900TIP3    H281192   6.060   4.612   4.842 -0.0549 -0.2352  0.0032
19901TIP3   OH281193   2.799   0.610   3.873  0.3087  0.2375 -0.5586
19901TIP3    H181194   2.720   0.656   3.902  1.4227  1.1962  1.1190
19901TIP3    H281195   2.807   0.536   3.934  1.7250  1.2601  0.5582
19902TIP3   OH281196   5.520   4.186   4.119 -0.6274  0.6796 -0.5989
19902TIP3    H181197   5.538   4.265   4.170  0.6009  0.2957 -0.4226
19902TIP3    H281198   5.565   4.116   4.165 -0.5773  0.1024 -1.5031
19903TIP3   OH281199   0.089   1.377   3.687  0.0780 -0.3083  0.2891
19903TIP3    H181200   0.091   1.366   3.782 -0.1841 -0.7256  0.2502
19903TIP3    H281201   0.114   1.468   3.673  0.7594 -0.4221  0.7227
19904TIP3   OH281202   5.851   4.800   3.320 -0.4237 -0.1656 -0.3351
19904TIP3    H181203   5.756   4.792   3.311 -0.4794  0.1517 -0.0330
19904TIP3    H281204   5.865   4.824   3.411  0.0158 -1.2834 -0.0913
19905TIP3   OH281205   0.964   3.214  15.929  0.2360 -0.8474  0.1075
19905TIP3    H181206   0.939   3.208  16.021  1.3845  1.4284  0.6386
19905TIP3    H281207   1.056   3.240  15.931 -0.2363  1.2463 -1.6304
19906TIP3   OH281208   6.201   2.246   0.020  0.3019  0.3477  0.0034
19906TIP3    H181209   6.161   2.283  -0.059  0.2777  0.7558  0.2100
19906TIP3    H281210   6.142   2.174   0.045 -0.2529  0.8848  0.2499
19907TIP3   OH281211   1.257   2.501   3.820  0.0141 -0.1029 -0.3111
19907TIP3    H181212   1.266   2.589   3.856 -1.2603 -0.1538  0.1770
19907TIP3    H281213   1.164   2.493   3.798 -0.1551 -1.7843  0.8799
19908TIP3   OH281214   2.221   2.273   0.540 -0.6786 -0.1851  0.3683
19908TIP3    H181215   2.310   2.280   0.508 -0.5783 -2.6932 -0.1429
19908TIP3    H281216   2.186   2.362   0.536  1.3642  0.6264 -0.6246
19909TIP3   OH281217   0.600   2.539  15.808 -0.5572  0.0035 -0.3615
19909TIP3    H181218   0.686   2.497  15.816  0.9937  2.6736 -1.4542
19909TIP3    H281219   0.564   2.504  15.727 -0.7351 -1.4796  0.3343
19910TIP3   OH281220   4.581   2.649  11.667 -0.0807  0.4684  0.4126
19910TIP3    H181221   4.643   2.672  11.737  0.7803 -0.5133  0.0010
19910TIP3    H281222   4.547   2.563  11.692  0.3356  0.0488 -0.4301
19911TIP3   OH281223   6.743   4.728  15.092 -0.0294  0.0620 -0.0941
19911TIP3    H181224   6.822   4.768  15.128 -0.6955  0.4115  1.0381
19911TIP3    H281225   6.753   4.736  14.997  1.2887  0.0936  0.0307
19912TIP3   OH281226   1.300   0.324   5.939  0.7092 -0.1464  0.0702
19912TIP3    H181227   1.227   0.361   5.989 -0.6877 -2.3030 -0.2649
19912TIP3    H281228   1.335   0.398   5.890 -0.7319  1.1088  0.8378
19913TIP3   OH281229   1.141   3.883   4.645  0.4179 -0.0198 -0.0662
19913TIP3    H181230   1.083   3.864   4.718  0.6029 -0.2114  0.0327
19913TIP3    H281231   1.134   3.978   4.633  0.5760  0.0461  0.3626
19914TIP3   OH281232   4.076   0.135  14.658 -0.1801 -0.2310  0.0078
19914TIP3    H181233   4.091   0.099  14.746 -0.2791  0.4068  0.2954
19914TIP3    H281234   4.120   0.074  14.599  1.0053  0.0083  0.6009
19915TIP3   OH281235   3.700   3.970  11.101  0.3466 -0.4844  0.2380
19915TIP3    H181236   3.637   4.027  11.057  0.8888  0.1189  0.2371
19915TIP3    H281237   3.734   4.023  11.173 -3.0141 -2.4530  3.7013
19916TIP3   OH281238   5.373   4.864   4.444 -0.0276  0.4777  0.0400
19916TIP3    H181239   5.395   4.781   4.486 -0.3203 -0.2519 -1.1991
19916TIP3    H281240   5.401   4.854   4.353 -0.6196  1.5060 -0.2821
19917TIP3   OH281241   4.385   6.673   2.190  0.3191 -0.0452  0.3682
19917TIP3    H181242   4.455   6.697   2.249 -2.3532  1.0662  3.3878
19917TIP3    H281243   4.398   6.727   2.112  3.5898 -1.0858  0.0683
19918TIP3   OH281244   5.243   1.777   0.531  0.0492 -0.1898 -0.3354
19918TIP3    H181245   5.260   1.688   0.563  0.1760  0.2397  0.8539
19918TIP3    H281246   5.205   1.764   0.444 -0.0366 -1.4156 -0.1410
19919TIP3   OH281247   1.252   3.540  12.193  0.2153  0.1093  0.2852
19919TIP3    H181248   1.238   3.448  12.171  1.6411 -0.3952  1.2859
19919TIP3    H281249   1.184   3.587  12.146 -2.9447 -1.7612  2.5393
19920TIP3   OH281250   5.901   3.941   1.533 -0.4854  0.2503 -0.0432
19920TIP3    H181251   5.880   4.026   1.494  2.7991  1.4250  0.3568
19920TIP3    H281252   5.898   3.879   1.461 -2.6083  0.7239 -0.4169
19921TIP3   OH281253   1.241   5.969   5.571 -0.1298  0.1956  0.1514
19921TIP3    H181254   1.164   6.004   5.526 -1.0744 -1.2483  0.5805
19921TIP3    H281255   1.287   6.046   5.604 -2.3479  1.0481  1.4448
19922TIP3   OH281256   6.051   5.070  15.634  0.0799 -0.3258  0.3707
19922TIP3    H181257   6.010   4.993  15.675  0.0937 -1.1564 -1.1029
19922TIP3    H281258   6.144   5.050  15.632  0.3392  0.6128  1.7434
19923TIP3   OH281259   5.025   3.735  13.392  0.0593 -0.3594  0.4509
19923TIP3    H181260   5.045   3.829  13.385  1.5887 -0.6716  0.1088
19923TIP3    H281261   4.954   3.721  13.329  2.0558  0.0196 -2.0815
19924TIP3   OH281262   2.265   6.230  17.096  0.0488  0.1985  0.0365
19924TIP3    H181263   2.218   6.148  17.079 -0.4365  0.2871  0.9234
19924TIP3    H281264   2.197   6.297  17.097  0.1755  0.3231  1.3896
19925TIP3   OH281265   0.977   4.725   0.719  0.2501  0.4076  0.1157
19925TIP3    H181266   1.041   4.685   0.778  1.6243  1.8487 -0.3299
19925TIP3    H281267   0.997   4.687   0.633  0.3784  0.7208  0.0077
19926TIP3   OH281268   4.533   6.023  16.683 -0.6844  0.2425  0.2774
19926TIP3    H181269   4.542   5.975  16.766  0.4270  0.5218  0.3341
19926TIP3    H281270   4.498   5.959  16.622 -1.8850  0.1294  1.0458
19927TIP3   OH281271   0.217   5.955  11.148 -0.6409  0.1762 -0.1357
19927TIP3    H181272   0.221   5.894  11.074 -3.2266 -1.0956  0.6392
19927TIP3    H281273   0.258   5.908  11.221  0.9649  1.0151 -0.4578
19928TIP3   OH281274   3.979   5.534  15.754  0.3764 -0.2338  0.0595
19928TIP3    H181275   3.895   5.489  15.750  0.5457 -0.4622 -1.9613
19928TIP3    H281276   3.959   5.619  15.795 -0.4561 -1.0252  1.3548
19929TIP3   OH281277   4.590   2.257  12.044 -0.7295  0.4454 -0.1568
19929TIP3    H181278   4.498   2.280  12.059 -0.2101  3.4534 -0.9089
19929TIP3    H281279   4.623   2.234  12.130 -2.2006 -0.8622  0.0993
19930TIP3   OH281280   5.262   5.008  14.661 -0.0447 -0.0209  0.1994
19930TIP3    H181281   5.262   5.102  14.678 -2.8781 -0.2261  1.7881
19930TIP3    H281282   5.293   5.000  14.571 -0.8341  2.5337 -0.3650
19931TIP3   OH281283   6.815   3.627   3.693  0.5811 -0.1568 -0.3489
19931TIP3    H181284   6.834   3.534   3.706 -1.0650 -1.0386 -3.3842
19931TIP3    H281285   6.720   3.635   3.702  0.7251  1.3394  0.2587
19932TIP3   OH281286   2.483   4.543   4.562  0.0271  0.1356  0.0364
19932TIP3    H181287   2.422   4.544   4.636  0.8346  1.4139  0.7183
19932TIP3    H281288   2.490   4.634   4.536 -0.2394 -0.3034 -1.6472
19933TIP3   OH281289   1.528   4.401   2.672 -0.0905 -0.5460  0.1486
19933TIP3    H181290   1.436   4.419   2.654 -0.1325 -0.1620  0.7290
19933TIP3    H281291   1.557   4.474   2.726  0.8149 -0.1674 -0.8108
19934TIP3   OH281292   0.141   5.141  13.546 -0.3837 -0.0144  0.2790
19934TIP3    H181293   0.171   5.199  13.616 -1.7965  2.5796 -1.0944
19934TIP3    H281294   0.083   5.079  13.589 -1.3392  1.6081  1.4535
19935TIP3   OH281295   3.557   2.432  14.471 -0.3704  0.2463 -0.0975
19935TIP3    H181296   3.562   2.336  14.467 -1.1170  0.2148 -3.5317
19935TIP3    H281297   3.641   2.462  14.437 -0.0098  0.8760  1.2720
19936TIP3   OH281298   6.655   3.356   1.827  0.1295  0.3049  0.3525
19936TIP3    H181299   6.646   3.344   1.921 -0.1109 -0.7890  0.2078
19936TIP3    H281300   6.607   3.283   1.789 -1.5735  1.8854 -0.6694
19937TIP3   OH281301   4.961   0.704  16.809 -0.1379 -0.1322 -1.3337
19937TIP3    H181302   5.035   0.656  16.846 -0.1733  0.0639 -1.0109
19937TIP3    H281303   5.000   0.782  16.769 -0.0811 -0.4234 -1.8552
19938TIP3   OH281304   4.821   0.811   2.723  0.1700 -0.0524  0.4084
19938TIP3    H181305   4.766   0.738   2.693  0.9185  0.4373 -2.4023
19938TIP3    H281306   4.908   0.773   2.734  0.4690  0.2871 -0.6560
19939TIP3   OH281307   0.769   4.780  12.908 -0.4139  0.4819 -0.1772
19939TIP3    H181308   0.747   4.819  12.992  0.1046 -0.8711  0.6287
19939TIP3    H281309   0.829   4.708  12.930 -0.8869 -0.4007 -1.6274
19940TIP3   OH281310   4.019   6.799  15.297 -0.2420 -0.1067 -0.4132
19940TIP3    H181311   3.948   6.744  15.264 -0.2928  0.3487 -1.0673
19940TIP3    H281312   3.998   6.887  15.268  0.3822  0.0975 -0.2711
19941TIP3   OH281313   2.288   3.577   5.951 -0.2390 -0.5331 -0.0901
19941TIP3    H181314   2.366   3.616   5.991  0.6468 -1.1250 -1.1838
19941TIP3    H281315   2.270   3.499   6.004  0.0251 -0.5032  0.0442
19942TIP3   OH281316   3.189   5.620  16.422  0.6555  0.4498 -0.3470
19942TIP3    H181317   3.242   5.590  16.348  0.0232  1.3349 -1.1752
19942TIP3    H281318   3.100   5.593  16.401  0.4698  0.7089  0.0860
19943TIP3   OH281319   6.715   5.579   4.007 -0.3958 -0.3444  0.2946
19943TIP3    H181320   6.808   5.586   4.030 -0.5995  0.5147  0.9052
19943TIP3    H281321   6.674   5.540   4.084 -0.8809  1.3724  0.9569
19944TIP3   OH281322   0.567   3.524  14.974 -0.6018 -0.2761 -0.1320
19944TIP3    H181323   0.488   3.475  14.998 -1.6136  1.1752 -0.3986
19944TIP3    H281324   0.561   3.606  15.023  0.9825 -0.3064  0.1846
19945TIP3   OH281325   1.283   4.478   3.443 -0.3681 -0.3962 -0.3362
19945TIP3    H181326   1.344   4.407   3.424 -0.7521 -1.1696  1.1567
19945TIP3    H281327   1.302   4.544   3.377 -0.4085 -2.1120 -2.1874
19946TIP3   OH281328   1.836   1.792  12.557 -0.7281 -0.2529  0.2827
19946TIP3    H181329   1.742   1.793  12.535 -0.6414 -0.4005 -0.1067
19946TIP3    H281330   1.871   1.717  12.510 -0.4850 -0.4311  0.7466
19947TIP3   OH281331   3.362   0.899   2.212 -0.4725 -0.1125 -0.3363
19947TIP3    H181332   3.445   0.942   2.192 -0.4908 -0.2272 -0.6629
19947TIP3    H281333   3.379   0.806   2.198 -0.3915 -0.2345  0.5128
19948TIP3   OH281334   1.691   0.270  10.970 -0.0413  0.0756  0.1033
19948TIP3    H181335   1.618   0.332  10.976  0.3202  0.4659  0.4873
19948TIP3    H281336   1.735   0.292  10.888  0.2156  0.4676  0.3468
19949TIP3   OH281337   6.583   2.482   3.939 -0.0530 -0.3953  0.1115
19949TIP3    H181338   6.666   2.459   3.898 -0.0657 -0.3352  0.0513
19949TIP3    H281339   6.536   2.531   3.871  0.5347  1.0261  0.6865
19950TIP3   OH281340   5.754   5.404  11.615  0.2726  0.5516 -0.5082
19950TIP3    H181341   5.813   5.475  11.639  1.3927  0.0000 -1.4948
19950TIP3    H281342   5.792   5.327  11.657  0.7416  0.0527 -1.7886
19951TIP3   OH281343   2.778   6.462  15.186  0.2363 -0.8935  0.0411
19951TIP3    H181344   2.779   6.369  15.163  1.0564 -0.8642 -0.0537
19951TIP3    H281345   2.801   6.464  15.279 -1.7477 -0.9123  0.5853
19952TIP3   OH281346   0.172   1.557  12.884 -0.2873 -0.0806 -0.5473
19952TIP3    H181347   0.205   1.628  12.939  0.2431 -0.6241 -0.1498
19952TIP3    H281348   0.122   1.601  12.815 -1.6598  0.5816  0.8082
19953TIP3   OH281349   2.198   5.609  15.464  0.1540  0.4052  0.2473
19953TIP3    H181350   2.166   5.681  15.410  1.3911  1.4293  0.8170
19953TIP3    H281351   2.156   5.622  15.549 -0.2714 -0.0470  0.1090
19954TIP3   OH281352   0.203   6.701  13.267 -0.0872 -0.2299 -0.3626
19954TIP3    H181353   0.218   6.793  13.247 -0.7644 -0.5354 -2.5990
19954TIP3    H281354   0.223   6.655  13.185  1.5080 -2.2634  1.0282
19955TIP3   OH281355   0.022   4.767  12.166  0.0614 -0.0425 -0.1662
19955TIP3    H181356   0.029   4.747  12.073  2.3076  3.0135 -0.8128
19955TIP3    H281357  -0.072   4.768  12.184 -0.4928  0.6766 -2.7684
19956TIP3   OH281358   5.899   2.554  12.010 -0.0315  0.6291  0.1668
19956TIP3    H181359   5.982   2.546  11.963 -0.6786  0.5667 -0.9964
19956TIP3    H281360   5.902   2.641  12.049  1.4597 -0.1366  1.9275
19957TIP3   OH281361   3.694   3.147  16.992  0.2579  0.3070 -0.4307
19957TIP3    H181362   3.688   3.122  17.084 -1.1831 -1.9943 -1.0737
19957TIP3    H281363   3.636   3.222  16.984  2.5960  2.4398  1.0249
19958TIP3   OH281364   2.361   1.526   5.100 -0.1795  0.3340  0.1446
19958TIP3    H181365   2.432   1.494   5.156 -0.3462  0.3859  0.3861
19958TIP3    H281366   2.331   1.606   5.142  0.1937  0.7775 -0.4326
19959TIP3   OH281367   5.416   6.342   4.034 -1.0122  0.0316  0.7608
19959TIP3    H181368   5.360   6.291   4.092 -5.4907  2.1648 -1.2336
19959TIP3    H281369   5.378   6.430   4.035  1.6651  1.3834 -1.7084
19960TIP3   OH281370   2.111   1.935  16.846  0.0077  0.3008  0.6516
19960TIP3    H181371   2.075   1.846  16.842  0.8792 -0.0140 -0.6130
19960TIP3    H281372   2.063   1.983  16.779 -0.2383  0.7173  1.1200
19961TIP3   OH281373   4.282   1.664   4.837 -0.1484  0.2538 -0.3846
19961TIP3    H181374   4.337   1.624   4.904 -0.2990 -0.0137 -0.4184
19961TIP3    H281375   4.194   1.630   4.856 -0.5488  1.6693  0.4591
19962TIP3   OH281376   2.087   3.865   2.455 -0.7438  0.2762  0.0293
19962TIP3    H181377   2.025   3.797   2.431  0.0552 -0.5986  0.3643
19962TIP3    H281378   2.133   3.886   2.374 -2.7520  2.3337 -0.6644
19963TIP3   OH281379   4.631   0.224   2.425  0.8901 -0.7019  0.2725
19963TIP3    H181380   4.695   0.296   2.423 -0.4398  0.5220 -1.0647
19963TIP3    H281381   4.546   0.268   2.425  0.0133 -2.2563 -1.6963
19964TIP3   OH281382   1.863   1.037  13.105  0.2271  0.4961  0.3521
19964TIP3    H181383   1.873   0.958  13.053 -1.3538  1.1845 -1.0909
19964TIP3    H281384   1.952   1.063  13.127  0.7560 -1.9096  1.2650
19965TIP3   OH281385   6.296   4.924  14.118 -0.6145 -0.3881  0.2514
19965TIP3    H181386   6.247   4.853  14.074 -1.5663  0.7086 -0.5168
19965TIP3    H281387   6.229   4.974  14.164 -0.0415  0.4186  0.2223
19966TIP3   OH281388   0.231   3.644   5.250 -0.1370  0.6578 -0.0727
19966TIP3    H181389   0.198   3.585   5.182  1.3846 -0.0714 -0.2101
19966TIP3    H281390   0.178   3.723   5.240 -1.9758 -0.5127 -0.1245
19967TIP3   OH281391   1.131   6.760  14.316  0.2826  0.3340  0.0761
19967TIP3    H181392   1.111   6.823  14.246 -0.2325  2.1509  1.7491
19967TIP3    H281393   1.215   6.791  14.352  1.3570 -1.5195 -0.6847
19968TIP3   OH281394   4.401   1.398  13.374  0.5693 -0.0176  0.2452
19968TIP3    H181395   4.349   1.420  13.451 -1.2807 -0.9407 -0.6845
19968TIP3    H281396   4.451   1.477  13.356 -2.3743  1.8692 -0.2631
19969TIP3   OH281397   4.864   0.730   5.373 -0.2667  0.5980 -0.0998
19969TIP3    H181398   4.869   0.651   5.426 -1.1937  0.1020 -0.7201
19969TIP3    H281399   4.795   0.712   5.309 -1.8284  2.6089  0.9160
19970TIP3   OH281400   3.656   5.015   5.318  0.0656  0.3572 -0.0695
19970TIP3    H181401   3.668   5.110   5.317  1.3508  0.2190  0.7770
19970TIP3    H281402   3.561   5.003   5.312 -0.0776  1.6717 -0.7781
19971TIP3   OH281403   5.853   3.325   0.067  0.0705  0.2796 -0.5072
19971TIP3    H181404   5.862   3.406   0.118  1.0762 -0.5758  0.7594
19971TIP3    H281405   5.761   3.302   0.075  0.0727  0.5391  0.3694
19972TIP3   OH281406   0.564   1.273   5.983  0.2637  0.0334  1.2171
19972TIP3    H181407   0.578   1.331   6.058  0.9443  2.0211 -0.3374
19972TIP3    H281408   0.478   1.299   5.949  0.8776  0.6832  0.0956
19973TIP3   OH281409   2.913   1.858  16.127 -0.4887  0.0201  0.5769
19973TIP3    H181410   2.892   1.772  16.091 -0.5677 -0.0651  0.8199
19973TIP3    H281411   2.952   1.906  16.055 -0.3733 -0.2485  0.4595
19974TIP3   OH281412   6.351   3.085   6.730 -0.1584 -0.2501  0.0043
19974TIP3    H181413   6.258   3.088   6.751 -0.4057 -1.4662 -0.7936
19974TIP3    H281414   6.374   2.993   6.738  1.1257  0.1174  0.7513
19975TIP3   OH281415   0.060   1.000  16.685  0.1091  0.1789  0.4841
19975TIP3    H181416   0.095   0.942  16.617  0.4290  0.2767  0.5624
19975TIP3    H281417   0.075   0.952  16.767  1.6365  0.9379  0.6903
19976TIP3   OH281418   2.749   0.467  11.833  0.3507  0.2349  0.1441
19976TIP3    H181419   2.790   0.388  11.797  1.2708  1.4519 -1.6260
19976TIP3    H281420   2.741   0.526  11.758 -2.4907  0.9822  0.9113
19977TIP3   OH281421   3.242   0.980   5.513 -0.2447 -0.0363 -0.3971
19977TIP3    H181422   3.202   0.961   5.429 -0.0287 -1.1729 -0.2559
19977TIP3    H281423   3.282   0.898   5.540  1.3947  0.8233 -0.1011
19978TIP3   OH281424   3.995   1.078   2.245 -0.0453 -0.0684  0.2653
19978TIP3    H181425   4.085   1.108   2.253 -0.1869  0.6846 -0.8300
19978TIP3    H281426   3.946   1.156   2.216 -0.9226 -0.6396  0.1729
19979TIP3   OH281427   4.363   2.174  12.220  0.2017 -0.3334 -0.6063
19979TIP3    H181428   4.269   2.171  12.202 -0.0693 -1.2585  0.7728
19979TIP3    H281429   4.372   2.238  12.291  0.8592  1.0290 -1.8669
19980TIP3   OH281430   3.203   6.266   0.401  0.1490 -0.2223  0.3108
19980TIP3    H181431   3.134   6.332   0.411  0.0178 -0.3112  0.0265
19980TIP3    H281432   3.179   6.197   0.462 -0.1145 -0.3318  0.0875
19981TIP3   OH281433   4.340   6.013  15.560 -0.3027 -0.3315  0.2130
19981TIP3    H181434   4.398   6.082  15.593  0.1464 -0.3021 -0.5983
19981TIP3    H281435   4.399   5.941  15.536 -0.3367  0.4289 -2.4582
19982TIP3   OH281436   5.607   4.697  14.953 -0.1199  0.1780  0.2765
19982TIP3    H181437   5.518   4.665  14.968  0.0099 -0.8057 -0.8717
19982TIP3    H281438   5.596   4.764  14.885 -0.0686  0.6025  0.6864
19983TIP3   OH281439   2.945   3.290   0.829  0.1917 -0.4490 -0.0800
19983TIP3    H181440   2.905   3.360   0.776  0.8861 -0.8238 -1.1102
19983TIP3    H281441   2.919   3.209   0.785  0.2454 -0.8040  0.5310
19984TIP3   OH281442   2.971   1.918  12.915  0.2070  0.4335  0.6029
19984TIP3    H181443   2.960   1.933  12.821  2.4749  0.0427  0.2110
19984TIP3    H281444   2.953   2.003  12.955  2.3761  1.5211 -0.5479
19985TIP3   OH281445   2.517   2.374   1.268 -0.3082  0.1232  0.4620
19985TIP3    H181446   2.497   2.467   1.274 -0.8123  0.0523  0.0302
19985TIP3    H281447   2.495   2.351   1.177  2.1542  0.1093 -0.2097
19986TIP3   OH281448   1.328   0.334  12.231  0.1905 -0.1030 -0.5926
19986TIP3    H181449   1.320   0.380  12.147  0.9590 -0.8513 -1.0921
19986TIP3    H281450   1.270   0.259  12.223  0.8372 -0.5988 -0.7713
19987TIP3   OH281451   1.899   3.848   5.744 -0.1705  0.0819  0.0372
19987TIP3    H181452   1.922   3.909   5.814 -0.0684 -0.0456  0.1142
19987TIP3    H281453   1.825   3.890   5.700  0.6887  0.8706 -0.6979
19988TIP3   OH281454   4.917   0.634  14.518  0.5589 -0.4575  0.4912
19988TIP3    H181455   4.884   0.599  14.435  1.7321  0.4549 -0.4097
19988TIP3    H281456   4.902   0.729  14.511  1.9615 -0.1952  0.6646
19989TIP3   OH281457   1.464   6.377   4.192  0.1338 -0.4017 -0.4155
19989TIP3    H181458   1.543   6.322   4.198  0.4531 -0.2630 -2.6256
19989TIP3    H281459   1.481   6.448   4.253  1.0733 -1.1347  0.2228
19990TIP3   OH281460   5.003   1.642  13.274 -0.2836  0.0912  0.2695
19990TIP3    H181461   4.910   1.650  13.253 -0.5900 -0.3536  1.3674
19990TIP3    H281462   5.036   1.731  13.273 -0.9554  0.3531  0.8741
19991TIP3   OH281463   1.397   0.906  14.310 -0.2758 -0.4519 -0.7039
19991TIP3    H181464   1.372   0.827  14.263  0.4678 -0.8146 -0.5030
19991TIP3    H281465   1.445   0.959  14.246  0.6441 -0.8986 -0.4041
19992TIP3   OH281466   5.451   5.110  16.034  0.9157 -0.1177 -0.0629
19992TIP3    H181467   5.420   5.195  16.005  0.7016  0.0973  0.7725
19992TIP3    H281468   5.522   5.088  15.974 -0.8420 -0.6371 -2.0718
19993TIP3   OH281469   6.096   1.511   5.206  0.5277 -0.5875 -0.8171
19993TIP3    H181470   6.184   1.504   5.241 -0.2638 -1.5670  1.1382
19993TIP3    H281471   6.076   1.605   5.208  0.4996 -0.5937  1.5455
19994TIP3   OH281472   5.067   1.059   6.559 -0.0871  0.7768  0.5952
19994TIP3    H181473   5.123   1.009   6.618  1.4210  0.3836 -1.0629
19994TIP3    H281474   5.126   1.124   6.521 -1.3633  1.9775  0.6124
19995TIP3   OH281475   1.030   0.460   1.063 -0.2812  0.2288 -0.0988
19995TIP3    H181476   1.019   0.505   1.147 -2.1819  0.1520 -0.2747
19995TIP3    H281477   1.082   0.520   1.010 -0.5187  1.0327  0.5589
19996TIP3   OH281478   1.965   1.461   1.851  0.1244 -0.0422  0.4902
19996TIP3    H181479   1.991   1.520   1.780  1.4353 -0.6676  0.4155
19996TIP3    H281480   1.939   1.518   1.923  1.8309  0.6374  0.5916
19997TIP3   OH281481   2.735   0.723   1.473  0.7253  0.3847 -0.6484
19997TIP3    H181482   2.684   0.660   1.524  1.1239  0.1822 -0.4959
19997TIP3    H281483   2.769   0.784   1.538  0.2937  0.7977 -0.8025
19998TIP3   OH281484   3.168   0.035   3.459 -0.1916 -0.2872  0.4375
19998TIP3    H181485   3.138  -0.055   3.451 -0.4110 -0.2005  0.2550
19998TIP3    H281486   3.262   0.028   3.476  0.1106 -0.5315 -1.1323
19999TIP3   OH281487   4.145   3.539  13.597 -0.1311 -0.2961 -0.3497
19999TIP3    H181488   4.200   3.563  13.523 -2.0905  0.5979 -1.5889
19999TIP3    H281489   4.173   3.598  13.667  0.1183  0.5344 -1.1201
20000TIP3   OH281490   3.244   0.938  15.929  0.5257  0.2016 -0.4290
20000TIP3    H181491   3.178   0.881  15.890 -0.5940  0.5600  0.8643
20000TIP3    H281492   3.228   1.024  15.891 -0.2846  0.4562  0.4460
20001TIP3   OH281493   1.012   3.129   2.297  0.0253  0.3259  0.4873
20001TIP3    H181494   0.964   3.153   2.218 -0.4615  0.6816  0.8908
20001TIP3    H281495   1.087   3.079   2.265 -0.7454 -0.4620 -0.1342
20002TIP3   OH281496   3.077   1.791   1.303  0.6582  0.7868 -0.5371
20002TIP3    H181497   3.012   1.852   1.337 -0.9732 -2.3033  2.4217
20002TIP3    H281498   3.039   1.759   1.221  0.3177  1.7715 -0.7823
20003TIP3   OH281499   1.293   2.339   1.195  0.0669  0.0289  0.0826
20003TIP3    H181500   1.380   2.333   1.234  0.1864  0.2257 -0.1583
20003TIP3    H281501   1.254   2.416   1.236 -0.5842 -0.9501  1.3774
20004TIP3   OH281502   1.050   4.214  14.681  0.1250  0.1550  0.2793
20004TIP3    H181503   1.046   4.207  14.777  0.0925  0.6923  0.3181
20004TIP3    H281504   1.022   4.303  14.662 -0.4892 -0.1462 -0.2767
20005TIP3   OH281505   2.971   2.729  16.742 -0.0906 -0.4533 -0.7579
20005TIP3    H181506   3.053   2.743  16.790 -0.0346  0.1620 -1.0235
20005TIP3    H281507   2.955   2.812  16.697  0.4844 -1.3648 -2.7861
20006TIP3   OH281508   1.522   4.282   3.385 -0.1505 -0.2247  0.4739
20006TIP3    H181509   1.507   4.203   3.438 -0.6440  0.2430  1.0545
20006TIP3    H281510   1.604   4.265   3.339 -0.4438 -1.2272  0.2998
20007TIP3   OH281511   3.543   0.945  15.853 -0.5026  0.2152  0.1559
20007TIP3    H181512   3.452   0.926  15.873 -0.4004 -1.0923 -0.5193
20007TIP3    H281513   3.541   0.990  15.769 -0.4535 -1.0560 -0.5424
20008TIP3   OH281514   1.265   5.703   5.923  0.5365  0.1207 -0.3445
20008TIP3    H181515   1.316   5.704   6.004 -0.4525 -0.1042  0.2961
20008TIP3    H281516   1.204   5.630   5.933  1.9765 -1.4466 -2.3190
20009TIP3   OH281517   5.500   2.106   3.057  0.0729 -0.4627  0.1153
20009TIP3    H181518   5.408   2.079   3.064 -0.1885  0.1743 -0.6669
20009TIP3    H281519   5.528   2.119   3.147 -0.9490  0.4444  0.3290
20010TIP3   OH281520   1.319   4.088  12.673 -0.0149  0.1404  0.3477
20010TIP3    H181521   1.230   4.107  12.704 -0.7762 -0.3444 -1.4178
20010TIP3    H281522   1.311   4.082  12.578  1.3938 -2.3845  0.2880
20011TIP3   OH281523   1.742   1.946   0.894 -0.1454  0.2613 -0.1538
20011TIP3    H181524   1.732   2.001   0.817  1.2602  0.9280  0.0930
20011TIP3    H281525   1.659   1.901   0.903 -0.5609  0.6656 -1.6729
20012TIP3   OH281526   1.257   4.955   3.823 -0.4195  0.3362  0.1149
20012TIP3    H181527   1.218   4.902   3.753  0.9360 -0.1034 -0.3501
20012TIP3    H281528   1.340   4.985   3.786 -1.0943  2.7378  0.4045
20013TIP3   OH281529   2.555   5.537   1.368 -0.3602  0.4459  0.2858
20013TIP3    H181530   2.584   5.591   1.294 -1.7165 -0.7601 -1.1847
20013TIP3    H281531   2.490   5.591   1.413  2.0808  2.1224  2.0839
20014TIP3   OH281532   5.374   5.194   0.673 -1.0861  0.1850 -0.0211
20014TIP3    H181533   5.435   5.188   0.599 -0.4269  1.9253  0.3200
20014TIP3    H281534   5.312   5.124   0.659  1.0197 -1.7335 -0.3561
20015TIP3   OH281535   5.161   5.152   2.697 -0.1996 -0.2436  0.3487
20015TIP3    H181536   5.200   5.079   2.648 -2.1361 -1.0496 -0.0746
20015TIP3    H281537   5.141   5.116   2.783  1.2386  0.5743  1.0629
20016TIP3   OH281538   0.329   1.348  15.433  0.2856 -0.0595 -0.3479
20016TIP3    H181539   0.289   1.282  15.375 -1.4876  1.0967 -0.5152
20016TIP3    H281540   0.319   1.430  15.385  2.9860  0.3153 -0.3983
20017TIP3   OH281541   3.494   0.178  15.794 -0.0075  0.8108 -0.2610
20017TIP3    H181542   3.477   0.216  15.708 -3.2361 -1.4851 -0.8324
20017TIP3    H281543   3.518   0.087  15.775 -3.3073 -0.4969  1.1687
20018TIP3   OH281544   5.801   6.653   4.405  0.4479 -0.1345  0.2873
20018TIP3    H181545   5.803   6.694   4.318  1.6774  1.2440  0.9264
20018TIP3    H281546   5.726   6.695   4.449  0.3490 -0.2107  0.1937
20019TIP3   OH281547   6.439   1.331  11.382  0.9455  0.0918 -0.1574
20019TIP3    H181548   6.390   1.383  11.445  0.3823 -0.4341 -0.1564
20019TIP3    H281549   6.530   1.361  11.392  0.3717  2.5384 -1.5872
20020TIP3   OH281550   4.053   0.498   4.814  0.7824 -0.1638  0.1793
20020TIP3    H181551   4.010   0.566   4.865  2.8327  2.4139 -1.3076
20020TIP3    H281552   4.013   0.505   4.727  1.4451 -0.4327 -0.1536
20021TIP3   OH281553   5.795   1.803   3.760 -0.1104  0.1174  0.7236
20021TIP3    H181554   5.802   1.716   3.800 -1.7216 -0.2460  0.3036
20021TIP3    H281555   5.867   1.807   3.698 -0.7154 -1.4475 -0.1492
20022TIP3   OH281556   0.686   4.325   6.444 -0.0303 -0.0725  0.5293
20022TIP3    H181557   0.753   4.257   6.432 -0.0361  0.1998 -1.4979
20022TIP3    H281558   0.731   4.395   6.491  0.9260 -0.1917 -0.1740
20023TIP3   OH281559   3.197   6.521   4.560 -0.9181 -0.3615  0.1588
20023TIP3    H181560   3.214   6.524   4.654  2.6352 -2.2606 -0.2759
20023TIP3    H281561   3.195   6.613   4.533 -0.9246  0.1828  1.8967
20024TIP3   OH281562   3.325   0.217   0.169 -0.2405 -0.3377 -0.8165
20024TIP3    H181563   3.301   0.250   0.082 -1.0732  2.0422  0.2364
20024TIP3    H281564   3.241   0.207   0.215  0.2996  0.9644  0.5265
20025TIP3   OH281565   1.265   2.537   0.275 -0.0079  0.1065  0.2860
20025TIP3    H181566   1.173   2.563   0.270  0.5713  2.2065 -0.2031
20025TIP3    H281567   1.303   2.565   0.192  1.7181  2.0939  1.6461
20026TIP3   OH281568   0.473   2.738  13.665 -0.1856  0.1835  0.1932
20026TIP3    H181569   0.473   2.817  13.610  2.3282  0.5186  0.5522
20026TIP3    H281570   0.470   2.771  13.755 -2.5471 -0.3083  0.3461
20027TIP3   OH281571   4.536   5.679   1.913 -0.2093 -0.1064 -0.1339
20027TIP3    H181572   4.603   5.648   1.852 -0.3961  2.1472 -1.6398
20027TIP3    H281573   4.579   5.750   1.962 -0.7924 -0.2626  0.6167
20028TIP3   OH281574   5.511   3.004   1.037 -0.2499  0.1612 -0.1668
20028TIP3    H181575   5.429   2.984   1.083  0.0418  0.1894  0.3795
20028TIP3    H281576   5.544   3.083   1.080  0.2939 -0.1103 -0.0771
20029TIP3   OH281577   0.922   5.111  15.717  0.3816  0.3431 -0.4428
20029TIP3    H181578   0.916   5.064  15.800  0.8237 -0.0218 -0.6102
20029TIP3    H281579   1.016   5.123  15.703  0.3935 -0.7080 -1.4784
20030TIP3   OH281580   0.433   1.985  10.602  0.4041  0.4715 -0.6096
20030TIP3    H181581   0.361   1.972  10.540  1.4632  0.8024 -1.9636
20030TIP3    H281582   0.397   2.042  10.670 -1.2701 -1.2074 -0.0094
20031TIP3   OH281583   5.320   3.185  13.945 -0.2316  0.0090  0.0129
20031TIP3    H181584   5.282   3.268  13.975  0.8076  0.0862  1.1752
20031TIP3    H281585   5.384   3.211  13.879 -0.5261  0.0601 -0.2544
20032TIP3   OH281586   3.163   5.607   0.236 -0.3341 -0.5390  0.2385
20032TIP3    H181587   3.171   5.697   0.204 -4.7530 -0.2887 -0.7228
20032TIP3    H281588   3.129   5.617   0.325 -1.1226 -1.2498  0.0214
20033TIP3   OH281589   5.654   4.719   1.865  0.3695 -0.2913 -0.4947
20033TIP3    H181590   5.628   4.749   1.952 -0.9641  0.6030 -1.1509
20033TIP3    H281591   5.709   4.790   1.831 -0.7078  0.2882 -1.0886
20034TIP3   OH281592   3.252   3.588   3.120  0.0591  0.4899  0.7209
20034TIP3    H181593   3.284   3.577   3.209 -3.2985 -0.3010  1.9889
20034TIP3    H281594   3.258   3.500   3.082  0.1153  0.5116  0.6791
20035TIP3   OH281595   1.373   1.496  12.778 -0.0684 -0.3726  0.2474
20035TIP3    H181596   1.402   1.585  12.759 -0.2401 -0.6674 -1.5942
20035TIP3    H281597   1.430   1.466  12.849  0.6522  0.8570  0.2078
20036TIP3   OH281598   1.156   5.639  14.131 -0.3898 -0.0377  0.4416
20036TIP3    H181599   1.221   5.694  14.175  1.2134 -2.1071  0.8135
20036TIP3    H281600   1.073   5.660  14.175 -0.8616  5.0436 -2.1502
20037TIP3   OH281601   3.974   4.119  16.828 -0.1087 -0.2286  0.0184
20037TIP3    H181602   4.041   4.104  16.894  0.4660 -0.9684 -0.7121
20037TIP3    H281603   3.925   4.037  16.824 -3.0013  1.1681  2.6014
20038TIP3   OH281604   3.709   4.216  12.101  0.0904 -0.2600 -0.5710
20038TIP3    H181605   3.703   4.234  12.195  2.1163  0.3932 -0.5195
20038TIP3    H281606   3.682   4.298  12.060 -0.0683 -0.3018 -0.5518
20039TIP3   OH281607   4.449   0.510  13.488  0.5495 -0.1322 -0.0680
20039TIP3    H181608   4.363   0.472  13.503  0.2906  0.4111 -0.1325
20039TIP3    H281609   4.436   0.571  13.415  0.9712  0.0079 -0.0290
20040TIP3   OH281610   5.366   0.899   3.724  0.5788  0.0904 -0.0391
20040TIP3    H181611   5.373   0.899   3.628  1.1701  1.6119 -0.0211
20040TIP3    H281612   5.457   0.909   3.754  0.3219  0.3214  0.6725
20041TIP3   OH281613   5.464   1.497   2.426 -0.4285  0.0247  0.1092
20041TIP3    H181614   5.447   1.493   2.331 -0.9636 -0.4128  0.2191
20041TIP3    H281615   5.449   1.407   2.456  0.1864  0.0617  0.5372
20042TIP3   OH281616   4.739   1.986   3.012 -1.1080 -0.0853 -0.3599
20042TIP3    H181617   4.660   1.987   3.067  0.6946  3.4527  2.5897
20042TIP3    H281618   4.768   1.895   3.014 -2.5514 -0.6059  2.5575
20043TIP3   OH281619   4.669   1.940   3.874  0.6336 -0.2166 -0.2238
20043TIP3    H181620   4.710   2.015   3.830 -0.8691  0.6127 -0.2958
20043TIP3    H281621   4.687   1.866   3.816 -0.4256  0.6640 -1.7834
20044TIP3   OH281622   6.098   3.568   5.704 -0.0255  0.5823  0.4640
20044TIP3    H181623   6.014   3.537   5.737  0.1292 -0.0862  0.2310
20044TIP3    H281624   6.154   3.490   5.701 -0.0137  0.6060 -1.3344
20045TIP3   OH281625   4.464   1.290   5.312 -0.0859  0.3216  0.1256
20045TIP3    H181626   4.542   1.332   5.276 -1.5584  1.6090 -1.7365
20045TIP3    H281627   4.428   1.239   5.240 -0.9102 -0.3572  0.9882
20046TIP3   OH281628   2.938   0.879  16.856 -0.0383  0.0002  1.0170
20046TIP3    H181629   2.930   0.965  16.897  1.9196  0.4837  0.4836
20046TIP3    H281630   3.013   0.887  16.797 -0.2613 -1.8644  0.4063
20047TIP3   OH281631   6.082   5.480   3.643 -0.2700 -0.4620 -0.0878
20047TIP3    H181632   6.147   5.467   3.574  0.6967  0.0094  0.6995
20047TIP3    H281633   6.055   5.571   3.635 -1.2208 -0.7886 -0.7214
20048TIP3   OH281634   6.390   4.115  16.257  0.1312  0.0603 -0.2985
20048TIP3    H181635   6.370   4.139  16.167  1.2173  0.8085 -0.3575
20048TIP3    H281636   6.306   4.123  16.303 -0.5307 -0.7871 -1.3247
20049TIP3   OH281637   0.804   3.493  12.087 -0.0461  0.1937  0.3289
20049TIP3    H181638   0.748   3.434  12.136 -0.4040  0.3677  0.1289
20049TIP3    H281639   0.748   3.568  12.066 -0.9324 -1.2689 -3.2077
20050TIP3   OH281640   2.129   1.165  14.881 -0.5021 -0.2372 -0.1541
20050TIP3    H181641   2.174   1.089  14.917  0.2521  1.2342  2.3332
20050TIP3    H281642   2.199   1.229  14.866 -1.3986  1.1091  1.0917
20051TIP3   OH281643   2.176   5.779  11.551  0.1465  0.6339 -0.6312
20051TIP3    H181644   2.181   5.687  11.576 -0.4815  0.8870  0.4921
20051TIP3    H281645   2.085   5.804  11.569 -0.4598  0.7946 -3.4437
20052TIP3   OH281646   1.215   4.202   0.891 -0.0440  0.6998  0.5040
20052TIP3    H181647   1.221   4.133   0.957 -0.9577 -0.8332 -0.9456
20052TIP3    H281648   1.123   4.230   0.894  0.6781  3.3400  2.4186
20053TIP3   OH281649   4.320   2.942  16.261 -0.5363  0.0747  0.2928
20053TIP3    H181650   4.259   3.013  16.283 -1.8628 -1.2889  1.1845
20053TIP3    H281651   4.263   2.867  16.242  0.7795 -0.4738 -1.8244
20054TIP3   OH281652   2.233   6.654  16.989  0.0562 -0.0408  0.4820
20054TIP3    H181653   2.263   6.736  17.029 -0.6793  1.1382 -1.2686
20054TIP3    H281654   2.300   6.634  16.924  0.6115 -1.2774  1.3898
20055TIP3   OH281655   1.658   5.195   3.371 -0.1738 -0.2982 -0.0516
20055TIP3    H181656   1.667   5.146   3.452  0.4523  0.9088  0.6378
20055TIP3    H281657   1.609   5.274   3.395 -1.2189 -0.5786 -1.1396
20056TIP3   OH281658   3.840   6.551  13.290 -0.0965  0.7413 -0.3478
20056TIP3    H181659   3.900   6.478  13.276 -0.2457  0.5465  0.0218
20056TIP3    H281660   3.763   6.512  13.331 -0.2915  1.0631 -0.3998
20057TIP3   OH281661   5.262   1.728  16.056 -0.0909  0.1284 -0.6068
20057TIP3    H181662   5.339   1.761  16.102 -0.1876  0.1485 -0.4592
20057TIP3    H281663   5.278   1.751  15.964 -0.1948  0.6660 -0.4945
20058TIP3   OH281664   6.444   5.166  11.916 -0.1413  0.3841  0.1542
20058TIP3    H181665   6.378   5.137  11.854  0.8402 -1.4161 -0.1156
20058TIP3    H281666   6.513   5.205  11.862 -1.1167  2.6895  0.4639
20059TIP3   OH281667   4.858   6.115   0.356 -0.3900  0.1589 -0.0145
20059TIP3    H181668   4.855   6.121   0.452 -1.5714 -1.6653  0.1091
20059TIP3    H281669   4.766   6.118   0.330 -0.0594  1.0134 -1.1427
20060TIP3   OH281670   4.696   3.153  12.078 -0.1843 -0.1379  0.2888
20060TIP3    H181671   4.784   3.144  12.042  1.0678 -0.5963  3.1466
20060TIP3    H281672   4.652   3.214  12.019  1.8302 -0.3850 -1.5883
20061TIP3   OH281673   6.417   3.039  15.088  0.4936  0.0432 -0.4592
20061TIP3    H181674   6.412   3.134  15.099  2.2758 -0.0086  1.3043
20061TIP3    H281675   6.330   3.007  15.112  0.1112  1.1642 -0.3286
20062TIP3   OH281676   2.951   5.908   2.794  0.0809  0.3747 -0.2238
20062TIP3    H181677   2.919   5.967   2.862  2.6948  1.1163  0.4625
20062TIP3    H281678   2.976   5.965   2.722  2.9738  0.2592  0.5818
20063TIP3   OH281679   0.983   4.589   4.396 -0.7994  0.9875  0.2628
20063TIP3    H181680   0.900   4.556   4.362 -0.5532  1.1852 -0.5707
20063TIP3    H281681   1.049   4.555   4.335  0.2395 -2.3521  2.9293
20064TIP3   OH281682   5.004   1.077  13.424 -0.6286  0.1485  0.1412
20064TIP3    H181683   5.076   1.133  13.453 -2.0987  1.9904  0.4208
20064TIP3    H281684   5.042   0.989  13.422  2.2766  1.2871 -1.9937
20065TIP3   OH281685   4.549   1.378  14.506  0.3383  0.1919  0.3176
20065TIP3    H181686   4.527   1.344  14.592 -0.5025  0.5557  0.2617
20065TIP3    H281687   4.615   1.317  14.472 -1.7000 -1.9250 -0.1335
20066TIP3   OH281688   4.716   1.443  12.480 -0.0414  0.8285  0.3937
20066TIP3    H181689   4.682   1.358  12.454 -0.3010  1.1705 -0.4159
20066TIP3    H281690   4.786   1.423  12.543 -0.3959  0.0484  0.5496
20067TIP3   OH281691   1.696   3.167   2.928  0.8987 -0.7575  0.2256
20067TIP3    H181692   1.663   3.257   2.922  0.7079 -0.8965 -1.2647
20067TIP3    H281693   1.673   3.127   2.844  2.7282 -1.6152  0.0772
20068TIP3   OH281694   2.008   6.394  11.911  0.5013  0.1177  0.2666
20068TIP3    H181695   2.023   6.487  11.926  1.0043  0.0389  0.2826
20068TIP3    H281696   1.946   6.391  11.838  1.7235  0.4695 -0.8368
20069TIP3   OH281697   0.535   5.452   3.704 -0.3500 -0.1281  0.3839
20069TIP3    H181698   0.487   5.529   3.736  0.8818  0.6698  0.3930
20069TIP3    H281699   0.618   5.487   3.672 -0.7908 -1.1154 -2.0956
20070TIP3   OH281700   6.367   1.206   1.845 -0.3428 -0.2126 -0.6912
20070TIP3    H181701   6.416   1.288   1.842 -1.1798  0.4751  1.7159
20070TIP3    H281702   6.302   1.214   1.775  0.8566  0.2830 -1.7792
20071TIP3   OH281703   5.164   3.989  14.236  0.2152  0.1557  0.0791
20071TIP3    H181704   5.196   4.072  14.271  1.9473 -0.2538 -0.4431
20071TIP3    H281705   5.194   3.923  14.300  1.1716 -0.3265 -0.8433
20072TIP3   OH281706   3.545   2.472  16.094  0.6642  0.4976 -0.0820
20072TIP3    H181707   3.490   2.394  16.101 -1.2546  1.7915 -0.3164
20072TIP3    H281708   3.539   2.514  16.180  1.4185  0.5807 -0.0636
20073TIP3   OH281709   4.208   6.472  15.016  0.1597 -0.4262  0.1010
20073TIP3    H181710   4.301   6.488  15.001 -0.1811  0.0761 -1.7924
20073TIP3    H281711   4.165   6.549  14.979 -1.0405 -0.9592  0.3513
20074TIP3   OH281712   1.379   1.174   1.745  0.1820  0.0138  0.6214
20074TIP3    H181713   1.384   1.110   1.674 -0.9829 -0.1203  0.6407
20074TIP3    H281714   1.404   1.257   1.704  1.7072 -0.4279  0.5999
20075TIP3   OH281715   6.770   2.868  11.666 -0.3718  0.1434 -0.2882
20075TIP3    H181716   6.857   2.908  11.660  0.4123 -1.4482 -0.0831
20075TIP3    H281717   6.785   2.786  11.712 -2.3714  0.8917  1.8533
20076TIP3   OH281718   1.607   1.593   1.378  0.0104 -0.4786 -0.5585
20076TIP3    H181719   1.557   1.529   1.327 -0.0203 -0.9721  0.0667
20076TIP3    H281720   1.671   1.628   1.317 -1.1763  0.2719 -1.4236
20077TIP3   OH281721   0.964   4.985   0.896  0.2089 -0.0408 -0.2859
20077TIP3    H181722   0.942   4.909   0.949 -0.1924  1.2179  1.4061
20077TIP3    H281723   1.059   4.997   0.908  0.1010  0.3007  0.2243
20078TIP3   OH281724   5.083   3.850  12.625 -0.5961 -0.5458 -0.1853
20078TIP3    H181725   5.069   3.862  12.719  2.7309 -3.3810  0.9057
20078TIP3    H281726   5.029   3.774  12.603  2.9620 -3.8315  1.1648
20079TIP3   OH281727   2.300   6.545   6.481  0.6634 -0.3445  0.5614
20079TIP3    H181728   2.369   6.611   6.477  0.3633  0.0073  1.0789
20079TIP3    H281729   2.221   6.591   6.454  0.6145 -0.7381  0.0026
20080TIP3   OH281730   6.684   5.055   1.577 -0.0465 -0.0726  0.1036
20080TIP3    H181731   6.631   5.054   1.657  1.1858 -0.2750  0.9511
20080TIP3    H281732   6.760   5.109   1.599  1.4212 -1.9016 -0.1602
20081TIP3   OH281733   2.728   2.720  11.575  0.3742  0.3625 -0.2083
20081TIP3    H181734   2.670   2.796  11.584  0.1845  0.3204 -0.9789
20081TIP3    H281735   2.669   2.649  11.547  0.5360 -0.0942  0.5802
20082TIP3   OH281736   1.353   2.901  16.240  0.7379 -0.4169 -0.5557
20082TIP3    H181737   1.337   2.908  16.146 -0.4899  3.5575 -0.2583
20082TIP3    H281738   1.447   2.918  16.250  0.7081  0.0837 -1.0598
20083TIP3   OH281739   3.176   4.470   3.975 -0.1441 -0.4147 -0.2658
20083TIP3    H181740   3.193   4.546   3.919 -0.9519 -1.1923 -1.6299
20083TIP3    H281741   3.111   4.501   4.038  0.6430  0.4275  0.1455
20084TIP3   OH281742   5.451   3.726  15.093 -0.3920  0.0973  0.2337
20084TIP3    H181743   5.363   3.745  15.060 -0.2995  1.9542  0.9490
20084TIP3    H281744   5.510   3.751  15.021 -0.3801  0.1876  0.2748
20085TIP3   OH281745   1.557   1.396   0.333  0.1345  0.0053 -0.1154
20085TIP3    H181746   1.522   1.453   0.266 -0.8105 -0.9714 -0.4889
20085TIP3    H281747   1.521   1.309   0.312  2.0269 -0.8757  0.0371
20086TIP3   OH281748   0.150   1.104   4.271 -0.1830  0.0718 -0.6957
20086TIP3    H181749   0.150   1.012   4.298  1.5257  0.0468 -0.7028
20086TIP3    H281750   0.190   1.103   4.184  2.7396  1.0827  0.5198
20087TIP3   OH281751   4.241   3.927   4.761  0.1751  0.3811  0.2073
20087TIP3    H181752   4.147   3.916   4.775 -0.0767  0.5803 -1.1529
20087TIP3    H281753   4.247   3.969   4.674  1.6230 -3.4398 -1.7589
20088TIP3   OH281754   3.845   5.371   2.361 -0.4659 -0.4136  0.1028
20088TIP3    H181755   3.796   5.448   2.391  0.2187  1.0612 -2.2343
20088TIP3    H281756   3.781   5.319   2.313 -0.3731  0.0760 -0.5644
20089TIP3   OH281757   3.134   1.691  14.927 -0.1829 -0.0972 -0.3173
20089TIP3    H181758   3.215   1.696  14.876  0.4699 -1.6049  0.4822
20089TIP3    H281759   3.092   1.611  14.895 -0.7703  0.0524  0.0820
20090TIP3   OH281760   5.470   5.074  12.924 -0.4945  0.2377 -0.0368
20090TIP3    H181761   5.516   4.997  12.891  0.1295 -0.0328  1.3971
20090TIP3    H281762   5.420   5.043  12.999 -2.1777  0.7606 -0.8974
20091TIP3   OH281763   1.221   4.039   3.513  0.0509  0.4449 -0.5491
20091TIP3    H181764   1.219   3.948   3.544  0.8437  0.1425 -1.3312
20091TIP3    H281765   1.302   4.075   3.548  0.6773  0.2668 -1.7567
20092TIP3   OH281766   1.701   4.593   0.030 -0.2711  0.4563 -0.3631
20092TIP3    H181767   1.688   4.547  -0.053 -1.9431  1.2077 -0.5627
20092TIP3    H281768   1.737   4.527   0.089  0.3628 -0.2529 -1.5108
20093TIP3   OH281769   4.159   5.559   5.983 -0.0936 -0.1660 -0.3534
20093TIP3    H181770   4.152   5.644   5.939  0.9009  0.2014  0.1509
20093TIP3    H281771   4.252   5.552   6.007 -0.2186 -1.2679 -0.1320
20094TIP3   OH281772   0.199   0.775   2.695 -0.4262  0.6998 -0.1337
20094TIP3    H181773   0.156   0.860   2.696  0.8560  1.3950  2.0062
20094TIP3    H281774   0.239   0.767   2.782  0.3570 -1.6436 -0.6325
20095TIP3   OH281775   3.050   4.643   2.948 -0.3341 -0.0226 -0.0652
20095TIP3    H181776   3.076   4.551   2.955  0.9687  0.3167 -0.1199
20095TIP3    H281777   3.069   4.667   2.857 -0.3112  0.3970  0.0445
20096TIP3   OH281778   3.229   2.380  12.095  0.0733  0.3125  0.3644
20096TIP3    H181779   3.304   2.357  12.151  1.1023 -0.9023 -1.4203
20096TIP3    H281780   3.258   2.455  12.044  0.3332 -0.5221 -0.7536
20097TIP3   OH281781   0.596   2.323   3.545  0.4928 -0.1199 -0.3110
20097TIP3    H181782   0.614   2.394   3.483  1.0427  1.4515  1.5444
20097TIP3    H281783   0.532   2.360   3.605 -0.4704 -1.8117 -0.2396
20098TIP3   OH281784   6.377   5.745   6.296 -0.7933  0.1081 -0.2046
20098TIP3    H181785   6.441   5.756   6.367 -1.3042 -1.7163  0.5972
20098TIP3    H281786   6.396   5.817   6.236  2.8787 -0.9925 -0.6498
20099TIP3   OH281787   1.371   5.963  14.178 -0.3292  0.1346 -0.1657
20099TIP3    H181788   1.282   5.949  14.210 -0.1380 -1.1232 -0.1168
20099TIP3    H281789   1.362   5.973  14.083 -0.4901 -0.3414 -0.2011
20100TIP3   OH281790   4.338   0.810   0.477  0.4569  0.7554  0.3089
20100TIP3    H181791   4.301   0.737   0.527 -1.3157  0.8291 -0.8054
20100TIP3    H281792   4.424   0.778   0.449 -0.6913 -1.3951 -1.0676
20101TIP3   OH281793   0.509   1.313  14.929 -0.0738  0.4191 -0.5737
20101TIP3    H181794   0.470   1.355  14.852 -2.1045 -0.5152 -0.1213
20101TIP3    H281795   0.556   1.238  14.894 -1.3090 -0.2247 -0.9068
20102TIP3   OH281796   1.399   0.055   2.804 -0.2252  0.6712 -0.0562
20102TIP3    H181797   1.456  -0.008   2.848  1.8767  2.2509 -0.3692
20102TIP3    H281798   1.384   0.123   2.869  0.9771  1.8667 -0.9803
20103TIP3   OH281799   0.707   4.569   3.650 -0.1334 -0.4158 -0.5054
20103TIP3    H181800   0.645   4.519   3.704  1.0741 -0.9616  0.4412
20103TIP3    H281801   0.684   4.660   3.666 -0.3702 -0.5960  0.2548
20104TIP3   OH281802   2.495   6.124  14.765 -0.3685  0.4573  0.1293
20104TIP3    H181803   2.401   6.132  14.744 -0.3961  1.4748  0.5867
20104TIP3    H281804   2.504   6.164  14.852  1.0698  3.8802 -1.4246
20105TIP3   OH281805   2.921   3.354  12.056 -0.3680  0.1761  0.3841
20105TIP3    H181806   2.928   3.449  12.052 -0.7603  0.2693  1.5759
20105TIP3    H281807   2.836   3.338  12.097 -1.4461 -0.7411 -2.0352
20106TIP3   OH281808   2.677   0.885  11.353 -0.4706  0.3275  0.0355
20106TIP3    H181809   2.733   0.823  11.399  0.9246  1.6222  0.1429
20106TIP3    H281810   2.713   0.971  11.375 -2.2561  1.1891 -0.2231
20107TIP3   OH281811   4.170   3.911   3.113  0.4670  0.1045  0.1316
20107TIP3    H181812   4.174   3.817   3.131 -0.5752 -0.0989 -0.6170
20107TIP3    H281813   4.257   3.932   3.079  0.1513 -1.0069 -1.5030
20108TIP3   OH281814   1.536   0.339  14.250  0.3825 -0.1584  0.0258
20108TIP3    H181815   1.481   0.402  14.296  1.0512 -1.3722  2.6610
20108TIP3    H281816   1.567   0.387  14.173 -1.0945  1.8815  0.6038
20109TIP3   OH281817   4.874   4.489  16.528 -0.0711  0.1872 -0.2850
20109TIP3    H181818   4.862   4.412  16.583 -0.0896  0.3067 -0.1193
20109TIP3    H281819   4.907   4.556  16.588  0.5890  0.1154 -0.5642
20110TIP3   OH281820   2.470   4.963   4.306 -0.3341  0.2948  0.4074
20110TIP3    H181821   2.521   5.026   4.255 -0.3218  0.3268  0.4589
20110TIP3    H281822   2.446   5.011   4.385 -1.2601  0.5975 -0.0402
20111TIP3   OH281823   1.211   2.970  14.422 -0.6659  0.3308  0.5815
20111TIP3    H181824   1.301   2.951  14.395 -1.1806 -0.2467 -0.7966
20111TIP3    H281825   1.208   3.065  14.431  0.1106  0.3437  0.7991
20112TIP3   OH281826   4.441   6.309  17.166 -0.0023  0.9427  0.4688
20112TIP3    H181827   4.367   6.336  17.220 -0.7889 -0.7829  0.3158
20112TIP3    H281828   4.406   6.307  17.077  0.5042  1.0516  0.2630
20113TIP3   OH281829   1.038   4.339   3.484  1.0170 -0.2307 -0.1170
20113TIP3    H181830   0.994   4.418   3.454  0.2256 -0.1368  1.2378
20113TIP3    H281831   1.132   4.357   3.471  0.7547 -0.5707 -3.3855
20114TIP3   OH281832   3.652   6.204   5.890  0.0149  0.4706  0.3693
20114TIP3    H181833   3.707   6.163   5.822 -0.3130  0.5887  0.0278
20114TIP3    H281834   3.661   6.146   5.966 -0.8599 -0.5567 -0.2704
20115TIP3   OH281835   4.478   6.184  15.966 -0.3816 -0.3488  0.4357
20115TIP3    H181836   4.458   6.252  16.030 -0.5349 -1.1028  1.1950
20115TIP3    H281837   4.490   6.232  15.884 -1.5373  0.4998  0.7348
20116TIP3   OH281838   1.413   5.782  16.499 -0.0454 -0.2595  0.0800
20116TIP3    H181839   1.447   5.859  16.545 -1.0823  0.3080 -0.0860
20116TIP3    H281840   1.382   5.816  16.415 -1.3711 -0.6831  0.3768
20117TIP3   OH281841   6.646   2.710   0.466 -0.3330  0.5001 -0.2873
20117TIP3    H181842   6.683   2.636   0.514  1.0091  1.1255 -0.3325
20117TIP3    H281843   6.551   2.701   0.478 -0.0835  0.0581  1.6048
20118TIP3   OH281844   6.224   2.737   3.627 -0.4739 -0.1524  0.4245
20118TIP3    H181845   6.293   2.712   3.565  0.5221  1.5655  0.7713
20118TIP3    H281846   6.163   2.789   3.575 -2.3259 -2.7354 -0.2021
20119TIP3   OH281847   2.961   6.096  12.134  0.5180 -0.3583  0.3954
20119TIP3    H181848   3.050   6.063  12.140  1.2917  1.2164 -1.2910
20119TIP3    H281849   2.954   6.129  12.044 -1.0519  1.4751  1.1286
20120TIP3   OH281850   1.361   6.074  11.238  0.6157 -0.1482  0.3362
20120TIP3    H181851   1.399   6.161  11.234 -0.4093  0.2647 -1.6833
20120TIP3    H281852   1.270   6.088  11.264  0.0912 -0.4306 -1.2154
20121TIP3   OH281853   5.004   3.785  15.946  0.2887 -0.2445 -0.3078
20121TIP3    H181854   4.986   3.707  15.997  0.1584  0.0883  0.1581
20121TIP3    H281855   5.091   3.770  15.909  0.9207  0.0457  1.0235
20122TIP3   OH281856   4.605   1.146  16.332 -0.6595 -0.0090 -0.7171
20122TIP3    H181857   4.687   1.098  16.321 -0.3214  0.1652  0.8462
20122TIP3    H281858   4.539   1.079  16.348 -0.2933 -0.0238  0.8664
20123TIP3   OH281859   4.375   1.500  14.338  0.0491 -0.5059  0.3056
20123TIP3    H181860   4.313   1.562  14.377  0.0679 -0.2576 -0.0507
20123TIP3    H281861   4.397   1.440  14.409 -0.6653 -0.6501  0.4135
20124TIP3   OH281862   2.456   4.983  14.240  0.1679  0.1486 -0.3369
20124TIP3    H181863   2.551   4.978  14.254  0.1609 -0.1935 -0.4092
20124TIP3    H281864   2.446   5.046  14.169  0.2731  1.0694  0.4363
20125TIP3   OH281865   1.139   6.145   4.368 -0.4558 -0.2167 -0.1610
20125TIP3    H181866   1.187   6.225   4.351  1.1340 -0.4054  2.7877
20125TIP3    H281867   1.065   6.148   4.308  0.3163  2.7387 -1.1184
20126TIP3   OH281868   6.787   4.534  11.494 -0.6779 -0.5183  0.1086
20126TIP3    H181869   6.872   4.548  11.535 -0.5115 -0.2330 -0.3189
20126TIP3    H281870   6.771   4.614  11.445 -1.8004 -0.0361  1.2172
20127TIP3   OH281871   5.808   0.647   3.731  0.9102 -0.0524 -0.1948
20127TIP3    H181872   5.808   0.671   3.824  0.1082 -1.8104  0.3013
20127TIP3    H281873   5.786   0.554   3.731  0.3298  0.0571 -2.1979
20128TIP3   OH281874   0.926   2.705   5.529  0.0426 -0.5581 -0.0470
20128TIP3    H181875   1.008   2.754   5.535 -1.0104  1.4772 -1.3179
20128TIP3    H281876   0.906   2.681   5.619  0.4686  1.6759  0.7082
20129TIP3   OH281877   4.508   5.657  11.299 -0.1141  0.1806 -0.1518
20129TIP3    H181878   4.477   5.744  11.273 -0.7490 -0.2800 -0.9922
20129TIP3    H281879   4.434   5.617  11.343  0.6110  0.5438  1.4533
20130TIP3   OH281880   1.403   2.326   5.495  0.3921 -0.1144  0.2784
20130TIP3    H181881   1.469   2.383   5.535  1.0940 -1.1048  0.5816
20130TIP3    H281882   1.417   2.241   5.537 -0.8757 -0.4203  0.1035
20131TIP3   OH281883   2.918   1.401  12.548 -0.2964  0.0824  0.0233
20131TIP3    H181884   3.013   1.397  12.547 -0.2234  1.2795 -0.0055
20131TIP3    H281885   2.892   1.357  12.629  0.4339  1.7191  1.2101
20132TIP3   OH281886   2.109   3.481  15.318 -0.5382  0.1681  0.6801
20132TIP3    H181887   2.111   3.389  15.292  0.3687  0.0514  1.1325
20132TIP3    H281888   2.124   3.529  15.237  0.6592 -0.1416  0.7070
20133TIP3   OH281889   2.098   6.001   3.550 -0.2244 -0.4426 -0.1750
20133TIP3    H181890   2.145   6.084   3.559 -1.3722  0.3565 -1.3062
20133TIP3    H281891   2.142   5.957   3.478  0.1619 -0.6792  0.1982
20134TIP3   OH281892   5.181   2.265  16.795  0.8133  0.7467 -0.5965
20134TIP3    H181893   5.101   2.298  16.837  0.6985  0.8371 -0.8822
20134TIP3    H281894   5.194   2.179  16.835 -1.2550 -0.7254 -2.7872
20135TIP3   OH281895   0.908   4.721   1.421 -0.6458 -0.4916 -0.0652
20135TIP3    H181896   0.961   4.737   1.499 -1.0472  2.9930 -0.3343
20135TIP3    H281897   0.822   4.697   1.455 -0.7911  0.9106  0.6488
20136TIP3   OH281898   3.476   1.013   6.403  0.2433 -0.3676 -0.3342
20136TIP3    H181899   3.565   1.010   6.369  1.1864 -1.2489  2.0127
20136TIP3    H281900   3.487   1.030   6.497 -2.0675 -0.4113 -0.0065
20137TIP3   OH281901   0.905   5.701  14.233 -0.2422 -0.0767 -0.3029
20137TIP3    H181902   0.853   5.621  14.232 -0.4788  0.0527 -2.1061
20137TIP3    H281903   0.841   5.771  14.224 -0.0778  0.3805  1.7075
20138TIP3   OH281904   1.151   2.687  11.944 -0.1789  0.1046 -0.1659
20138TIP3    H181905   1.056   2.698  11.942 -0.0351  1.6608 -0.1027
20138TIP3    H281906   1.182   2.737  11.868  0.5745 -0.6379 -0.3559
20139TIP3   OH281907   0.194   3.102   1.098 -0.5863  0.4376  0.4048
20139TIP3    H181908   0.143   3.064   1.026 -1.1561  0.5087  0.7731
20139TIP3    H281909   0.129   3.133   1.161 -0.1068  1.1933  0.5412
20140TIP3   OH281910   2.270   4.754   5.475  0.2092  0.1229  0.6806
20140TIP3    H181911   2.298   4.709   5.555 -0.9259 -2.7986 -0.3978
20140TIP3    H281912   2.174   4.750   5.479  0.1170 -1.5157 -1.4578
20141TIP3   OH281913   2.059   6.113  13.575 -0.4551 -0.6375  0.1864
20141TIP3    H181914   2.003   6.150  13.644  0.4237  0.4987  0.3296
20141TIP3    H281915   2.073   6.023  13.602 -1.0580 -0.5385  0.8922
20142TIP3   OH281916   2.514   0.637  14.124 -0.3176 -0.5089 -0.0792
20142TIP3    H181917   2.497   0.658  14.032 -0.2300  1.3342  0.2871
20142TIP3    H281918   2.580   0.568  14.121  1.3121  1.0161 -1.4144
20143TIP3   OH281919   3.629   1.965  11.376 -0.2292  0.0539  0.0196
20143TIP3    H181920   3.644   2.001  11.288  1.8189 -0.1861  0.2256
20143TIP3    H281921   3.642   2.040  11.435  1.2771 -0.3648  0.2673
20144TIP3   OH281922   5.300   1.497   1.211  0.7780  0.1886  0.3147
20144TIP3    H181923   5.285   1.421   1.268 -2.7097 -0.6987 -1.4902
20144TIP3    H281924   5.330   1.566   1.270 -2.1696 -0.7801  3.2474
20145TIP3   OH281925   3.408   5.968   2.072 -0.1959 -0.1152  0.4712
20145TIP3    H181926   3.365   5.884   2.087 -1.4399  0.1135 -1.4398
20145TIP3    H281927   3.337   6.032   2.071  0.5124  0.6924  0.0604
20146TIP3   OH281928   1.089   1.091  12.750  0.5565  0.1448  0.2024
20146TIP3    H181929   1.134   1.116  12.831  1.2602 -0.4407  0.0019
20146TIP3    H281930   1.023   1.160  12.737  1.8875  1.4460  0.0962
20147TIP3   OH281931   5.382   2.261  12.327  0.2583 -0.2382  0.1394
20147TIP3    H181932   5.432   2.202  12.384  0.0936  2.4597  3.3646
20147TIP3    H281933   5.290   2.242  12.347  0.1912  0.5098  0.5773
20148TIP3   OH281934   6.579   6.469   0.733  0.1634 -0.0094 -0.2744
20148TIP3    H181935   6.507   6.449   0.793  0.6160 -1.0245 -0.0623
20148TIP3    H281936   6.644   6.514   0.787 -0.2938  0.9338 -0.4718
20149TIP3   OH281937   1.349   6.418   3.530 -0.7504  0.1486  0.3463
20149TIP3    H181938   1.259   6.414   3.500 -0.5388 -1.5893 -0.2006
20149TIP3    H281939   1.400   6.441   3.452 -0.5564 -0.6367  0.2368
20150TIP3   OH281940   1.380   2.528   0.759 -0.4679  0.0285  0.2935
20150TIP3    H181941   1.299   2.494   0.722  0.7471 -2.5506 -0.2276
20150TIP3    H281942   1.353   2.571   0.840 -2.6294  1.7083 -1.2031
20151TIP3   OH281943   2.899   5.097  12.142 -0.7313  0.4488  0.1729
20151TIP3    H181944   2.983   5.071  12.180 -0.8525  0.2889  0.3326
20151TIP3    H281945   2.878   5.027  12.080 -1.1736  0.0361  0.7771
20152TIP3   OH281946   1.034   1.210   1.109  0.2894 -0.0591  0.6157
20152TIP3    H181947   1.100   1.224   1.177 -0.2801  1.1599  0.9344
20152TIP3    H281948   1.073   1.245   1.029 -0.2128  1.3366  0.9464
20153TIP3   OH281949   5.902   2.295   5.799 -0.3436 -0.4072  0.0318
20153TIP3    H181950   5.963   2.345   5.854 -0.7299  0.5441 -0.3855
20153TIP3    H281951   5.952   2.218   5.772  0.7429  0.4274 -0.4243
20154TIP3   OH281952   5.958   0.767   1.757  0.3907  0.0845 -0.6771
20154TIP3    H181953   5.884   0.797   1.705  1.1601  0.7206 -1.4459
20154TIP3    H281954   5.963   0.673   1.741 -0.0700  0.0874 -0.8429
20155TIP3   OH281955   0.429   0.855  11.553  0.4491  0.1268 -0.4480
20155TIP3    H181956   0.335   0.868  11.554  0.5789  1.1310 -0.2998
20155TIP3    H281957   0.443   0.778  11.609 -0.1462  0.9949  0.9471
20156TIP3   OH281958   2.869   3.868   4.261  0.0744 -0.4447  0.5779
20156TIP3    H181959   2.864   3.939   4.325  0.6022  0.7973 -0.7095
20156TIP3    H281960   2.892   3.791   4.313  0.6631  0.5591  1.8719
20157TIP3   OH281961   3.158   5.207   4.652 -0.0090 -0.2889 -0.5775
20157TIP3    H181962   3.207   5.182   4.574 -0.7231 -2.1305 -0.4869
20157TIP3    H281963   3.155   5.303   4.649  1.8902 -0.2221 -1.5926
20158TIP3   OH281964   5.986   3.550  15.409 -0.4472 -0.1758  0.4947
20158TIP3    H181965   6.013   3.480  15.469 -0.6610  0.6563  1.6058
20158TIP3    H281966   5.959   3.505  15.329 -0.4757 -1.3446  1.1436
20159TIP3   OH281967   2.747   2.908  12.026  0.0180  0.3843 -0.1233
20159TIP3    H181968   2.781   2.974  11.966  0.1399 -0.2900 -0.8090
20159TIP3    H281969   2.824   2.862  12.059 -0.1040 -2.7103 -3.4467
20160TIP3   OH281970   5.918   1.689   1.958 -0.1760  0.2172  0.3386
20160TIP3    H181971   5.863   1.725   1.889 -0.5746 -1.8584 -0.4812
20160TIP3    H281972   5.869   1.707   2.039 -0.1110  1.9034  0.0424
20161TIP3   OH281973   0.745   3.320  10.763  0.4826  0.3832 -0.1369
20161TIP3    H181974   0.732   3.326  10.668 -3.8562 -0.1007  0.2225
20161TIP3    H281975   0.720   3.407  10.796 -0.9149 -0.2840  0.6718
20162TIP3   OH281976   2.927   2.040   4.677 -0.8495 -0.0047 -0.0351
20162TIP3    H181977   2.902   2.126   4.712  0.0222  0.0858  0.4025
20162TIP3    H281978   3.019   2.050   4.654 -0.7889 -0.7766 -0.1355
20163TIP3   OH281979   5.938   2.030   0.628 -0.5879  0.3121 -0.1613
20163TIP3    H181980   5.848   2.046   0.600 -1.1212 -1.9779  0.0548
20163TIP3    H281981   5.959   1.944   0.592  1.0330  0.1963  0.9661
20164TIP3   OH281982   6.215   1.878   5.063 -0.4101 -0.1848  0.1218
20164TIP3    H181983   6.303   1.915   5.075 -0.3655  0.3650 -1.6718
20164TIP3    H281984   6.202   1.823   5.141  1.3694 -0.0100  0.5949
20165TIP3   OH281985   0.908   6.341   0.036 -0.0889 -0.4729  0.5923
20165TIP3    H181986   0.911   6.389   0.119 -2.5373  1.7028 -0.4094
20165TIP3    H281987   0.985   6.373  -0.013  1.0856 -1.3985  1.7800
20166TIP3   OH281988   5.685   0.857   0.245 -0.4977  0.1225 -0.1897
20166TIP3    H181989   5.618   0.791   0.264  0.1048 -0.1990  0.9282
20166TIP3    H281990   5.763   0.827   0.293  0.9551 -0.3421 -2.6723
20167TIP3   OH281991   2.839   6.702   5.351 -0.0359  0.0315  0.0251
20167TIP3    H181992   2.778   6.687   5.423  0.3390 -1.3534  0.0891
20167TIP3    H281993   2.899   6.627   5.355  2.3724  1.8684  0.6554
20168TIP3   OH281994   4.793   0.816  12.097  0.9222 -0.2256 -0.0104
20168TIP3    H181995   4.713   0.818  12.149  0.6005  4.6238 -0.3043
20168TIP3    H281996   4.864   0.826  12.160  1.0096 -0.4219 -0.0745
20169TIP3   OH281997   1.924   4.696   1.340  0.4295 -0.7920  0.0153
20169TIP3    H181998   1.978   4.747   1.399 -0.6554  1.4442 -0.8240
20169TIP3    H281999   1.837   4.698   1.379 -0.1616  0.1703 -1.2521
20170TIP3   OH282000   2.705   4.349   1.649  0.1071  0.0774  0.0308
20170TIP3    H182001   2.760   4.360   1.571 -0.4936  0.5691 -0.3360
20170TIP3    H282002   2.659   4.433   1.658  0.1049 -0.0072  0.8658
20171TIP3   OH282003   5.714   2.582   1.841 -0.6592  0.0262  0.4687
20171TIP3    H182004   5.686   2.583   1.750  0.3189  1.3475  0.1469
20171TIP3    H282005   5.726   2.490   1.862  1.4711 -0.2336 -1.5256
20172TIP3   OH282006   0.276   0.469  13.550  0.5619  0.3565 -0.1161
20172TIP3    H182007   0.274   0.433  13.462 -1.2635 -0.3333  0.1600
20172TIP3    H282008   0.283   0.563  13.538  2.6080  0.1541 -0.9116
20173TIP3   OH282009   3.507   0.369  14.915 -0.0148 -0.0102  0.0959
20173TIP3    H182010   3.543   0.410  14.836 -0.5828 -0.1527 -0.2383
20173TIP3    H282011   3.449   0.300  14.882  2.0694 -2.1509  0.6271
20174TIP3   OH282012   4.635   0.554   4.205 -0.1043 -0.0590 -0.1980
20174TIP3    H182013   4.571   0.620   4.180 -0.2043 -0.5504 -1.3412
20174TIP3    H282014   4.691   0.545   4.128 -0.1241 -1.3273 -0.0899
20175TIP3   OH282015   4.153   3.946   5.997  0.3070 -0.1755 -0.1980
20175TIP3    H182016   4.178   3.960   6.089  1.7810  1.8237 -0.8239
20175TIP3    H282017   4.071   3.994   5.988  1.1110  1.2463 -0.3157
20176TIP3   OH282018   0.188   4.515   3.885  0.0688 -0.0178  0.4120
20176TIP3    H182019   0.166   4.580   3.818  0.4042  0.3321  0.6389
20176TIP3    H282020   0.281   4.528   3.902 -0.1041  0.2055  1.2695
20177TIP3   OH282021   1.484   1.565   0.155 -0.1255 -0.3614  0.5576
20177TIP3    H182022   1.480   1.564   0.060 -1.3479 -0.8499  0.5997
20177TIP3    H282023   1.566   1.611   0.175 -0.8746  1.6117 -0.6773
20178TIP3   OH282024   6.392   4.795  12.733  0.1452  1.1908 -0.1027
20178TIP3    H182025   6.464   4.742  12.699 -0.0169  1.2971 -0.6195
20178TIP3    H282026   6.397   4.784  12.828 -0.8416 -1.0147 -0.2586
20179TIP3   OH282027   5.709   2.388  12.620 -0.3308  0.4051  0.4555
20179TIP3    H182028   5.766   2.464  12.632 -0.3626  0.5596 -0.3107
20179TIP3    H282029   5.744   2.344  12.542 -0.8275  0.1091  0.3924
20180TIP3   OH282030   4.692   4.905   3.904  0.8778  0.0596  0.0224
20180TIP3    H182031   4.632   4.832   3.913  1.0029  0.0313  0.7335
20180TIP3    H282032   4.672   4.943   3.818  0.2131 -0.2680  0.0259
20181TIP3   OH282033   0.933   4.692   2.574  0.4042 -0.3110 -0.2077
20181TIP3    H182034   0.924   4.646   2.658 -1.3084  1.4071  0.6312
20181TIP3    H282035   0.863   4.758   2.575  0.0776 -0.4857 -3.1802
20182TIP3   OH282036   0.876   6.038   0.300  0.3615  0.3443 -0.2064
20182TIP3    H182037   0.892   6.130   0.319 -0.7437  0.6209 -0.5116
20182TIP3    H282038   0.803   6.039   0.237  0.3469 -0.7306 -0.2271
20183TIP3   OH282039   0.544   5.152  16.268  0.2525  0.1592  0.0812
20183TIP3    H182040   0.603   5.222  16.294 -0.9135  1.2278 -0.0349
20183TIP3    H282041   0.579   5.122  16.184  1.3033 -0.0497  0.5843
20184TIP3   OH282042   6.078   4.931  11.330  0.1188  0.5021 -0.6071
20184TIP3    H182043   6.017   4.990  11.374  0.1575  0.3826 -0.3923
20184TIP3    H282044   6.021   4.874  11.278  0.1100  1.0212 -1.1764
20185TIP3   OH282045   1.712   5.605  11.422 -0.0117  0.2479  0.8536
20185TIP3    H182046   1.743   5.694  11.405 -1.4775  0.6245  0.0049
20185TIP3    H282047   1.772   5.549  11.373 -0.8535  0.9856 -1.1007
20186TIP3   OH282048   4.328   2.313   1.336 -0.2988  0.0397 -0.0990
20186TIP3    H182049   4.333   2.252   1.263  2.1036 -0.3039  0.2924
20186TIP3    H282050   4.374   2.391   1.306 -0.3347  0.3483  0.6128
20187TIP3   OH282051   5.473   6.093   2.844  0.2631 -0.6249 -0.2295
20187TIP3    H182052   5.441   6.117   2.757 -1.9833 -0.2578  0.6230
20187TIP3    H282053   5.436   6.160   2.902  0.2326 -1.8355  1.2128
20188TIP3   OH282054   5.685   1.769   1.502 -0.4856  0.0580 -0.3891
20188TIP3    H182055   5.593   1.750   1.484 -0.6024  2.8549 -3.8580
20188TIP3    H282056   5.684   1.812   1.588 -2.2753 -0.5939 -0.0347
20189TIP3   OH282057   0.783   1.372   4.223 -0.3273  0.0007  0.3586
20189TIP3    H182058   0.802   1.389   4.131  1.4118 -0.9253  0.5029
20189TIP3    H282059   0.864   1.394   4.269 -1.4895  1.4952  1.8470
20190TIP3   OH282060   6.325   1.077  13.384 -0.2447  0.2779  0.1933
20190TIP3    H182061   6.289   1.162  13.412 -1.5053 -0.4961  1.0251
20190TIP3    H282062   6.415   1.079  13.416 -0.2521  1.3086  0.2076
20191TIP3   OH282063   2.017   0.079   2.891 -0.0334 -0.5715 -0.1235
20191TIP3    H182064   1.922   0.079   2.902 -0.1003 -0.9894 -0.6230
20191TIP3    H282065   2.030   0.041   2.804  0.5984 -0.6970  0.0229
20192TIP3   OH282066   2.075   3.371  11.025  0.2046 -0.7533  0.0946
20192TIP3    H182067   2.128   3.319  11.086 -1.1457 -2.6265 -0.2470
20192TIP3    H282068   2.112   3.351  10.939 -0.1687 -0.9590 -0.0189
20193TIP3   OH282069   2.088   5.664  11.235  0.2624 -0.3842  0.4658
20193TIP3    H182070   2.072   5.608  11.311 -0.1897  0.6578  1.1575
20193TIP3    H282071   2.179   5.645  11.211  0.2943 -1.0084  1.0300
20194TIP3   OH282072   1.026   1.817  11.510 -0.4027  0.2094  0.1600
20194TIP3    H182073   1.056   1.744  11.456  1.0347  0.0947  1.0754
20194TIP3    H282074   1.099   1.836  11.568 -1.8970  0.2850  2.1196
20195TIP3   OH282075   5.927   1.249   6.442  0.4163  0.8215 -0.7240
20195TIP3    H182076   5.863   1.315   6.416  0.9902  1.3038 -0.9303
20195TIP3    H282077   5.923   1.249   6.538  0.0872  0.8253 -0.7363
20196TIP3   OH282078   0.476   4.827   1.450  0.1558 -0.2307  0.2068
20196TIP3    H182079   0.438   4.882   1.383  1.2853  0.5615  0.1936
20196TIP3    H282080   0.413   4.756   1.462  0.7853 -1.4724 -3.0393
20197TIP3   OH282081   5.230   6.361   0.958 -0.4381  0.1431 -0.2932
20197TIP3    H182082   5.305   6.301   0.959 -1.1820 -0.8079  0.7610
20197TIP3    H282083   5.163   6.315   0.907 -0.3745  0.9389 -1.1281
20198TIP3   OH282084   0.869   5.846  13.891  0.1523 -0.1054  0.4905
20198TIP3    H182085   0.857   5.915  13.826 -0.7243 -0.6974  0.0013
20198TIP3    H282086   0.851   5.889  13.975  0.1467  0.3847  0.2416
20199TIP3   OH282087   5.860   0.215   3.020  0.0919  0.0495  0.1016
20199TIP3    H182088   5.916   0.179   2.951 -0.6698 -0.4747 -0.2505
20199TIP3    H282089   5.811   0.285   2.976  0.0560  0.1306  0.2714
20200TIP3   OH282090   0.107   6.430  14.982 -0.5940 -0.3001 -0.2159
20200TIP3    H182091   0.117   6.338  14.959 -0.4204 -0.0412 -1.2297
20200TIP3    H282092   0.029   6.433  15.037 -1.1583 -0.9348 -0.9554
20201TIP3   OH282093   0.751   6.304  14.178 -0.2233  0.2331  0.0104
20201TIP3    H182094   0.695   6.337  14.107  0.8635 -0.0988 -1.0305
20201TIP3    H282095   0.744   6.209  14.171 -0.1177  0.2001  0.3651
20202TIP3   OH282096   0.273   0.146  15.183 -0.2631 -0.0681 -0.0985
20202TIP3    H182097   0.266   0.220  15.122 -0.8250  0.3292  0.4368
20202TIP3    H282098   0.268   0.068  15.128  0.2677  0.2851 -0.6655
20203TIP3   OH282099   3.107   5.505  16.723 -0.2221  0.1619 -0.3095
20203TIP3    H182100   3.053   5.468  16.653 -0.6200 -1.4930  0.8192
20203TIP3    H282101   3.183   5.447  16.727  0.0787  0.5924  0.2506
20204TIP3   OH282102   3.896   5.020  14.948  0.1085  0.0636 -0.0159
20204TIP3    H182103   3.987   5.020  14.977 -0.0556 -2.3888  0.7348
20204TIP3    H282104   3.881   5.109  14.916  2.1713  1.0984  1.6449
20205TIP3   OH282105   3.890   3.950  14.376  0.4929  0.0139  0.0354
20205TIP3    H182106   3.808   3.993  14.353  0.6783 -0.3020 -1.3209
20205TIP3    H282107   3.867   3.890  14.447 -0.2520  0.6213  0.3086
20206TIP3   OH282108   4.681   3.032  13.831  0.9281 -0.0549 -0.1982
20206TIP3    H182109   4.618   3.084  13.882  0.6989  0.6459 -1.1643
20206TIP3    H282110   4.683   2.947  13.874  1.6593  0.8852  1.7249
20207TIP3   OH282111   5.469   5.587  11.626 -0.4898  0.4794  0.9395
20207TIP3    H182112   5.376   5.567  11.615  0.0412 -2.0634  0.3332
20207TIP3    H282113   5.510   5.502  11.639  2.2721  0.9901 -2.6948
20208TIP3   OH282114   5.067   2.989   3.163 -0.2675 -0.2419  0.6153
20208TIP3    H182115   5.156   2.973   3.133 -0.8411 -2.2383 -0.2079
20208TIP3    H282116   5.021   3.022   3.086  0.0519  2.2380  1.4123
20209TIP3   OH282117   3.013   1.613   1.796  0.4620 -0.6921 -0.0925
20209TIP3    H182118   2.995   1.586   1.706 -0.2877 -2.3683  0.5242
20209TIP3    H282119   3.098   1.657   1.791  0.7028 -1.2578 -1.5370
20210TIP3   OH282120   0.432   2.647   5.844 -0.0898  0.1872  0.1501
20210TIP3    H182121   0.394   2.602   5.919 -1.5218 -0.2957 -0.8176
20210TIP3    H282122   0.356   2.679   5.795  0.8548  2.1823 -0.0961
20211TIP3   OH282123   5.679   4.025   4.290  0.0568 -0.1711 -0.0541
20211TIP3    H182124   5.664   3.950   4.348 -1.7170 -0.4329 -0.7830
20211TIP3    H282125   5.666   4.101   4.346  1.5527 -0.3703  0.6155
20212TIP3   OH282126   4.419   1.587  14.866 -0.6897 -0.5146  0.1341
20212TIP3    H182127   4.407   1.649  14.794 -0.6074  0.2689  0.7851
20212TIP3    H282128   4.335   1.541  14.872 -1.2007  0.4372  0.4805
20213TIP3   OH282129   4.072   0.563  16.715  0.4382  0.5840 -0.0910
20213TIP3    H182130   4.036   0.553  16.627 -1.2130 -3.2824  0.8113
20213TIP3    H282131   4.167   0.561  16.703  0.2879 -2.5930 -1.7076
20214TIP3   OH282132   4.846   0.256   0.753  0.4987 -0.6638 -0.5690
20214TIP3    H182133   4.917   0.212   0.800  1.2692 -1.2755 -2.2229
20214TIP3    H282134   4.772   0.195   0.758  0.1491 -0.1662  0.8849
20215TIP3   OH282135   2.201   2.936  12.015  0.0185 -0.1297  0.1736
20215TIP3    H182136   2.247   2.993  11.953 -2.0051  1.7147  0.2396
20215TIP3    H282137   2.243   2.954  12.099  0.7002 -0.2665 -0.1263
20216TIP3   OH282138   6.753   6.635   0.891 -0.1494  0.0082 -0.1947
20216TIP3    H182139   6.848   6.626   0.903 -0.0913  0.3991 -0.3381
20216TIP3    H282140   6.717   6.629   0.979 -0.0144 -0.4202 -0.1671
20217TIP3   OH282141   0.052   2.900   1.731  0.6009 -0.2231 -0.0016
20217TIP3    H182142   0.115   2.964   1.765  0.5091 -0.5293  0.7555
20217TIP3    H282143   0.105   2.825   1.705  0.5405 -0.5238  0.7373
20218TIP3   OH282144   6.032   3.856   5.752 -0.1122 -0.0587  0.5397
20218TIP3    H182145   6.052   3.942   5.788 -1.7353  1.1424 -1.2227
20218TIP3    H282146   5.938   3.858   5.735  0.3278 -0.7754 -2.8535
20219TIP3   OH282147   0.340   5.230   0.966 -0.3487  0.0178  0.0741
20219TIP3    H182148   0.270   5.266   1.019  0.2998  1.0658  0.2418
20219TIP3    H282149   0.408   5.297   0.967  0.1264 -0.4183 -1.1633
20220TIP3   OH282150   4.210   0.293   4.388  0.3499  0.0309 -0.5285
20220TIP3    H182151   4.256   0.299   4.304  0.1341 -1.6256 -0.8043
20220TIP3    H282152   4.141   0.229   4.372 -1.8676  2.1409 -0.0133
20221TIP3   OH282153   1.675   1.657  13.212  1.0194  0.2838 -0.4559
20221TIP3    H182154   1.615   1.732  13.209  0.6219 -0.0081  0.0885
20221TIP3    H282155   1.757   1.691  13.176  0.3087  0.4779 -1.9944
20222TIP3   OH282156   2.571   2.175   5.561 -0.1276 -0.3582  0.0691
20222TIP3    H182157   2.612   2.139   5.482 -1.5511 -2.1962  0.0929
20222TIP3    H282158   2.481   2.192   5.535 -0.5172 -0.6570  1.1849
20223TIP3   OH282159   0.482   6.149   0.863  0.1740 -0.3404 -0.4293
20223TIP3    H182160   0.518   6.117   0.780 -1.8162 -0.3681 -1.3470
20223TIP3    H282161   0.454   6.239   0.845  0.6519  0.0198  0.5286
20224TIP3   OH282162   0.444   3.709  12.534  0.4165 -0.3479 -0.5459
20224TIP3    H182163   0.451   3.773  12.463  0.0673 -1.4353 -1.5966
20224TIP3    H282164   0.425   3.626  12.489  2.4506 -1.5228  0.6413
20225TIP3   OH282165   5.580   3.138   0.312 -0.4460  0.3787  0.0720
20225TIP3    H182166   5.554   3.207   0.373 -2.7029  0.1954 -0.5846
20225TIP3    H282167   5.554   3.171   0.226 -0.0617 -0.6173 -0.4407
20226TIP3   OH282168   2.540   4.184   2.291  0.4396 -0.4863 -0.7669
20226TIP3    H182169   2.495   4.268   2.283  1.0237  0.3216  2.6730
20226TIP3    H282170   2.603   4.183   2.219 -0.2746  1.5387 -1.4927
20227TIP3   OH282171   1.908   2.797  11.367 -0.3303 -0.2645  0.2148
20227TIP3    H182172   1.866   2.883  11.364  0.4990  0.1655  0.5377
20227TIP3    H282173   1.903   2.770  11.459  2.0964  0.8431  0.7452
20228TIP3   OH282174   3.046   2.025   4.375 -1.1266 -0.4533 -0.0006
20228TIP3    H182175   3.075   2.104   4.329  0.6028 -1.4291 -0.6764
20228TIP3    H282176   2.951   2.037   4.387 -0.9491  1.5631 -0.3574
20229TIP3   OH282177   1.683   5.464  13.696 -0.2357 -0.2550 -0.3398
20229TIP3    H182178   1.616   5.432  13.757 -0.3852  0.4986 -0.0972
20229TIP3    H282179   1.687   5.397  13.628 -1.8851  0.1089 -0.8386
20230TIP3   OH282180   2.202   1.913   4.321 -0.4897  0.8679  0.3819
20230TIP3    H182181   2.296   1.911   4.305 -0.4268  1.0184  0.7278
20230TIP3    H282182   2.193   1.893   4.414 -0.8352  0.2432  0.2184
20231TIP3   OH282183   1.290   3.940   5.166  0.0985  0.2535  0.6793
20231TIP3    H182184   1.308   3.908   5.254 -0.4858 -0.3047  0.6107
20231TIP3    H282185   1.233   3.873   5.128  0.2112  0.5682 -0.0640
20232TIP3   OH282186   3.652   3.580   3.173  0.0636 -0.6247  0.1719
20232TIP3    H182187   3.641   3.665   3.215  0.0058 -0.6042  0.1159
20232TIP3    H282188   3.734   3.588   3.124  1.3177 -1.3622  2.0210
20233TIP3   OH282189   1.263   4.784   3.077 -0.4277  0.4707 -0.6589
20233TIP3    H182190   1.354   4.811   3.091 -0.5383  0.4040  0.2114
20233TIP3    H282191   1.244   4.811   2.987  0.0332  1.6617 -0.4164
20234TIP3   OH282192   1.051   3.977   5.594  0.1795  0.2044  0.1764
20234TIP3    H182193   0.984   3.913   5.572  0.3621  0.4557 -1.1657
20234TIP3    H282194   1.004   4.060   5.600  0.2736  0.2802 -0.1415
20235TIP3   OH282195   1.609   4.655   2.826  0.2842  0.5690 -0.1697
20235TIP3    H182196   1.574   4.736   2.863 -0.1751  0.5409 -0.5303
20235TIP3    H282197   1.668   4.621   2.893  0.2393  1.0405  0.1120
20236TIP3   OH282198   1.958   0.818  16.860 -0.0059  0.2492  0.2563
20236TIP3    H182199   2.040   0.799  16.813 -0.2942 -0.1254 -0.1024
20236TIP3    H282200   1.985   0.830  16.951  0.6314  1.4781 -0.0700
20237TIP3   OH282201   3.379   1.433   4.254 -0.0248 -0.2223  0.4169
20237TIP3    H182202   3.301   1.481   4.283  0.9641  0.4496  2.1083
20237TIP3    H282203   3.388   1.362   4.317  0.4530 -0.6092 -0.0806
20238TIP3   OH282204   2.785   0.523   0.172  0.1245 -0.3898 -0.1627
20238TIP3    H182205   2.756   0.548   0.259  1.0942 -1.3999  0.4710
20238TIP3    H282206   2.880   0.539   0.173  0.1281 -0.3006 -1.0721
20239TIP3   OH282207   1.171   5.904  16.682 -0.1003  0.3047  0.0236
20239TIP3    H182208   1.175   5.866  16.594  0.7996  2.7216 -1.0666
20239TIP3    H282209   1.077   5.918  16.697 -0.3008 -0.6203 -0.2939
20240TIP3   OH282210   0.084   4.052  15.175  0.1198  0.4442 -0.1433
20240TIP3    H182211   0.158   4.001  15.143 -0.4530  0.4398 -1.5091
20240TIP3    H282212   0.073   4.023  15.266  2.7021  1.5231  0.5819
20241TIP3   OH282213   6.442   3.251   4.795  0.6108 -0.2128 -0.2343
20241TIP3    H182214   6.463   3.159   4.780  1.6807  0.0138 -0.2183
20241TIP3    H282215   6.448   3.262   4.890 -1.5152 -0.5712 -0.0226
20242TIP3   OH282216   1.659   4.954   6.057  0.1836 -0.2091 -0.2870
20242TIP3    H182217   1.706   5.021   6.107 -0.8620  0.8961 -0.7198
20242TIP3    H282218   1.603   4.911   6.121 -0.2942  0.4136 -0.2723
20243TIP3   OH282219   2.230   1.510   2.586 -0.5225  0.1759  0.0279
20243TIP3    H182220   2.136   1.502   2.569 -0.3984 -0.4552 -0.4193
20243TIP3    H282221   2.260   1.576   2.524 -0.3277 -1.0928 -1.3096
20244TIP3   OH282222   0.007   2.226   4.205 -0.1585  0.1155  0.1274
20244TIP3    H182223   0.014   2.321   4.209  0.2233  0.1023 -0.2536
20244TIP3    H282224   0.018   2.204   4.113 -3.4531 -0.0440 -0.3354
20245TIP3   OH282225   4.431   3.354  14.224 -0.0744 -0.0843  0.4566
20245TIP3    H182226   4.425   3.333  14.317 -1.1572 -2.1696 -0.0099
20245TIP3    H282227   4.340   3.375  14.199  0.3726  1.5209  0.0579
20246TIP3   OH282228   5.589   1.297  12.619  0.0305 -0.8105 -0.3623
20246TIP3    H182229   5.514   1.278  12.675 -0.0034 -0.4433 -0.2825
20246TIP3    H282230   5.591   1.224  12.556 -0.6598 -0.5906 -0.6460
20247TIP3   OH282231   3.293   0.639  12.505  0.2007 -0.9223 -0.6289
20247TIP3    H182232   3.273   0.706  12.439 -0.8249 -0.6052 -0.0257
20247TIP3    H282233   3.214   0.585  12.508 -0.3310 -0.1204  1.2809
20248TIP3   OH282234   1.738   2.139   1.915 -0.3724 -0.6018  0.5896
20248TIP3    H182235   1.782   2.181   1.988 -2.2203 -0.4733  1.7025
20248TIP3    H282236   1.783   2.172   1.837  1.2901 -0.3237  1.6185
20249TIP3   OH282237   2.134   1.509   0.859 -0.3935  0.1404 -0.4183
20249TIP3    H182238   2.193   1.570   0.903  0.7238 -0.6065 -0.8143
20249TIP3    H282239   2.186   1.474   0.786 -1.1818 -0.8700 -0.5269
20250TIP3   OH282240   6.380   4.019  14.136 -0.1097  0.4431 -0.1745
20250TIP3    H182241   6.366   3.925  14.150  1.5702  0.2345  0.3114
20250TIP3    H282242   6.469   4.025  14.103  1.0367  2.1023  2.8294
20251TIP3   OH282243   2.236   6.202   5.603 -0.4340 -0.0371 -0.6088
20251TIP3    H182244   2.252   6.291   5.635  2.5573  0.0981 -2.1648
20251TIP3    H282245   2.207   6.154   5.681  0.3038  1.7232  0.8291
20252TIP3   OH282246   1.218   0.716  16.896  0.0963 -0.4877  0.4681
20252TIP3    H182247   1.255   0.699  16.809 -1.8382 -1.5093 -0.2350
20252TIP3    H282248   1.124   0.730  16.879 -0.2592 -0.3738  2.3627
20253TIP3   OH282249   6.657   3.059   2.296  0.8429 -0.1430 -0.0843
20253TIP3    H182250   6.719   2.998   2.336  0.7617  0.0899  0.3920
20253TIP3    H282251   6.573   3.040   2.337  1.0618  1.1660  1.0388
20254TIP3   OH282252   1.466   2.155   1.944  0.1206  0.1897  0.4991
20254TIP3    H182253   1.553   2.115   1.941  0.7693  1.3002 -4.4417
20254TIP3    H282254   1.482   2.248   1.932 -1.6701  0.3885 -0.7705
20255TIP3   OH282255   5.367   0.223  14.374 -0.0678 -0.5503  0.5616
20255TIP3    H182256   5.454   0.222  14.334 -0.7024  0.3213 -0.8834
20255TIP3    H282257   5.378   0.276  14.453  0.6397 -0.1245  0.1897
20256TIP3   OH282258   3.843   1.775   3.428 -0.4926  0.3573 -0.1564
20256TIP3    H182259   3.781   1.719   3.381 -0.2961 -0.8469  0.9989
20256TIP3    H282260   3.792   1.854   3.447 -1.4737 -0.3204  0.1470
20257TIP3   OH282261   0.529   1.727  10.509  0.1598  0.3495  0.2759
20257TIP3    H182262   0.544   1.814  10.544 -0.0397  0.3607  0.3343
20257TIP3    H282263   0.601   1.713  10.447 -0.3546  0.9547 -0.4807
20258TIP3   OH282264   5.258   1.989   4.431 -0.2147 -0.5418  0.0813
20258TIP3    H182265   5.168   1.970   4.405 -0.4007 -0.3649  0.5873
20258TIP3    H282266   5.310   1.970   4.352 -0.6879 -0.6633 -0.2065
20259TIP3   OH282267   4.383   4.161   2.530 -0.1908 -0.0048  0.1096
20259TIP3    H182268   4.469   4.121   2.545  0.7028  2.1630  1.2170
20259TIP3    H282269   4.322   4.088   2.527  1.6705 -1.5978 -0.5939
20260TIP3   OH282270   1.296   6.447   2.814 -0.4490  0.0714 -0.0318
20260TIP3    H182271   1.332   6.368   2.773 -0.8928  0.8453 -2.0326
20260TIP3    H282272   1.205   6.424   2.834 -0.4633 -0.0672 -0.2453
20261TIP3   OH282273   0.643   3.515  12.378  0.8367 -0.2398  0.8216
20261TIP3    H182274   0.587   3.454  12.427 -1.4887  3.3550  3.1894
20261TIP3    H282275   0.706   3.546  12.443  0.9504  0.9817  0.1438
20262TIP3   OH282276   0.039   5.577  14.269 -0.6227  0.5201  0.1251
20262TIP3    H182277   0.066   5.485  14.264  0.0603  0.7430 -0.4816
20262TIP3    H282278   0.100   5.623  14.212 -1.2798  1.2831  0.0190
20263LIG     O182279   2.525   3.133  17.142 -0.0067  0.1109  0.2019
20263LIG     O282280   2.740   3.086  17.222 -0.9969  0.3369 -0.6165
20263LIG     O382281   2.756   3.319  17.282  0.6121 -0.2691  0.4525
20263LIG     O482282   2.582   2.859  16.968  0.2419  0.2997  0.4095
20263LIG     O582283   2.642   3.077  16.798 -0.9155  0.1506 -0.3472
20263LIG     O682284   2.762   3.018  17.513  0.2254 -0.8032 -0.2345
20263LIG     O782285   2.993   3.068  17.352  0.9013  0.4838 -0.1112
20263LIG     O882286   3.118   3.332  17.377  1.1682  0.4338  0.1868
20263LIG     O982287   2.670   2.824  17.301  0.1404 -0.5624  0.0013
20263LIG    O1082288   2.656   3.388  17.015 -0.5255 -0.2321  0.3330
20263LIG    O1182289   2.889   3.586  17.288  0.1715  0.1874 -0.0270
20263LIG     C182290   2.625   3.025  17.167  0.1107 -1.0469 -0.3596
20263LIG     C282291   2.660   2.967  17.027  0.3895 -0.1245  0.3908
20263LIG     C382292   2.652   3.098  16.941 -0.2992  0.6938 -0.7474
20263LIG     C482293   2.525   3.170  17.001 -0.5495 -1.0468  0.5209
20263LIG     C582294   2.717   3.191  17.329  0.3184  0.5253 -0.3354
20263LIG     C682295   2.793   3.157  17.462  0.3430  0.3073 -0.4785
20263LIG     C782296   2.944   3.163  17.442  0.2281 -0.4781  0.0606
20263LIG     C882297   2.976   3.302  17.392 -0.3692 -0.0954  0.7010
20263LIG     C982298   2.897   3.333  17.263 -0.0454 -0.1396 -0.2611
20263LIG    C1082299   2.572   2.915  17.256  0.6036  0.1764 -0.2355
20263LIG    C1182300   2.527   3.326  16.995  0.3289 -0.3765 -0.0952
20263LIG    C1282301   2.928   3.476  17.203 -0.0743  1.2569 -0.3584
20263LIG     H182302   2.763   2.928  17.018  0.0239 -1.2992  1.0924
20263LIG     H282303   2.746   3.153  16.957 -0.7535  1.0110  1.0034
20263LIG     H382304   2.432   3.129  16.958 -0.4350 -1.0793  0.3049
20263LIG     H482305   2.608   3.192  17.350  0.2486 -0.9873 -0.4666
20263LIG     H582306   2.763   3.224  17.544 -0.8398 -0.8590  0.0878
20263LIG     H682307   2.983   3.157  17.545 -0.8409  4.6247  1.0432
20263LIG     H782308   2.936   3.382  17.458 -2.6317 -0.8638  0.3477
20263LIG     H882309   2.927   3.257  17.188 -3.3299 -0.9757 -0.9134
20263LIG     H982310   2.525   2.970  17.341  2.1530 -2.6072  2.6428
20263LIG    H1082311   2.486   2.860  17.212  1.9988 -1.9466 -0.4483
20263LIG    H1182312   2.492   3.342  16.891 -1.6240 -0.4796  0.5182
20263LIG    H1282313   2.449   3.364  17.064  0.4299 -0.4903  0.0831
20263LIG    H1382314   3.035   3.469  17.174 -0.9473  0.2634 -3.7612
20263LIG    H1482315   2.884   3.486  17.102  0.6325  1.2645 -0.6764
20263LIG    H1582316   2.487   2.873  16.966 -0.0538 -1.4911 -1.0262
20263LIG    H1682317   2.580   3.136  16.756  2.1154  3.6952 -0.3977
20263LIG    H1782318   2.794   3.016  17.604  3.3277 -1.1012 -1.1947
20263LIG    H1882319   2.937   2.994  17.377 -0.9004  1.7695 -0.1102
20263LIG    H1982320   3.140   3.424  17.394 -1.2899  0.9142  1.1179
20263LIG    H2082321   2.698   2.869  17.381 -0.6589  0.1151 -0.0891
20263LIG    H2182322   2.666   3.385  17.111  1.6987  0.5709  0.1843
20263LIG    H2282323   2.797   3.605  17.272  0.2068  0.4240  0.0476
   6.81873   6.81873  17.30167
